/*--------------------------------*- C++ -*----------------------------------*\
  =========                 |
  \\      /  F ield         | OpenFOAM: The Open Source CFD Toolbox
   \\    /   O peration     | Website:  https://openfoam.org
    \\  /    A nd           | Version:  6
     \\/     M anipulation  |
\*---------------------------------------------------------------------------*/
FoamFile
{
    version     2.0;
    format      ascii;
    class       volScalarField;
    location    "49.8";
    object      alphat;
}
// * * * * * * * * * * * * * * * * * * * * * * * * * * * * * * * * * * * * * //

dimensions      [1 -1 -1 0 0 0 0];

internalField   nonuniform List<scalar> 
238185
(
5.928467
6.943992
7.192899
7.245964
6.218594
6.956788
7.111094
8.045651
8.611556
9.169772
8.420398
8.562579
6.639632
7.237628
7.339762
8.124701
8.534106
9.024892
9.422849
9.813347
10.12171
10.58839
9.564031
9.724845
7.313894
7.981297
8.750037
9.057976
9.372019
9.659051
9.937398
10.21572
10.52047
10.87247
11.25027
11.60881
12.07384
10.59651
9.455199
10.11666
10.30283
10.41447
10.53687
10.70111
10.87995
11.09154
11.3617
11.70052
12.08062
12.58207
13.11458
13.29966
9.594747
10.99194
11.42533
11.36777
11.32668
11.32433
11.36276
11.46241
11.58668
11.7667
11.96885
12.22757
12.54236
12.90322
13.03912
11.3221
11.81291
12.30957
12.12688
11.94358
11.79679
11.69535
11.68465
11.69575
11.72757
11.86142
12.06014
12.25484
12.5402
12.91702
13.26472
13.30989
10.25737
12.50501
12.68299
12.37183
12.10355
11.85259
11.7254
11.62237
11.54519
11.52441
11.56862
11.69252
11.87219
12.03594
12.31661
12.60707
12.69772
11.00541
12.11656
12.98037
12.79204
12.44709
12.1366
11.83478
11.75396
11.51472
11.51995
11.43834
11.55639
11.55528
11.852
11.98969
12.28999
12.64905
12.96171
12.88158
11.61716
12.54908
12.37964
12.06036
11.73828
11.43414
11.36107
11.15124
11.16116
11.08061
11.20938
11.20133
11.50189
11.62089
11.91086
12.21951
12.49159
12.41194
9.49384
11.47861
11.73024
11.42421
11.13257
10.87293
10.74617
10.64842
10.57701
10.55796
10.60372
10.72876
10.90103
11.03292
11.28065
11.48569
11.55462
10.16299
10.76164
11.08843
10.82222
10.58085
10.39732
10.26945
10.2453
10.24146
10.25992
10.38964
10.57131
10.73907
10.98741
11.28224
11.53806
11.56095
8.834492
9.913352
10.12837
9.963202
9.848669
9.783531
9.780309
9.841557
9.9423
10.09576
10.27188
10.5029
10.79181
11.07097
11.19859
9.920329
8.883735
9.211122
9.212037
9.185188
9.183047
9.249912
9.320836
9.525716
9.689915
9.96366
10.26997
10.65915
11.08022
11.23062
7.109969
7.58951
8.195627
8.33737
8.475663
8.623793
8.754859
8.989883
9.153033
9.421862
9.664361
9.908708
10.23969
9.179769
6.63562
7.048696
7.028026
7.671622
7.971792
8.270536
8.591605
8.811522
8.981741
9.225812
8.41228
8.547456
6.142322
6.655039
6.831265
7.659428
8.1837
8.512161
7.837278
8.004556
5.759804
6.567195
6.940226
7.152341
6.92771
9.110899
9.577492
9.709932
9.719755
9.614856
9.426125
9.158574
8.831098
8.4599
6.394017
7.961907
8.061358
9.256147
9.608035
9.724769
9.755186
9.701687
9.619266
9.561629
9.645825
9.883259
8.892143
8.81332
6.314038
7.405507
8.361786
8.762289
9.312281
9.539028
9.679107
9.81228
9.879695
9.912356
9.947703
10.06965
10.23967
10.29001
10.62411
9.321291
6.388548
7.446041
8.350775
8.811564
9.080096
9.314488
9.434849
9.479951
10.38335
10.56175
10.71494
10.8975
11.06368
11.29802
11.58581
11.96151
12.18263
10.62077
6.668935
7.637267
8.469556
8.784938
8.926135
9.014387
9.030952
10.09839
10.18303
11.4965
11.86817
12.12602
12.23905
12.45208
12.77786
12.97178
13.1687
13.34207
13.28449
11.45059
6.804142
7.707128
8.456663
8.600149
8.646126
8.633159
9.77413
9.891853
11.35955
12.01416
12.84613
13.36115
13.71826
13.96864
14.1892
14.20884
14.32562
14.48377
14.39311
14.37444
14.26509
12.35936
8.025749
8.562618
8.646691
8.64391
8.68314
9.783281
11.35786
12.1021
12.99617
13.64462
14.25351
14.75753
15.18653
15.52036
15.72134
15.87145
15.912
15.76107
15.76883
15.69528
15.76908
15.64718
8.111811
9.545904
9.935816
9.995326
10.13199
10.32695
12.14647
13.18571
13.8763
14.47078
14.97154
15.42395
15.82888
16.19266
16.50601
16.74851
16.88236
16.9166
16.7333
16.44901
16.19095
16.04708
15.87388
13.51043
9.933322
10.56658
10.48802
10.4954
10.57679
12.11092
13.74407
14.48768
14.99157
15.38955
15.73307
16.04651
16.33
16.58847
16.81219
16.99198
17.09746
17.08799
16.88971
16.59045
16.31431
16.04845
15.91898
15.43725
11.35216
11.74531
11.65978
11.7103
12.03382
13.71974
14.52736
15.03592
15.37388
15.63753
15.87293
16.08804
16.28759
16.48141
16.65909
16.80715
16.91541
16.93211
16.82282
16.54161
16.2111
15.96678
15.84005
15.47742
10.7974
10.88029
10.78916
10.81714
12.81397
14.03437
14.60183
14.95114
15.18014
15.37368
15.54482
15.70994
15.8716
16.03453
16.19356
16.34321
16.46038
16.52592
16.49777
16.34727
16.16068
15.98463
15.88135
15.58763
11.43
11.71238
11.64836
11.6725
13.15069
13.77137
14.20072
14.46149
14.63561
14.7992
14.92787
15.07758
15.21249
15.36514
15.49918
15.65127
15.76964
15.86291
15.88898
15.83399
15.66641
15.49619
15.43239
15.19077
10.79812
11.0432
10.99267
11.03591
12.45907
13.06355
13.4787
13.72809
13.8946
14.04993
14.1707
14.30753
14.42919
14.56468
14.68185
14.81409
14.91642
14.99802
15.03405
15.00396
14.87621
14.75354
14.65314
14.46607
9.510345
9.503315
9.413308
9.418691
11.17938
12.27438
12.77725
13.0859
13.28563
13.4506
13.59182
13.72278
13.84581
13.96496
14.07608
14.17576
14.24803
14.28329
14.26734
14.16529
14.01994
13.93775
13.82717
13.63745
10.11258
10.10685
9.937803
9.948147
10.15995
11.52726
12.18623
12.61272
12.89113
13.10387
13.29232
13.46155
13.61647
13.76499
13.89799
14.00664
14.08461
14.10545
14.05087
13.88639
13.67064
13.48799
13.35327
13.12072
8.803668
8.93448
8.784724
8.729779
8.778553
10.20668
11.48689
12.08067
12.467
12.75692
13.00377
13.22796
13.43458
13.62489
13.79394
13.93498
14.02699
14.04943
13.95726
13.78678
13.63946
13.49042
13.36861
13.0386
7.629821
8.579839
8.768313
8.691352
8.782943
8.96159
10.47517
11.29507
11.80803
12.21304
12.53505
12.81124
13.06492
13.28285
13.4794
13.63864
13.75301
13.80408
13.73315
13.60323
13.52744
13.55895
13.47551
11.77758
7.445811
7.629269
7.576134
7.58991
7.642111
8.72907
10.1343
10.746
11.42075
11.85517
12.21761
12.49108
12.68614
12.81895
12.93329
12.98939
12.99577
12.90035
12.93062
12.96262
13.0932
13.05474
6.640593
7.141388
7.621187
7.665566
7.678409
7.681447
8.784969
8.98378
10.36194
10.9081
11.52636
11.82881
11.96237
12.04398
12.07182
12.00368
11.99256
11.98282
11.88305
11.82772
11.70285
10.38225
6.582596
7.181928
7.821234
7.963171
8.028194
8.121122
8.163538
9.256238
9.387335
10.72016
11.04117
11.20848
11.209
11.26741
11.34744
11.35989
11.37591
11.36098
11.19506
9.901878
6.389283
6.989356
7.662582
7.938526
8.12835
8.331451
8.51219
8.665236
9.769589
10.03901
10.23663
10.41704
10.51395
10.65457
10.75974
10.88443
10.85209
9.677663
6.013935
6.684004
7.370019
7.69018
8.078097
8.341742
8.594942
8.84886
9.168975
9.381508
9.567779
9.75435
9.918676
9.931254
10.10074
9.099392
5.829398
6.654708
6.829332
7.578609
7.867941
8.10073
8.297674
8.532003
8.681338
8.889171
9.16393
9.44805
8.659559
8.732266
6.001177
7.274734
7.638053
7.797206
7.865823
7.976854
7.980911
8.005936
8.034705
8.09112
7.839742
10.32648
10.90286
11.0179
10.92652
10.66464
10.19208
9.498364
7.613241
10.06264
10.48744
10.23608
11.59892
11.91988
11.97029
11.91553
11.83456
11.80386
11.93289
10.71751
9.986816
9.12152
7.543265
9.200407
10.74189
11.27519
11.66587
12.33302
12.53276
12.55018
12.49698
12.41891
12.31451
12.08003
11.49113
11.06062
10.69158
9.238938
6.596771
8.463218
8.954251
10.24861
11.19046
11.8583
12.63561
13.02338
13.13257
13.11221
13.02322
12.88582
12.69125
12.40564
12.01842
11.70553
11.34872
10.95635
9.643586
9.142128
6.371829
7.891499
9.115211
9.799043
10.69246
11.97987
12.33403
13.27421
13.55976
13.6522
13.63341
13.54482
13.40247
13.21202
12.9725
12.67428
12.40742
12.16432
11.94388
11.55704
11.31099
9.727871
6.281502
7.633097
8.736555
9.371106
9.765437
10.96347
12.41588
12.98093
13.58658
13.86545
14.03691
14.02835
13.97919
13.91784
13.84318
13.77647
13.7228
13.6749
13.58065
13.42817
13.41693
13.1847
12.76495
10.82517
7.350011
8.378969
8.795444
8.983008
10.13345
11.70884
12.67534
13.21756
13.7008
14.02568
14.33259
14.66404
14.75327
14.7814
14.84252
14.96002
15.10831
15.26266
15.37559
15.3837
15.26153
15.32117
15.07637
14.67244
6.847867
7.931339
8.291792
8.370075
9.512262
11.00255
11.9892
12.69767
13.21869
13.73715
14.41917
14.89998
15.52283
15.88524
16.07481
16.23125
16.42454
16.6407
16.8276
16.95268
16.96156
16.78759
16.4686
16.1368
15.43736
13.06442
6.404284
7.447346
7.860178
7.874175
9.04501
10.38777
11.20677
11.92256
12.68318
13.64439
14.34204
15.27806
15.96579
16.6399
17.14893
17.5311
17.77228
17.93221
18.09366
18.2037
18.23915
18.16867
17.97149
17.59824
17.10065
16.55304
15.57248
12.67248
7.959712
8.526741
8.591889
8.682002
10.03988
10.74276
11.35113
12.20448
13.56056
14.83537
15.73438
16.59842
17.29804
17.91651
18.4246
18.83186
19.13206
19.3254
19.42014
19.49274
19.50257
19.46831
19.40721
19.28798
19.05435
18.71276
18.19767
17.41491
8.834108
8.884677
8.871997
10.2132
11.29348
11.87905
12.59575
13.61324
15.29616
16.43969
17.27956
17.98148
18.56268
19.05752
19.46864
19.80108
20.05428
20.22358
20.28743
20.29639
20.24411
20.14822
20.03115
19.87797
19.62979
19.28589
18.90133
18.16791
8.645576
10.25078
10.34122
10.35402
11.60076
12.18217
12.80371
13.75008
15.38506
16.87502
17.78969
18.4441
18.95268
19.36173
19.69624
19.96478
20.17304
20.32146
20.40529
20.40641
20.30045
20.15274
19.94525
19.69848
19.4173
19.03832
18.45864
17.75594
16.80247
13.59345
11.06192
11.6841
11.52634
11.53789
12.71478
13.27356
13.97728
15.00095
16.73794
17.76616
18.42719
18.87509
19.19864
19.44185
19.62501
19.75739
19.84521
19.88914
19.88544
19.82356
19.67903
19.50048
19.26693
19.00491
18.7154
18.35968
17.84235
17.24081
16.44297
15.21454
11.18101
11.33945
11.10039
11.04371
12.10791
12.76959
13.78087
15.6505
17.02995
17.77008
18.21777
18.50057
18.6919
18.82494
18.91828
18.98009
19.01631
19.02884
19.01724
18.97406
18.88538
18.77502
18.63844
18.48716
18.32797
18.143
17.84641
17.47603
16.95017
16.12589
11.38164
11.67446
11.45901
11.41234
12.45114
13.0057
13.86058
15.58847
16.48628
17.01093
17.3115
17.49021
17.60551
17.67878
17.72967
17.76146
17.78158
17.78796
17.78446
17.76397
17.71868
17.66002
17.58951
17.51128
17.43603
17.35218
17.19201
16.95472
16.59439
15.98386
10.71961
10.96255
10.75639
10.68589
11.60738
12.10629
12.89727
14.54434
15.35678
15.80651
16.05823
16.20906
16.30953
16.37744
16.42872
16.46594
16.49488
16.51429
16.52747
16.52898
16.51216
16.49313
16.4712
16.45006
16.43463
16.40676
16.3021
16.10716
15.8046
15.26189
9.79293
9.793527
9.540933
9.468612
10.2745
10.78853
11.62487
13.29325
14.49873
15.06001
15.37412
15.56457
15.69155
15.7801
15.8434
15.88693
15.91444
15.92724
15.9255
15.90466
15.86262
15.8158
15.76106
15.70476
15.64902
15.56829
15.39428
15.12784
14.74786
14.1183
9.771685
9.957957
9.720484
9.689744
10.48004
10.87708
11.41689
12.23383
13.78114
14.56442
15.01192
15.2895
15.47936
15.61896
15.72437
15.80275
15.85791
15.88977
15.89557
15.86824
15.81694
15.74289
15.64546
15.53434
15.40377
15.22086
14.91407
14.5071
13.95868
13.06892
7.648493
8.648869
8.625863
8.613277
9.519135
9.951212
10.43635
11.2296
12.73067
13.94214
14.56627
14.95549
15.22861
15.43574
15.60204
15.73907
15.85212
15.94167
16.0036
16.02501
16.028
16.00399
15.95519
15.88518
15.78303
15.60144
15.26306
14.78957
14.1315
11.80723
7.796657
7.579357
7.561946
8.868465
9.704499
10.1562
10.74462
11.59261
13.06346
13.88352
14.39123
14.7571
15.02288
15.22909
15.39472
15.53
15.64154
15.72815
15.79583
15.8642
15.92446
15.98658
16.0549
16.10928
16.10174
15.97342
15.82496
15.40056
7.558838
7.668487
7.663138
7.737167
8.837872
9.383191
9.905903
10.67157
11.9331
12.98462
13.6035
14.11747
14.45398
14.69839
14.86108
14.96731
15.03086
15.07239
15.11939
15.16117
15.207
15.26863
15.3465
15.41644
15.43131
15.36944
15.18753
14.83091
6.346473
6.942743
7.157394
7.143474
8.170395
9.280159
9.918805
10.51303
11.19674
12.08171
12.6684
13.38982
13.80906
14.13974
14.30417
14.36453
14.3842
14.3955
14.38976
14.36289
14.31976
14.24354
14.11875
13.90945
13.62565
13.31432
12.74182
10.85122
6.67059
7.286793
7.506426
7.517896
8.504722
9.780077
10.55152
11.12977
11.5984
12.08394
12.70535
13.10103
13.54841
13.70753
13.7458
13.79495
13.81913
13.83434
13.82806
13.79451
13.70744
13.52867
13.2833
12.97891
12.48763
10.89857
6.971331
7.523742
7.684259
7.763081
8.737129
10.1085
10.91799
11.40483
11.86357
12.20871
12.54723
12.88896
12.98508
13.04576
13.10229
13.13476
13.15745
13.16497
13.13836
13.04218
12.86677
12.79234
12.54759
12.22079
6.073108
6.985579
7.678622
7.952782
8.076744
9.079296
10.40566
10.92888
11.54815
11.84666
12.08444
12.22023
12.26774
12.32184
12.3484
12.34866
12.31869
12.24731
12.11496
11.90351
11.74423
11.42387
10.98273
9.492562
6.061623
7.087179
7.889703
8.309332
8.676102
9.874376
9.993854
11.1423
11.41879
11.50758
11.57956
11.62031
11.63226
11.62235
11.57752
11.47094
11.30614
11.13624
10.92691
10.51776
10.1404
8.907369
6.133244
7.389876
7.789965
8.639606
9.14449
9.487461
10.48404
10.76891
10.87372
10.90087
10.90597
10.87271
10.83628
10.77426
10.68964
10.66079
10.43237
10.12659
9.063432
8.685408
6.687811
7.789016
8.805024
9.247469
9.604583
10.08554
10.24419
10.25483
10.30897
10.25532
10.22166
10.09262
9.832137
9.7079
9.571068
8.763027
6.460349
8.146965
8.580872
8.391966
9.475332
9.721593
9.750151
9.761769
9.675443
9.66001
9.656193
8.657923
8.341184
7.975372
6.853982
8.599784
9.023971
9.088369
8.988339
8.759866
8.45986
8.184828
7.791544
9.727532
9.988563
9.893365
9.550606
9.025464
7.648005
10.06346
10.92988
11.33243
11.0196
12.17397
12.3536
12.3432
12.33449
12.52358
11.25122
10.29774
9.325862
8.404011
7.31872
9.645773
10.26399
11.91888
12.5387
13.02459
13.30869
13.89415
13.99667
13.94081
13.79154
13.47286
12.66913
12.07013
11.42424
11.00859
9.418197
8.359052
7.451774
9.242065
10.87398
12.16083
13.41357
14.00678
14.361
15.05825
15.38664
15.40975
15.29687
15.06748
14.65882
13.96714
13.3126
12.62401
11.8548
10.86169
9.981861
8.25778
7.325151
9.044708
10.60829
12.00051
13.2695
14.68362
15.28675
15.72322
16.15238
16.2995
16.2465
16.08743
15.83821
15.48435
15.01342
14.46788
13.76742
12.81729
11.82401
10.91831
9.925266
8.450971
7.07631
8.772368
10.48999
12.13129
12.86634
14.55413
15.63326
16.2021
16.58522
16.83446
16.87092
16.76655
16.57986
16.32978
16.02114
15.65034
15.19753
14.63351
13.9217
13.07356
12.2872
11.59614
11.08041
9.66365
6.722633
8.323163
9.650879
11.1493
12.94048
14.01557
15.31801
16.26176
16.75905
17.11167
17.23
17.21671
17.0991
16.918
16.6938
16.4392
16.15734
15.84126
15.50168
15.12147
14.69949
14.18315
13.46948
12.65438
11.81221
10.15496
6.14553
7.686371
8.642613
10.14876
11.97047
13.32037
14.40491
15.6161
16.51566
16.99669
17.31448
17.44697
17.46536
17.39475
17.25947
17.08081
16.92267
16.78581
16.67554
16.59438
16.51796
16.42185
16.23864
15.84549
15.10128
14.10551
13.16685
11.01715
6.173476
7.63375
8.455148
8.799427
10.80234
12.11429
13.23603
14.53811
15.74719
16.5428
17.01639
17.3316
17.51931
17.63933
17.69748
17.72183
17.71614
17.71671
17.72516
17.80655
17.9322
18.0765
18.1987
18.23223
18.09892
17.63973
16.67821
15.42164
13.88306
11.08426
7.343782
8.008888
8.090074
9.296785
10.79288
11.88719
13.31168
14.66397
15.68407
16.40345
16.91664
17.33034
17.67612
17.97711
18.24341
18.45853
18.63555
18.80846
18.96326
19.13149
19.33274
19.52898
19.69338
19.76879
19.67913
19.31655
18.48351
17.34998
16.13061
14.5402
6.303702
7.310508
7.253476
8.458762
9.594212
10.6002
12.11135
13.51032
14.59793
15.52089
16.33177
17.04421
17.65147
18.21307
18.6907
19.12129
19.48496
19.7938
20.05209
20.25315
20.4009
20.53514
20.65894
20.73624
20.75699
20.67513
20.40791
19.82805
18.75848
17.38914
15.8631
12.38836
8.039253
8.39711
8.35711
9.471767
10.17673
11.09177
12.59868
13.69507
14.7067
15.75969
16.86078
17.80007
18.55696
19.22082
19.78007
20.26234
20.66385
20.98874
21.23685
21.40618
21.48788
21.50064
21.52446
21.55094
21.59006
21.643
21.67278
21.58218
21.2251
20.36739
19.20344
17.3504
9.043296
9.208224
9.175277
10.08607
10.87766
12.33644
13.59369
14.6089
15.69442
16.88055
18.11997
19.08115
19.83547
20.45711
20.96694
21.38381
21.71104
21.95157
22.10709
22.17832
22.16394
22.06328
21.9727
21.91452
21.90276
21.94245
21.99898
21.96405
21.66506
20.87024
19.63553
17.88337
9.487132
9.287984
10.73192
11.47855
12.22703
13.65798
14.72442
15.8202
17.05274
18.40246
19.54108
20.36365
20.98181
21.45743
21.82066
22.08827
22.26696
22.3619
22.37752
22.31702
22.18223
21.97519
21.76392
21.59804
21.48195
21.42622
21.39794
21.30135
20.94748
20.1389
18.99051
17.36315
9.515345
11.14176
11.12564
12.24743
12.68811
13.41141
14.87607
15.95569
17.10243
18.33671
19.59189
20.46908
21.07612
21.49622
21.78182
21.96363
22.05866
22.07637
22.02484
21.91121
21.74081
21.51766
21.24531
20.96329
20.73565
20.56885
20.4754
20.42868
20.33729
20.01638
19.25505
17.78248
16.01414
12.44012
10.9938
11.36714
11.12058
12.04156
12.46108
13.19296
14.76631
16.0524
17.42089
18.82514
19.82885
20.45639
20.85176
21.08751
21.21068
21.25014
21.22338
21.14128
21.01322
20.84726
20.64981
20.42565
20.17995
19.93551
19.75865
19.66702
19.66514
19.75171
19.85199
19.80415
19.42778
18.45333
17.15118
15.20181
11.14765
11.43166
11.22817
12.19331
12.59781
13.2861
14.79512
15.95507
17.14693
18.3277
19.03345
19.4587
19.69864
19.81225
19.8398
19.80557
19.72595
19.61036
19.46699
19.30155
19.11966
18.92479
18.72112
18.52563
18.39364
18.35287
18.39143
18.53949
18.73522
18.84012
18.70774
18.08988
17.12845
15.58999
10.51079
10.74282
10.53809
11.37311
11.70865
12.30646
13.6899
14.74638
15.82769
16.87848
17.46343
17.79692
17.97641
18.0547
18.06591
18.03032
17.96129
17.86637
17.75212
17.62334
17.48508
17.34126
17.19708
17.07519
17.01745
17.0515
17.16477
17.38536
17.64837
17.81607
17.74743
17.20375
16.3143
14.89163
9.604542
9.77103
9.534901
10.21587
10.51221
11.08417
12.42329
13.5032
14.65016
15.79664
16.53507
16.93352
17.1583
17.27435
17.31851
17.31226
17.26816
17.19373
17.09505
16.9774
16.84529
16.70255
16.55383
16.43171
16.37215
16.38547
16.47952
16.65162
16.83385
16.87925
16.63481
15.85473
14.7729
13.20629
8.243485
9.313664
9.353582
10.12366
10.41242
10.97129
12.23274
13.12531
14.05915
15.0369
15.98393
16.53388
16.85785
17.04564
17.14553
17.18499
17.17965
17.13865
17.06889
16.97562
16.86243
16.73169
16.58516
16.46675
16.40205
16.38534
16.4397
16.53453
16.59684
16.47068
15.99347
14.94255
13.64457
11.06478
7.930544
7.550224
8.853843
9.450885
10.08501
11.39059
12.31497
13.24306
14.26045
15.31558
16.07113
16.51532
16.78519
16.94683
17.03531
17.07229
17.07132
17.04248
16.99346
16.92973
16.85421
16.77818
16.73926
16.74688
16.80512
16.91493
17.03787
17.09423
16.93035
16.4021
15.60219
14.32384
8.091568
7.851791
7.869831
8.588083
9.325064
10.77422
11.88551
12.74637
13.64288
14.57161
15.46177
16.02156
16.36928
16.58643
16.70853
16.76445
16.77299
16.74979
16.70839
16.66018
16.61286
16.59634
16.64116
16.7411
16.92611
17.17293
17.44452
17.6494
17.66121
17.31324
16.58517
15.46176
7.739649
7.770628
7.665177
8.497469
9.08059
9.887403
11.24225
12.18988
13.06903
13.9604
14.83112
15.46504
15.87644
16.15251
16.30569
16.37242
16.3713
16.32356
16.24799
16.16233
16.09525
16.07327
16.11016
16.21657
16.40415
16.65459
16.92962
17.14266
17.19394
16.91887
16.3925
15.33767
6.280705
6.855255
6.747923
7.739123
8.627851
9.465574
10.81957
12.03688
12.96648
13.75926
14.44724
15.0104
15.42624
15.7318
15.90696
15.98807
15.98092
15.91077
15.79893
15.68675
15.61225
15.57007
15.56374
15.59723
15.65101
15.68044
15.60944
15.33851
14.7408
13.91486
13.03834
10.79821
7.069405
7.368344
7.400506
8.329834
9.45295
10.3355
11.61661
12.83837
13.73489
14.37031
14.82025
15.16011
15.39882
15.5508
15.61441
15.58927
15.49317
15.37054
15.28285
15.23169
15.21012
15.22366
15.26314
15.28617
15.22204
14.97678
14.41074
13.63429
12.77881
11.76795
6.178147
7.194943
7.744168
7.864558
9.316898
10.25828
11.16814
12.3913
13.55692
14.31681
14.76783
15.06051
15.21335
15.28145
15.26487
15.19189
15.05947
14.93621
14.84239
14.77859
14.75232
14.75746
14.7728
14.74835
14.61531
14.24975
13.51115
12.56682
11.46513
9.587787
6.012842
7.020926
7.531187
8.724153
10.14675
11.16276
12.0584
13.23677
14.17393
14.66445
14.9929
15.10257
15.0901
14.99186
14.84897
14.66978
14.52003
14.38594
14.2728
14.18269
14.09464
13.98139
13.78598
13.40721
12.72566
11.84626
11.03596
9.537003
6.352857
7.506264
8.259981
9.491391
11.00797
11.85504
12.99341
13.9521
14.45018
14.85592
14.95789
14.8939
14.71398
14.52556
14.3299
14.13238
13.93674
13.73654
13.53926
13.31427
13.0212
12.57814
11.89299
11.08508
10.23786
9.036217
6.590665
7.876966
8.987714
10.50698
10.83612
12.43194
13.46724
14.03274
14.42918
14.56526
14.53031
14.38353
14.17459
13.93114
13.66861
13.38967
13.08277
12.74357
12.32998
11.80477
11.22183
10.68196
10.10953
8.986973
6.679208
7.99839
9.164798
10.01438
11.12459
12.58066
13.14475
13.52173
13.87572
13.94611
13.85238
13.66174
13.39308
13.05479
12.64313
12.17816
11.6328
10.96475
10.29991
9.768744
9.117657
8.277068
6.5924
7.960262
9.181102
10.0707
11.29049
11.75918
12.04839
12.73962
12.97976
12.98022
12.85067
12.59742
12.19593
11.59006
10.97835
10.36474
9.722478
9.073146
8.436688
7.514138
6.345617
8.087665
8.542685
9.777107
10.24057
10.57956
11.04864
11.50215
11.60145
11.56065
11.40628
11.08145
10.44741
9.98205
9.392382
8.833823
7.65258
7.213593
6.605685
8.310581
8.921348
9.154684
8.942028
9.896866
10.09242
10.16026
10.21765
10.30371
9.157081
8.476065
7.849953
7.371887
6.364527
7.661851
7.863705
7.835716
7.695835
7.513492
6.673464
8.368072
9.021627
9.456244
9.691297
9.696737
9.483076
8.990083
8.305064
7.643214
7.006166
8.872723
9.424415
9.4746
10.81149
11.60086
12.00814
12.1893
12.13088
11.85813
11.41406
11.03066
10.65794
9.288084
8.311385
7.477459
7.881377
9.148528
11.01468
11.8655
12.6134
13.68421
14.24125
15.32101
15.55504
15.42665
14.9678
14.1155
13.22008
12.37774
11.31659
10.56414
10.17883
8.761731
6.966139
9.387734
9.992104
11.77306
12.98254
14.49727
15.51956
16.44264
17.08018
17.67353
17.79838
17.66017
17.29753
16.71344
15.98879
15.14538
14.06727
12.7876
11.64357
10.4553
8.596611
7.21788
6.846379
8.693528
10.59495
11.75058
13.88539
15.24777
16.48122
17.36293
18.03279
18.48288
18.74004
18.72045
18.55199
18.28479
17.94192
17.52403
16.98117
16.19188
15.02458
13.51497
11.60056
9.82967
8.619179
7.138854
6.529336
8.483831
10.31958
11.77056
13.75661
15.5463
16.86849
17.86448
18.52947
18.95649
19.18122
19.20986
19.06595
18.84385
18.58918
18.32431
18.04486
17.70121
17.18415
16.34949
15.094
13.3935
11.40861
9.86629
8.782368
7.640383
6.266909
8.209844
9.895504
11.33344
13.46335
15.32363
16.79538
18.02358
18.88007
19.34569
19.57117
19.6183
19.49886
19.26828
18.99492
18.71382
18.44387
18.18661
17.91876
17.59171
17.12573
16.43461
15.44352
14.10173
12.52985
11.20994
10.35538
8.881393
5.989878
7.924151
9.261241
10.62775
12.65749
14.65496
16.38222
17.7062
18.78474
19.50023
19.89186
20.0359
19.984
19.76705
19.47921
19.16874
18.8618
18.57602
18.32289
18.10415
17.90916
17.7312
17.53467
17.19809
16.52237
15.28273
13.4809
11.81605
10.40469
8.720995
7.160506
8.361715
9.676781
11.48634
13.52503
15.42894
16.96333
18.17195
19.1428
19.7716
20.08786
20.17938
20.09405
19.89064
19.63471
19.366
19.10451
18.85393
18.64291
18.50097
18.45096
18.50652
18.64773
18.80807
18.80964
18.37079
17.22133
15.4122
13.71403
12.61641
6.486519
7.402612
8.932105
10.44534
11.89322
14.01555
15.69083
17.07663
18.25689
19.16708
19.73872
20.02398
20.11068
20.0534
19.91319
19.72256
19.55323
19.40438
19.30579
19.23866
19.21611
19.28253
19.47816
19.80463
20.20124
20.56964
20.69035
20.19879
18.79452
16.56027
14.51073
12.03248
6.008658
7.526087
7.948986
9.401645
10.49849
12.18744
14.01459
15.53996
16.94637
18.10049
18.94759
19.50094
19.82171
19.98574
20.02607
20.04373
20.00833
19.97937
19.96199
19.99576
20.05722
20.16599
20.29215
20.48926
20.80362
21.21908
21.65498
21.99521
21.958
21.09738
19.0915
16.18564
13.51257
10.44867
6.890429
6.976938
8.073449
9.09031
10.68216
12.25546
13.79886
15.38784
16.73912
17.81064
18.65087
19.29225
19.73256
20.07884
20.30132
20.47683
20.61227
20.72701
20.8309
20.93614
21.03702
21.14542
21.22953
21.30072
21.44458
21.69164
22.02971
22.37322
22.5767
22.27268
20.93288
18.44346
16.25655
14.50768
8.539367
8.375269
9.153511
9.844209
11.29303
12.55212
13.93738
15.43846
16.66602
17.7425
18.71313
19.52361
20.14205
20.63066
21.00972
21.31108
21.54953
21.73137
21.86125
21.944
21.97983
21.97033
21.91157
21.819
21.76608
21.85196
22.1106
22.55768
23.07036
23.5135
23.36096
22.08719
19.99514
18.36509
8.398981
9.604268
9.260796
9.982933
10.63039
11.97477
13.2428
14.74678
16.09018
17.27693
18.42066
19.51149
20.38595
21.09382
21.64066
22.06082
22.37827
22.60454
22.74093
22.78959
22.75543
22.64413
22.46589
22.24051
21.99973
21.78592
21.75319
21.94326
22.38464
22.98463
23.56553
23.64768
22.47457
19.92175
17.60112
13.33818
9.7797
10.02581
9.836415
10.71607
12.19001
13.32318
14.52016
15.97003
17.24146
18.47507
19.68826
20.76343
21.60768
22.25601
22.73112
23.06557
23.28089
23.38637
23.38321
23.27576
23.07316
22.78742
22.4366
22.05134
21.67273
21.34061
21.18729
21.26778
21.60624
22.16656
22.68743
22.80322
21.66364
18.78395
15.92808
13.30363
10.28079
10.02178
11.54939
12.36254
13.72517
14.68624
15.86871
17.33008
18.59967
19.82851
20.98333
21.87925
22.56821
23.05182
23.36224
23.52896
23.57332
23.50581
23.33109
23.05814
22.7008
22.27514
21.80234
21.31521
20.85648
20.46655
20.2464
20.27401
20.57449
21.12012
21.66302
21.88859
20.9614
18.24929
15.70253
13.66274
11.33542
11.07435
11.95189
12.51666
13.88154
14.91624
16.18475
17.78143
19.17356
20.44706
21.4631
22.16997
22.65529
22.94623
23.07544
23.07234
22.95993
22.75148
22.45539
22.08378
21.65221
21.17703
20.67836
20.18672
19.74249
19.38167
19.19373
19.25239
19.59229
20.20609
20.89302
21.46364
21.24125
19.52103
17.1143
15.53506
11.40846
11.16011
12.01201
12.60377
14.00325
15.01621
16.22881
17.72291
18.96163
20.03777
20.77651
21.29032
21.59948
21.73966
21.74042
21.63014
21.43146
21.15823
20.81957
20.42684
19.99345
19.53316
19.06279
18.60857
18.2064
17.88429
17.7174
17.77462
18.09968
18.70101
19.41443
20.13291
20.2961
19.19544
17.29219
16.05838
10.7783
10.52612
11.26495
11.76898
13.0216
13.92358
15.01756
16.37346
17.46886
18.39033
18.98553
19.37913
19.59809
19.67743
19.64353
19.52136
19.3306
19.08315
18.78668
18.45056
18.08587
17.70429
17.32065
16.95836
16.64979
16.41233
16.33079
16.46135
16.84454
17.49349
18.25398
19.02948
19.26348
18.25671
16.45437
15.30928
9.863595
9.532897
10.19392
10.6208
11.76687
12.63029
13.70794
15.06752
16.19106
17.15745
17.85521
18.27989
18.52999
18.6389
18.63612
18.54659
18.38959
18.17679
17.91597
17.61668
17.29026
16.9485
16.60615
16.2856
16.01569
15.80508
15.75963
15.91777
16.31084
16.93812
17.62788
18.22013
18.10324
16.62584
14.5514
13.27296
8.595432
8.284758
9.534749
10.20332
11.36091
12.20277
13.24668
14.527
15.55677
16.4848
17.28129
17.80912
18.14864
18.32333
18.37002
18.31897
18.19306
18.00689
17.77064
17.49583
17.19542
16.8824
16.57207
16.28558
16.04457
15.86942
15.84909
16.01963
16.40355
16.98393
17.55995
17.88851
17.28142
15.24059
13.39915
12.25324
8.463222
8.236119
7.997411
8.706614
10.18418
11.2749
12.40706
13.74778
14.83343
15.81289
16.69358
17.37156
17.80079
18.04617
18.14116
18.12336
18.02108
17.85365
17.63576
17.38342
17.11395
16.84456
16.59379
16.38357
16.22691
16.1607
16.25042
16.51541
16.96492
17.5625
18.08965
18.25172
17.36987
15.12014
13.01166
11.18488
7.564712
8.386826
8.043339
8.571677
9.210099
10.51236
11.75255
13.18198
14.34668
15.31331
16.18045
16.92546
17.40982
17.70788
17.83768
17.83788
17.74076
17.56965
17.34392
17.0844
16.81356
16.55381
16.32909
16.16478
16.0667
16.10981
16.3311
16.7473
17.36586
18.09745
18.80511
19.13459
18.52662
16.95773
15.51738
12.48107
8.199962
7.778068
8.395785
8.965386
10.24188
11.36386
12.60503
13.92535
14.9638
15.8407
16.57709
17.10844
17.41391
17.55754
17.55895
17.45522
17.26921
17.02435
16.74457
16.45537
16.17994
15.94304
15.76622
15.68059
15.75806
16.01741
16.46955
17.11291
17.82039
18.50273
18.76055
18.23626
17.21305
16.39464
6.721078
6.608936
7.490364
8.306353
9.678843
11.00836
12.34879
13.75789
14.93272
15.84333
16.53209
17.017
17.2798
17.40972
17.37563
17.24671
17.03227
16.7632
16.46414
16.16384
15.8801
15.63802
15.45733
15.40725
15.51469
15.7808
16.18413
16.63254
16.99339
16.96903
16.18637
14.69479
13.43883
12.6935
6.139552
7.250171
7.515699
8.536823
9.382834
10.76348
12.28788
13.62286
14.9094
15.96097
16.70884
17.16966
17.3954
17.44694
17.34465
17.17275
16.90242
16.59159
16.25745
15.93916
15.64356
15.39963
15.26451
15.27842
15.45994
15.79577
16.2029
16.57553
16.66386
16.07016
14.60694
12.6595
11.0725
9.251281
6.446134
6.972085
8.152052
9.306185
10.39682
12.19081
13.62897
14.88444
16.01129
16.88109
17.40126
17.62611
17.64245
17.49835
17.24601
16.90663
16.54567
16.17178
15.81049
15.47837
15.22952
15.11064
15.14648
15.3478
15.65943
16.00753
16.21452
15.93251
14.87697
13.20637
11.82319
10.32222
6.892268
7.501302
8.57513
10.0222
11.81657
13.51861
14.88524
15.99484
16.93623
17.53574
17.80719
17.84486
17.69314
17.41353
17.05098
16.63869
16.21398
15.7986
15.44608
15.18772
15.04823
15.04355
15.14278
15.29188
15.34457
15.02794
14.06071
12.51624
11.26306
10.47212
5.867777
7.479941
8.287122
9.432131
11.14751
12.9612
14.53709
15.71117
16.7375
17.41621
17.76932
17.86798
17.76384
17.50681
17.14851
16.71798
16.2859
15.88397
15.53627
15.26356
15.06924
14.95685
14.87649
14.70166
14.19081
13.09635
11.46883
10.15558
9.038261
7.970301
6.040683
7.687618
8.851649
10.07312
11.93949
13.61287
14.85607
16.04649
16.8683
17.31293
17.50467
17.50015
17.325
17.04035
16.69545
16.32869
15.96595
15.62343
15.30684
15.00722
14.6887
14.28331
13.68379
12.73674
11.40497
10.19876
9.238684
8.16812
6.105152
7.749957
9.116824
10.31824
12.07899
13.57731
14.80177
15.7735
16.32366
16.66666
16.85142
16.86399
16.72406
16.49415
16.21031
15.89169
15.53451
15.11188
14.5564
13.79009
12.78062
11.54238
10.15998
9.060531
8.262685
7.645187
6.158181
7.682839
9.129624
10.11535
11.90081
13.07618
14.12062
14.82341
15.37354
15.78179
16.02793
16.04971
15.93541
15.71982