/*--------------------------------*- C++ -*----------------------------------*\
  =========                 |
  \\      /  F ield         | OpenFOAM: The Open Source CFD Toolbox
   \\    /   O peration     | Website:  https://openfoam.org
    \\  /    A nd           | Version:  6
     \\/     M anipulation  |
\*---------------------------------------------------------------------------*/
FoamFile
{
    version     2.0;
    format      ascii;
    class       volScalarField;
    location    "49.8";
    object      Co;
}
// * * * * * * * * * * * * * * * * * * * * * * * * * * * * * * * * * * * * * //

dimensions      [0 0 0 0 0 0 0];

internalField   nonuniform List<scalar> 
238185
(
0.1770075
0.1410935
0.1500127
0.1702059
0.1840714
0.1332657
0.1476252
0.1378201
0.1408677
0.1451777
0.1572091
0.1868201
0.1882601
0.1270458
0.148069
0.1367897
0.1386635
0.1392277
0.1387759
0.1411154
0.1467266
0.1543575
0.1627673
0.2055768
0.1919125
0.1567198
0.1363194
0.1363129
0.1372499
0.1386678
0.1398546
0.1407582
0.1411523
0.1404758
0.1457195
0.1527932
0.1700753
0.2150358
0.1888548
0.1433101
0.1365042
0.1362484
0.1375756
0.139027
0.1403641
0.1416453
0.1425815
0.1428703
0.1427545
0.1469475
0.1592629
0.1917483
0.2029067
0.1646158
0.1398449
0.1363119
0.1366277
0.1379243
0.1394054
0.140662
0.1420058
0.1430095
0.1435253
0.1436417
0.1441711
0.1521751
0.1775448
0.223496
0.193977
0.1465762
0.1379114
0.1362513
0.1369025
0.1382349
0.1393757
0.1404286
0.1419062
0.1432093
0.1437119
0.1439436
0.1434662
0.1477968
0.1615139
0.2061634
0.213362
0.1770756
0.1445023
0.1383634
0.1370577
0.137674
0.1384916
0.1388871
0.139842
0.1408742
0.1419479
0.1430632
0.1428116
0.1427119
0.1446527
0.1534275
0.1882942
0.233475
0.190197
0.161964
0.1456368
0.1407833
0.1396774
0.1405279
0.1406135
0.1413697
0.141919
0.1431992
0.1433726
0.1453973
0.1449833
0.1451588
0.146035
0.1527865
0.1715708
0.2061088
0.1924726
0.1616188
0.146875
0.1423884
0.141715
0.1428996
0.1431332
0.1443981
0.1449859
0.1465338
0.1467164
0.1489386
0.1485878
0.148858
0.15072
0.1575927
0.176732
0.209294
0.2210293
0.181342
0.1496988
0.1437882
0.1428957
0.1438809
0.1447749
0.1458785
0.1469677
0.1483391
0.1495689
0.1509654
0.150843
0.1512066
0.1548635
0.1640879
0.1960245
0.242818
0.2049301
0.154804
0.1455769
0.1437446
0.1443406
0.1457435
0.146985
0.1482784
0.1500006
0.1515128
0.1522052
0.1526025
0.153452
0.1589074
0.1734162
0.2123127
0.2202757
0.176681
0.1489267
0.1447311
0.1447921
0.1461344
0.1476307
0.1491561
0.1508337
0.1520223
0.1527878
0.153152
0.1560213
0.1646186
0.1899765
0.2371137
0.2048974
0.154229
0.1461138
0.1453303
0.1464899
0.1477756
0.1497112
0.1508664
0.1520564
0.1526102
0.1543554
0.1598085
0.1730914
0.2054322
0.2155979
0.1737685
0.1478196
0.1467937
0.147053
0.1480553
0.1496468
0.1500924
0.1507338
0.1534805
0.1591902
0.1670573
0.1876949
0.2348106
0.2148083
0.1445831
0.1649523
0.1480775
0.1489722
0.1493552
0.1483457
0.1542503
0.1603738
0.1740224
0.1784796
0.2298248
0.2111963
0.1418804
0.1646508
0.1487516
0.152355
0.1666959
0.171509
0.2169432
0.2055359
0.1471593
0.158189
0.204092
0.1489884
0.1449912
0.1471514
0.1492787
0.1509756
0.1521429
0.152675
0.1535694
0.1567427
0.1685123
0.159355
0.13871
0.1324084
0.1328731
0.1354551
0.1378024
0.141038
0.1437097
0.1447078
0.1450144
0.1470405
0.1444687
0.1562682
0.1719491
0.1657903
0.1368826
0.1298976
0.1312821
0.1327348
0.134679
0.1290186
0.1388977
0.142666
0.1452955
0.1392379
0.1452323
0.1457318
0.1487929
0.1496154
0.1631271
0.1667511
0.1370075
0.1295514
0.1295528
0.1326172
0.1291135
0.1419819
0.135198
0.1380362
0.1435288
0.1477782
0.1561068
0.1523296
0.1426725
0.1485718
0.1513767
0.1513479
0.1760504
0.1670516
0.1368646
0.1287023
0.1286686
0.1246158
0.1394609
0.1366365
0.1439516
0.1483881
0.1429339
0.1416159
0.1410159
0.1558364
0.1536029
0.1604515
0.1571309
0.1465068
0.1541952
0.1577525
0.1887955
0.1675447
0.1394414
0.1284011
0.1291112
0.1297011
0.1348709
0.1411134
0.1496695
0.1475804
0.1494693
0.1489077
0.1463837
0.144292
0.1466186
0.1467985
0.1621494
0.1598988
0.1677262
0.1490168
0.15515
0.1650357
0.2026974
0.1646959
0.1306676
0.1302357
0.1361974
0.1413577
0.1520647
0.147836
0.1490125
0.1497465
0.1505824
0.1509045
0.150406
0.1487153
0.1458616
0.1469615
0.1524299
0.1556906
0.1759156
0.1558816
0.1559392
0.1588138
0.1826995
0.1749455
0.1478581
0.13128
0.1330299
0.1511662
0.1594258
0.1534403
0.1499165
0.1492764
0.1498087
0.1505182
0.1511093
0.1514119
0.1511061
0.1498185
0.1468101
0.1485583
0.1577344
0.1607415
0.1826153
0.1536171
0.1560304
0.1733643
0.2134011
0.1605918
0.1393626
0.1345636
0.1407082
0.1562057
0.1607581
0.1528625
0.1495295
0.1488152
0.1492214
0.149922
0.1505571
0.1511203
0.1512654
0.1507328
0.1489616
0.1461851
0.1543168
0.1600092
0.1830324
0.1586915
0.1584174
0.1648262
0.1865751
0.1661831
0.1454169
0.1384913
0.1672548
0.1638153
0.1570135
0.1510747
0.1483641
0.14786
0.1482603
0.1488035
0.1493876
0.1501172
0.1505442
0.150321
0.1492291
0.1461024
0.1502124
0.1606305
0.171372
0.1858645
0.1558764
0.1640682
0.1859107
0.1726633
0.1527336
0.1462188
0.1731152
0.1651876
0.1540148
0.1486831
0.146603
0.1463754
0.1465847
0.1470102
0.1475159
0.1481554
0.1486074
0.1487732
0.1478494
0.1457499
0.1471474
0.1561361
0.1708851
0.1879107
0.1607046
0.1671882
0.1889734
0.1774464
0.1594092
0.1581219
0.1668035
0.1612178
0.152743
0.1478941
0.1460518
0.1459731
0.1458726
0.1465184
0.146908
0.1477165
0.1479577
0.1487083
0.1479353
0.1465331
0.1470893
0.1547931
0.1675837
0.1776824
0.1728998
0.1732299
0.1938169
0.177472
0.1596601
0.1609371
0.1668098
0.1632431
0.1543299
0.1493184
0.1474324
0.1473639
0.1473113
0.1480637
0.1485697
0.1495193
0.1498872
0.1507741
0.1501064
0.1488106
0.151566
0.1595028
0.1726657
0.1830822
0.1748933
0.1779218
0.1984248
0.175314
0.1558744
0.1529798
0.17481
0.171074
0.1584402
0.1525133
0.1502366
0.1499969
0.150298
0.150923
0.1516722
0.1525854
0.1533121
0.1537345
0.1530157
0.1519338
0.1570365
0.1665423
0.1765995
0.20015
0.168845
0.1781159
0.2007712
0.1730385
0.1520645
0.1462061
0.1726995
0.1717695
0.1631099
0.156091
0.1529473
0.1523172
0.1527792
0.1534782
0.1543268
0.1553484
0.1560538
0.1560914
0.1552099
0.1551125
0.1615595
0.1725885
0.178911
0.1990993
0.1676963
0.1770686
0.2011865
0.1733545
0.1498901
0.1442872
0.1501454
0.1691008
0.1703699
0.159808
0.155443
0.1542999
0.15461
0.1553569
0.156246
0.1570592
0.1574901
0.1572562
0.1557372
0.158473
0.167041
0.173045
0.197759
0.17173
0.1712687
0.1783742
0.2022869
0.1948823
0.1632381
0.1426364
0.14363
0.1659987
0.1711792
0.1627109
0.1574905
0.1560073
0.1560629
0.1565527
0.1573572
0.1575782
0.1575099
0.1564711
0.1563824
0.1619991
0.1717359
0.1750932
0.1980579
0.1669338
0.1694152
0.1856971
0.2323288
0.1842375
0.1437369
0.1422874
0.1484632
0.1568847
0.1649771
0.1576953
0.1577388
0.1572842
0.1574205
0.1575157
0.1565366
0.1548753
0.1559815
0.1613192
0.1670992
0.1705532
0.192821
0.1704267
0.1704555
0.1734533
0.1960332
0.1912849
0.1568193
0.1409846
0.1406703
0.1441029
0.1473957
0.1543356
0.162546
0.1572251
0.1579098
0.1563039
0.152938
0.1558728
0.1611903
0.1612712
0.1787589
0.175764
0.1838896
0.1635654
0.170473
0.1824337
0.2246405
0.1889121
0.1520808
0.1390381
0.1382299
0.1325562
0.1497479
0.1487246
0.1537642
0.1607668
0.151908
0.1521953
0.1540311
0.1714039
0.1675188
0.1749663
0.1723685
0.1605653
0.1694101
0.1778359
0.2117838
0.1849082
0.149198
0.1371574
0.1365268
0.1401775
0.1353319
0.1508001
0.1462701
0.1454182
0.1524804
0.1571306
0.1671141
0.1654635
0.1546924
0.1616146
0.1650913
0.173292
0.2036756
0.1823731
0.1468737
0.1349014
0.1363659
0.1376561
0.1405824
0.1337189
0.1428093
0.1484831
0.1535325
0.147046
0.1545942
0.1560334
0.1598538
0.1685614
0.1958395
0.1770096
0.1288411
0.14109
0.1342605
0.1334738
0.1363202
0.1406775
0.1447771
0.1473747
0.1490052
0.1521386
0.1561977
0.1653237
0.1978376
0.1683404
0.1352412
0.138577
0.1415881
0.1445356
0.1468841
0.1486016
0.1508719
0.1554748
0.1802482
0.1364804
0.1465018
0.1480419
0.1490309
0.1492191
0.1489411
0.1500081
0.162026
0.1368326
0.1389796
0.1479756
0.1327849
0.1400086
0.1417694
0.1428428
0.1432485
0.1434188
0.1442954
0.1380983
0.1437843
0.1474718
0.1559478
0.1517903
0.125086
0.1295876
0.1281841
0.1372868
0.1408196
0.1430742
0.1444867
0.1451379
0.1451912
0.1447293
0.1450328
0.1440886
0.1368637
0.1375149
0.1406403
0.1478073
0.126603
0.1254498
0.1213753
0.1310162
0.1248387
0.1371746
0.1416486
0.1443634
0.1461331
0.1471384
0.1475434
0.1478315
0.1489845
0.1508637
0.1551546
0.1471865
0.1289343
0.1404768
0.147472
0.1531064
0.1266091
0.1235046
0.123637
0.1250865
0.1363345
0.1332392
0.1320681
0.1360586
0.1394239
0.1422027
0.1442035
0.1455746
0.1465069
0.1475564
0.1438889
0.1545488
0.1519343
0.154904
0.1371531
0.1347836
0.1503142
0.1513957
0.1270126
0.1221157
0.1226093
0.133161
0.1369915
0.1357026
0.1375128
0.1384456
0.1390623
0.1380914
0.1399221
0.1417201
0.1442499
0.1464173
0.1470748
0.1484278
0.1498817
0.1476848
0.1587284
0.1572355
0.1385221
0.1407776
0.1717223
0.1457851
0.1203527
0.1197959
0.1319635
0.1385846
0.1386626
0.1396829
0.1418309
0.1433614
0.1455777
0.1459817
0.1440419
0.1439165
0.1451515
0.1467614
0.1484845
0.1502706
0.151003
0.153307
0.1510042
0.162177
0.1598032
0.1421782
0.1520671
0.1503918
0.1229812
0.1166402
0.1297752
0.1380742
0.1396772
0.1417787
0.1432654
0.1464371
0.1490855
0.1507252
0.1524078
0.1511711
0.1475392
0.1472719
0.1477045
0.1488489
0.1521305
0.1536178
0.1557777
0.1571962
0.1537403
0.1649041
0.1618975
0.1435662
0.1821559
0.1458986
0.1258427
0.1198084
0.1253152
0.137678
0.1396378
0.143684
0.1467667
0.1490563
0.1513482
0.1544472
0.1561913
0.1575387
0.1569827
0.1546198
0.1505213
0.1485627
0.1491244
0.152023
0.1550667
0.1582715
0.1591478
0.1588078
0.1554538
0.1692961
0.1468907
0.1561562
0.1828297
0.1378726
0.120314
0.1334376
0.1409552
0.1404518
0.143512
0.1489022
0.152969
0.1558497
0.1568883
0.1583095
0.1592351
0.1598266
0.159622
0.1583954
0.1560008
0.1525001
0.1487161
0.1500216
0.1558122
0.1596305
0.161281
0.1597983
0.160214
0.1570041
0.1730796
0.1461454
0.1627286
0.1496105
0.1259837
0.1393129
0.1443142
0.1439463
0.1483803
0.1535083
0.1587663
0.1605208
0.1597177
0.1595601
0.1597713
0.1599661
0.1598681
0.1592661
0.1579011
0.1554535
0.1512747
0.1479861
0.1545704
0.16055
0.162831
0.1625048
0.1614473
0.1589881
0.1771934
0.1478489
0.1748437
0.1780806
0.1486275
0.1365943
0.1434986
0.1468718
0.1483263
0.1535042
0.1581162
0.1621579
0.1615232
0.159765
0.1589039
0.1586867
0.1586856
0.1586165
0.1583143
0.157486
0.1557866
0.1525857
0.1473992
0.1518887
0.159649
0.1631903
0.164484
0.1628484
0.1645737
0.1667611
0.1553604
0.1681271
0.2020713
0.164042
0.1482135
0.1451059
0.1516698
0.1518367
0.1537184
0.1576294
0.1623286
0.1630706
0.1602839
0.1580415
0.1569295
0.156534
0.156413
0.1563626
0.1562591
0.1557763
0.1545624
0.1521229
0.1474886
0.1485821
0.1570618
0.1632991
0.1652974
0.1653314
0.1663767
0.1685319
0.1588543
0.1577362
0.1724526
0.1666849
0.1515541
0.1521566
0.1583673
0.1566948
0.1578816
0.1604634
0.1636216
0.1611098
0.1574816
0.1551124
0.1539844
0.1534782
0.1533054
0.1532584
0.1532271
0.152934
0.1520996
0.1501404
0.1464581
0.145463
0.1536249
0.161923
0.1653327
0.1671115
0.1681987
0.1716847
0.1632215
0.160201
0.1744719
0.168386
0.1532406
0.1554112
0.1627072
0.161317
0.1618904
0.1637648
0.1631848
0.1582694
0.1540699
0.1515441
0.150388
0.149784
0.1497114
0.1497193
0.1498504
0.1496845
0.1492603
0.1476936
0.1447402
0.1436916
0.1515518
0.1612873
0.1673684
0.1697206
0.1717149
0.176077
0.1677629
0.1638447
0.1779075
0.1662348
0.15178
0.1546953
0.1627919
0.1621314
0.1633158
0.1647843
0.1636545
0.1582309
0.1537396
0.1510818
0.1498923
0.1493155
0.1493202
0.1494276
0.1496769
0.1496273
0.1493211
0.1478617
0.1450213
0.146986
0.1549984
0.1650243
0.1714826
0.1742194
0.1766066
0.1801754
0.1714256
0.1672562
0.1817673
0.1629585
0.149016
0.1524226
0.1610856
0.1607237
0.1620386
0.1636574
0.1658471
0.1620864
0.1576678
0.1549074
0.1536512
0.1531776
0.15315
0.1533114
0.1535228
0.1534727
0.1528697
0.1511133
0.1482053
0.1530179
0.1615076
0.1704297
0.1745913
0.1770673
0.1789342
0.1820751
0.1729037
0.1690344
0.1832221
0.1623762
0.1484196
0.1496081
0.1583509
0.1583108
0.1592883
0.1623767
0.1662958
0.1656915
0.1616909
0.1587614
0.15735
0.156907
0.1568984
0.1570779
0.1572603
0.157082
0.1561715
0.1540037
0.1514489
0.1581525
0.1669725
0.1737405
0.1762574
0.1768606
0.1786051
0.1816328
0.1716877
0.1704278
0.1834129
0.1854361
0.1585877
0.1474487
0.154397
0.1560155
0.1561888
0.1605686
0.1642671
0.167241
0.1648415
0.1618753
0.1603391
0.1598131
0.1597552
0.1598388
0.1597762
0.159279
0.157958
0.1551336
0.1554352
0.1630761
0.1711648
0.1750236
0.1765518
0.1751828
0.1773902
0.1802069
0.1686973
0.1791097
0.2167476
0.1667686
0.1397051
0.1571262
0.15733
0.1540615
0.1575639
0.1618429
0.1661292
0.1661215
0.1636147
0.1623082
0.1617383
0.1614946
0.1612849
0.160646
0.1594989
0.1574025
0.1549585
0.1595107
0.1672608
0.1735404
0.1758893
0.1756209
0.1746868
0.172214
0.1920047
0.1611997
0.1827901
0.1561748
0.1350011
0.1532924
0.1556807
0.1526094
0.1543063
0.1588397
0.1618736
0.1635885
0.1629319
0.1629523
0.1625122
0.1621119
0.1612429
0.1595083
0.1570237
0.1549904
0.1579985
0.1638673
0.1699271
0.1740617
0.1757837
0.1742584
0.1748508
0.1718464
0.1890708
0.1603805
0.1755121
0.1658125
0.1424403
0.1334823
0.1420134
0.1514662
0.1509941
0.1540236
0.1562277
0.1575616
0.1590228
0.1611854
0.1613654
0.1613255
0.1594216
0.1559665
0.1539681
0.1567653
0.1621877
0.1665615
0.1700365
0.1736304
0.1747521
0.1745464
0.1710996
0.1868196
0.1623549
0.1714703
0.204117
0.1679359
0.1350674
0.1289368
0.1411519
0.1495198
0.1491047
0.1503964
0.1512859
0.1541778
0.1563536
0.1573397
0.1580617
0.1551936
0.1516252
0.1537758
0.1589001
0.1627212
0.1665814
0.1685258
0.1713256
0.1731676
0.1696288
0.182753
0.1788831
0.1604012
0.2007024
0.1549203
0.125882
0.1249245
0.1399793
0.1473735
0.1459666
0.1464617
0.1485857
0.1499968
0.1521255
0.1520925
0.1494032
0.1492993
0.152894
0.1580231
0.1606936
0.1635524
0.1650877
0.1682294
0.1662044
0.1793623
0.176147
0.1576625
0.1720661
0.1589721
0.1315201
0.1240618
0.1247839
0.138831
0.1437284
0.1414101
0.1431015
0.1440829
0.1449765
0.1439633
0.1438505
0.1460023
0.1504056
0.1544668
0.1565906
0.1592854
0.1618046
0.160312
0.1735315
0.171429
0.1519123
0.1631479
0.1963188
0.1588433
0.1291088
0.123735
0.1240985
0.1286888
0.1347503
0.138815
0.1355256
0.1348377
0.136549
0.140366
0.1440051
0.1471218
0.1499933
0.1529035
0.1505963
0.1643647
0.1601121
0.1651378
0.1474102
0.1576321
0.1884626
0.156821
0.1147033
0.1271456
0.1195024
0.1304903
0.125409
0.1287163
0.133682
0.1370435
0.1397285
0.1418876
0.1436132
0.1454975
0.1484584
0.1503965
0.1572619
0.1533636
0.140508
0.1495728
0.1906383
0.156811
0.126588
0.1228431
0.1186259
0.1279397
0.1321507
0.1347426
0.1368876
0.1379478
0.1389724
0.1396905
0.1417032
0.1432293
0.1353887
0.1416964
0.1577504
0.1463973
0.1269113
0.1341227
0.1202625
0.1302604
0.1322093
0.133648
0.1339958
0.1346823
0.1362851
0.1315168
0.1393152
0.1403097
0.1568955
0.1399443
0.1331822
0.1349636
0.1358909
0.1353197
0.1349926
0.1370044
0.1428386
0.128607
0.1349757
0.1354824
0.1361318
0.1376995
0.1463122
0.1263729
0.128711
0.1317735
0.1357378
0.1279536
0.1334412
0.1344216
0.1348894
0.1353905
0.1273131
0.130306
0.1263797
0.1315412
0.1352078
0.1278955
0.1300684
0.1124402
0.1274274
0.1305566
0.1214887
0.1351405
0.1387516
0.1403453
0.1408958
0.1406715
0.1409778
0.1425816
0.1445642
0.1336029
0.1192146
0.1167848
0.1300758
0.1414932
0.1177509
0.113935
0.114319
0.1280166
0.1384421
0.1312184
0.1377532
0.1411063
0.1432574
0.144443
0.144991
0.1452959
0.1401248
0.1459946
0.1400005
0.1374451
0.1364795
0.1125281
0.1191308
0.142004
0.1128831
0.1204374
0.1217618
0.1202823
0.1250114
0.1305793
0.1347928
0.1390619
0.1425114
0.1450212
0.1466744
0.1476678
0.1482627
0.1485424
0.1477875
0.1457664
0.1383304
0.1429299
0.1382363
0.1181499
0.1120821
0.1396845
0.113976
0.1141013
0.1229311
0.1241055
0.1226725
0.1225714
0.127393
0.1328657
0.1376777
0.1414788
0.1443988
0.1465434
0.1480861
0.1492544
0.1501912
0.1504759
0.1500717
0.1478344
0.1394
0.1426138
0.1328364
0.1252909
0.1261734
0.1368667
0.112455
0.121406
0.1248675
0.1254
0.1279011
0.1290721
0.1295753
0.1305988
0.1307298
0.1332611
0.1373281
0.1407846
0.1435961
0.145876
0.1478055
0.1495765
0.1510736
0.1521344
0.1516703
0.1499933
0.1457234
0.1361202
0.1397958
0.1322833
0.1395398
0.1351075
0.1136565
0.115975
0.1262679
0.1284847
0.1312044
0.1342332
0.1362298
0.1374442
0.1392141
0.1404585
0.1413414
0.1418092
0.1419675
0.1421468
0.1431586
0.145695
0.1481273
0.1505504
0.1527351
0.1542277
0.1543458
0.1524452
0.1481643
0.1389669
0.143429
0.1271476
0.1538449
0.1239214
0.1086641
0.1099457
0.1286228
0.1295082
0.1325362
0.1365372
0.1400693
0.1424461
0.1441868
0.146195
0.1481273
0.1498574
0.1501262
0.1519647
0.1507635
0.1499927
0.1473076
0.1470768
0.1501668
0.1530055
0.1557775
0.1574714
0.1572535
0.1549865
0.1503912
0.1403523
0.1472357
0.1264206
0.1535808
0.117327
0.1026372
0.1159208
0.1281377
0.1326858
0.1370169
0.1416485
0.1453509
0.1479164
0.1500604
0.1525367
0.1543118
0.158314
0.1577922
0.1582669
0.1565179
0.1558944
0.1525897
0.1512946
0.1495864
0.1531707
0.1566602
0.159264
0.1602669
0.159506
0.1568222
0.1469218
0.1510482
0.1397513
0.1395134
0.1313507
0.1089482
0.1115436
0.1248367
0.1315756
0.1373099
0.1423686
0.1467972
0.1505585
0.1535104
0.1554079
0.1597548
0.1605902
0.1632703
0.1645163
0.1644242
0.1628817
0.1599781
0.1563658
0.1538485
0.1516374
0.1521728
0.1569402
0.1599752
0.1616107
0.1621201
0.1608951
0.15639
0.1451244
0.1479864
0.1337416
0.1648515
0.1260131
0.1167804
0.1227687
0.1310329
0.1369483
0.1429262
0.1478613
0.1518609
0.1556509
0.158637
0.1615758
0.1643329
0.1659773
0.1671735
0.1678479
0.1676912
0.1664949
0.1641513
0.1606416
0.1556139
0.151022
0.1516219
0.1560849
0.1601038
0.1621943
0.1634995
0.1637514
0.1609453
0.1546314
0.1449981
0.1378216
0.1431762
0.1287224
0.1406922
0.1322843
0.1375123
0.143049
0.1486878
0.1526629
0.1565919
0.1602476
0.1618701
0.1667979
0.1674872
0.1679908
0.1683781
0.1685146
0.1682086
0.1672524
0.1654229
0.1624585
0.1579453
0.1515002
0.1500282
0.1549892
0.1598653
0.1626027
0.1641164
0.1653063
0.1640474
0.1589214
0.1505186
0.1552639
0.1410167
0.1389435
0.1508295
0.139674
0.1434784
0.1495524
0.1541266
0.1571955
0.160621
0.1633956
0.1664105
0.168319
0.1679211
0.1675387
0.167293
0.1670479
0.1666274
0.1658354
0.1644094
0.1620222
0.1581927
0.1522951
0.148854
0.1538399
0.158739
0.1627096
0.1649934
0.1669801
0.1670009
0.1624228
0.1549181
0.1596829
0.157226
0.1842191
0.1508768
0.1492232
0.1473388
0.1496756
0.1547668
0.1584721
0.1610016
0.1636289
0.1642763
0.1682866
0.1673358
0.1660627
0.1651025
0.164471
0.164004
0.1635398
0.1628933
0.1617865
0.1598792
0.1567055
0.1516103
0.1470351
0.1520017
0.1570594
0.1622318
0.1655805
0.1681731
0.1688703
0.1643323
0.1568509
0.1512959
0.1549552
0.179024
0.1663657
0.1524218
0.1534547
0.1528635
0.1552145
0.1585876
0.160981
0.1628948
0.1640265
0.1657876
0.1663477
0.1642777
0.1624308
0.161151
0.1603051
0.1597312
0.1592607
0.1587134
0.1578269
0.1562827
0.1536095
0.1492306
0.1442226
0.1484809
0.155156
0.1602216
0.1648863
0.1683847
0.1696097
0.1655072
0.1601504
0.1557079
0.1471033
0.1552855
0.1632163
0.1511724
0.1545237
0.1551141
0.1588661
0.1620198
0.1629663
0.1634552
0.162061
0.1645651
0.1620967
0.1593101
0.1571006
0.1556262
0.1546453
0.1540314
0.1535608
0.1530803
0.1523164
0.1510265
0.1486933
0.1448353
0.1403004
0.144595
0.152633
0.1573983
0.1634576
0.1683439
0.1708235
0.1679913
0.1637158
0.1590204
0.1493503
0.1559245
0.1593703
0.1479202
0.1522853
0.1540524
0.1587437
0.1628264
0.163787
0.163571
0.1615106
0.1634278
0.1604266
0.157275
0.1548527
0.1532731
0.1522585
0.1516604
0.1512339
0.1508167
0.1501269
0.1489229
0.1466905
0.1429612
0.1401655
0.1461572
0.1543767
0.159454
0.1658969
0.1713324
0.1745034
0.1723792
0.1673434
0.1620595
0.1522657
0.1592212
0.1587363
0.1462644
0.1492203
0.1521822
0.1574257
0.1620771
0.1636361
0.1641586
0.1639566
0.164462
0.1638793
0.1609319
0.1585471
0.1569897
0.1560437
0.15549
0.155114
0.1547062
0.1539827
0.1526197
0.1501471
0.1460088
0.1450399
0.1527273
0.1597816
0.1654433
0.1708891
0.1754558
0.1780012
0.1752254
0.1694299
0.1630664
0.1540322
0.1620937
0.180888
0.1537003
0.1472521
0.150537
0.1557639
0.1605657
0.1626305
0.1638402
0.1652608
0.1645169
0.1672777
0.1651164
0.1630281
0.1616059
0.1607746
0.1602967
0.1599568
0.1595233
0.1586885
0.1570924
0.154249
0.1495052
0.1510413
0.1587249
0.1640583
0.1697357
0.1737844
0.1772645
0.1790924
0.1756838
0.1691843
0.1616284
0.1622141
0.1926251
0.1502279
0.1572261
0.1503744
0.1535223
0.158127
0.1610008
0.1625115
0.1646176
0.1659218
0.1674133
0.1678582
0.166196
0.1649648
0.1642139
0.1637444
0.1633284
0.1627079
0.1616014
0.1596502
0.1563336
0.1526499
0.1561225
0.1625078
0.1675635
0.1718532
0.1746126
0.177232
0.1781164
0.1744216
0.1639722
0.173025
0.1620683
0.1398029
0.1546094
0.1472337
0.1503845
0.1542557
0.1584759
0.1605229
0.1630023
0.1652638
0.1651014
0.1684917
0.1675132
0.1666992
0.1660927
0.1655671
0.1649089
0.163841
0.1621755
0.1596089
0.1556788
0.1544648
0.1604891
0.1653455
0.170353
0.1733019
0.1751115
0.1767337
0.1760684
0.1715392
0.1601612
0.1702667
0.148326
0.1441532
0.1341365
0.1388434
0.1455234
0.1499683
0.1545696
0.1577124
0.1601522
0.1625228
0.1638658
0.1652058
0.1664759
0.1665267
0.1662526
0.1657313
0.1646756
0.1628821
0.160331
0.1569772
0.1550207
0.1579148
0.1632322
0.1681394
0.17233
0.1746468
0.1762286
0.1768379
0.1743958
0.1684648
0.1593108
0.1503709
0.1526591
0.1540585
0.125191
0.1321816
0.1393206
0.1444235
0.1488593
0.1527391
0.1558706
0.1583902
0.1601244
0.1605555
0.1637003
0.163029
0.1643357
0.1640453
0.1625327
0.1598746
0.1562792
0.1543947
0.1565529
0.1607653
0.1651411
0.1702235
0.1736031
0.1755985
0.1765351
0.1757348
0.1714922
0.1600884
0.164399
0.1448692
0.1779954
0.1299474
0.120288
0.1291498
0.1394269
0.1425172
0.1461137
0.1502319
0.1531617
0.1548828
0.1561561
0.1577761
0.1583258
0.1612259
0.1592394
0.1583612
0.155146
0.1538939
0.1543184
0.1567328
0.1622918
0.1664056
0.1704914
0.1735929
0.1751464
0.1749728
0.1726087
0.1627395
0.1686563
0.1564578
0.1522386
0.1320963
0.1146253
0.1173378
0.1352805
0.1365711
0.1396175
0.1435709
0.1471977
0.1492794
0.1505132
0.1519876
0.1532754
0.154265
0.1533436
0.1540687
0.1514874
0.1515492
0.1528156
0.1574239
0.1618585
0.1656671
0.1693016
0.1718153
0.1723394
0.1705794
0.1663608
0.1561693
0.1648552
0.1439005
0.1744344
0.1405037
0.1173126
0.1197322
0.1307301
0.1332
0.1365855
0.140159
0.1425545
0.1437046
0.1452132
0.1461295
0.1466234
0.1465
0.1458993
0.1449894
0.1471214
0.151928
0.156056
0.1600122
0.1635074
0.1662983
0.1676138
0.1665266
0.1626928
0.1535598
0.1602076
0.1473092
0.180209
0.1392859
0.1132227
0.1229806
0.1278005
0.129233
0.1324438
0.1343393
0.13537
0.1364407
0.1365163
0.1364486
0.1364287
0.1383441
0.1422826
0.1462049
0.1499628
0.1536024
0.1569546
0.159582
0.1607251
0.1603982
0.1570275
0.1476853
0.1532215
0.1560063
0.1723992
0.1407851
0.1137255
0.1147829
0.1193611
0.1275007
0.1267408
0.127008
0.1267837
0.1265276
0.1305604
0.1348374
0.1383929
0.1415006
0.1443067
0.147012
0.1496934
0.1518979
0.1533208
0.1526085
0.1452095
0.1510262
0.1392868
0.148599
0.1658621
0.1425068
0.1113683
0.118802
0.1229972
0.1223411
0.1182981
0.1217217
0.126061
0.1305546
0.134266
0.1370246
0.1392343
0.1410079
0.1426596
0.1441591
0.1447605
0.1441571
0.1378763
0.1431801
0.1391865
0.1316192
0.1542851
0.1429294
0.1172396
0.1116241
0.1107359
0.118648
0.1289351
0.1210196
0.1282575
0.1318054
0.1339686
0.1353275
0.1362704
0.1372293
0.1325347
0.1400889
0.1336989
0.1302766
0.1322212
0.1164399
0.1414678
0.1326477
0.1190687
0.1052133
0.1188726
0.1228553
0.116148
0.1250952
0.1286279
0.1299523
0.1301505
0.1300886
0.1308757
0.1306016
0.1337435
0.1252716
0.1168684
0.1118175
0.1362239
0.1300466
0.1188543
0.1227092
0.1239335
0.1164559
0.12353
0.1240706
0.1240386
0.1246037
0.117766
0.1224581
0.1151299
0.1193691
0.1283215
0.1282808
0.123322
0.123231
0.1225578
0.1242054
0.1282274
0.1126925
0.1184353
0.1126153
0.1191062
0.1206699
0.1212546
0.1209254
0.1189419
0.1139581
0.1194969
0.1197491
0.1119157
0.1238628
0.1130944
0.1187354
0.109845
0.1222402
0.1247502
0.125627
0.1259764
0.12696
0.1292052
0.1101406
0.1123931
0.1129833
0.10489
0.1265575
0.1069635
0.1060672
0.117811
0.1219646
0.1296375
0.1226944
0.1307899
0.1338825
0.135317
0.1356169
0.1309369
0.1349036
0.1267035
0.1219819
0.1183686
0.1105144
0.10275
0.1226541
0.1091489
0.1036796
0.1163162
0.1121683
0.1203532
0.1248784
0.1287875
0.1331669
0.1379478
0.1413424
0.1433553
0.144075
0.1435387
0.1415934
0.1378346
0.1326794
0.1238905
0.1246607
0.1061045
0.1123302
0.09887142
0.1266412
0.1043366
0.1107836
0.1083903
0.108665
0.1142177
0.1208242
0.1264975
0.1308111
0.1358081
0.1405447
0.1443456
0.1470756
0.1487257
0.1493773
0.1488822
0.1471069
0.1432365
0.1379726
0.1309568
0.1193683
0.1188458
0.1027479
0.09254099
0.1233579
0.1025307
0.111506
0.1126793
0.1099692
0.1092552
0.1123703
0.1188044
0.1246723
0.1300581
0.1354955
0.1404129
0.1445744
0.1478599
0.1502937
0.1519867
0.1528935
0.1527677
0.1509477
0.1469263
0.1409533
0.1324151
0.1196838
0.1178663
0.1032234
0.1024721
0.1185157
0.09892608
0.1100799
0.1153424
0.114576
0.1138411
0.1144141
0.1144796
0.1157897
0.1216861
0.1269722
0.132624
0.1376833
0.1420731
0.145753
0.1487985
0.1513427
0.1534368
0.1546653
0.1550851
0.1531399
0.1491135
0.1426256
0.1337516
0.1212015
0.1186469
0.1089283
0.1160546
0.1123031
0.09490997
0.1072059
0.1159309
0.1190487
0.1202582
0.1209617
0.1223706
0.1236197
0.1268593
0.1271693
0.1291327
0.131024
0.134444
0.1381608
0.1422117
0.1458091
0.1490699
0.1520666
0.1543243
0.1562515
0.1565097
0.1554295
0.1515918
0.1448198
0.1360479
0.1226697
0.1195813
0.1132762
0.1236809
0.1053324
0.1041503
0.1141358
0.1205213
0.1242515
0.1268594
0.1289002
0.1310807
0.133466
0.135951
0.1384956
0.1409018
0.1430773
0.1447735
0.1458852
0.1462774
0.1457495
0.1460975
0.149256
0.1528698
0.1560769
0.1581154
0.1590264
0.1581144
0.1542747
0.1474192
0.1378027
0.1232241
0.1219572
0.1160934
0.1132468
0.1011006
0.1103128
0.1179873
0.1250437
0.1299248
0.1332613
0.1363114
0.139708
0.1428826
0.1455013
0.148327
0.1510631
0.153567
0.1549191
0.1573253
0.1574276
0.1571151
0.153649
0.1503717
0.1507111
0.1548827
0.1586145
0.1609879
0.1618749
0.1607915
0.1564378
0.1486632
0.1370699
0.1233435
0.1205547
0.1431224
0.1082885
0.1048601
0.1070198
0.1147742
0.1223965
0.1298264
0.1353535
0.1393689
0.1437806
0.1479633
0.1510906
0.153975
0.1569696
0.1591924
0.1629284
0.1630716
0.1640934
0.1638559
0.1643472
0.1617231
0.1588569
0.1525106
0.1532136
0.1578454
0.1615786
0.1635996
0.1639994
0.1620063
0.1561896
0.1465316
0.1335419
0.1246026
0.1303622
0.1368486
0.1040762
0.1071065
0.1105429
0.1201534
0.1284754
0.1355247
0.1409571
0.1462523
0.1513229
0.1551822
0.1586117
0.1607433
0.1646199
0.165646
0.1680426
0.1697558
0.1704707
0.1700228
0.1683305
0.1655536
0.1633096
0.1573706
0.1523344
0.1563489
0.1608132
0.1640873
0.165701
0.1653402
0.1619288
0.1539948
0.1422434
0.1291654
0.1278183
0.1239608
0.1138771
0.1144183
0.1181256
0.127534
0.1356103
0.1418731
0.146196
0.1534308
0.1577128
0.1616967
0.1641805
0.1661288
0.1687173
0.1709038
0.1726059
0.173752
0.1741353
0.1735621
0.1718693
0.1689657
0.1646499
0.1589153
0.1532935
0.1537801
0.1593795
0.1633513
0.1663211
0.1671588
0.1659133
0.1602895
0.1502618
0.1360843
0.1283653
0.1358282
0.1550198
0.1247197
0.1282588
0.127627
0.1346621
0.1422286
0.1479634
0.1537363
0.1591938
0.1632208
0.1669882
0.1672622
0.1705724
0.1722334
0.1735214
0.1744362
0.1749512
0.1749658
0.1742907
0.1727039
0.1699925
0.1658933
0.1601482
0.1528233
0.1510168
0.1574685
0.162109
0.1657251
0.167921
0.1677457
0.1640489
0.1558548
0.1425594
0.1325297
0.1279599
0.1481986
0.1442013
0.1538261
0.13823
0.1388748
0.1417903
0.1486018
0.1530908
0.1602731
0.1639764
0.1675436
0.1694193
0.1707232
0.1723941
0.1730734
0.1734643
0.1736497
0.1736337
0.1733516
0.1726205
0.1711924
0.1688024
0.165127
0.1597783
0.152543
0.1497647
0.1548721
0.1607584
0.1652356
0.1688547
0.1695037
0.1673975
0.1605103
0.1489949
0.1387696
0.1337298
0.1222809
0.1446798
0.1580069
0.1465372
0.1492407
0.1489208
0.1537611
0.1576061
0.1642277
0.1672671
0.170076
0.1691818
0.1714451
0.1716108
0.171368
0.1710284
0.1706662
0.1702824
0.1698137
0.1690781
0.1678181
0.1657523
0.1625338
0.1577186
0.1509782
0.1479251
0.1516744
0.1586846
0.1641861
0.1688231
0.1706002
0.1697963
0.1641062
0.1538312
0.1422415
0.1373352
0.1227773
0.1512333
0.1504151
0.1528896
0.1547901
0.1547675
0.1571572
0.1598649
0.1659541
0.16839
0.1688318
0.1688687
0.1693158
0.1684541
0.1674753
0.1666125
0.1658817
0.1652626
0.1646806
0.163949
0.1628115
0.1609914
0.15814
0.1538068
0.1475852
0.1440753
0.1480099
0.1547168
0.1615871
0.1671446
0.1699088
0.170377
0.166317
0.1587669
0.1471253
0.1336189
0.1309543
0.1502365
0.1489598
0.1530952
0.1565217
0.1579464
0.1600186
0.1610984
0.1655084
0.1666847
0.1645413
0.1657012
0.1644876
0.1628521
0.1613405
0.1601175
0.1591477
0.1583869
0.157745
0.1570287
0.1559887
0.1543612
0.1518057
0.1478867
0.1421735
0.1390293
0.1436932
0.1499198
0.1579163
0.1643085
0.1679569
0.1695577
0.1676646
0.1623069
0.1505153
0.1371206
0.1331125
0.1455949
0.1446203
0.1502807
0.1548971
0.1575661
0.1607489
0.1615556
0.1650544
0.1654362
0.1626023
0.1632352
0.1615021
0.1594676
0.1576763
0.1562647
0.1551725
0.1543358
0.153648
0.1529092
0.1518717
0.1502783
0.1477976
0.1440086
0.1384998
0.1371074
0.1431075
0.1495936
0.1580094
0.1649401
0.1692633
0.1716152
0.1707281
0.1657418
0.153501
0.1399091
0.1358848
0.1414369
0.1419216
0.1469951
0.1521961
0.1561306
0.1601201
0.1616667
0.165981
0.1668096
0.1657753
0.1646128
0.1640398
0.162269
0.1606375
0.1593372
0.1583327
0.1575566
0.1568942
0.1561396
0.1550331
0.1533024
0.1506081
0.1465236
0.1409962
0.1409763
0.1480804
0.1553002
0.1630138
0.1696406
0.1737274
0.1756532
0.1735066
0.1671936
0.1541349
0.1401343
0.1347327
0.1360055
0.1525555
0.1434981
0.1487505
0.1543487
0.1589221
0.1610116
0.1659862
0.1674136
0.1686951
0.1663159
0.1674884
0.166483
0.1653527
0.1644097
0.163683
0.1631216
0.1626153
0.1619544
0.1608668
0.1590565
0.1561615
0.1517418
0.1471206
0.1483824
0.1545963
0.1621164
0.168337
0.1738852
0.1767733
0.1772106
0.1732155
0.1649073
0.1495128
0.1494011
0.1277485
0.1409968