/*--------------------------------*- C++ -*----------------------------------*\
  =========                 |
  \\      /  F ield         | OpenFOAM: The Open Source CFD Toolbox
   \\    /   O peration     | Website:  https://openfoam.org
    \\  /    A nd           | Version:  6
     \\/     M anipulation  |
\*---------------------------------------------------------------------------*/
FoamFile
{
    version     2.0;
    format      ascii;
    class       volScalarField;
    location    "49.8";
    object      p;
}
// * * * * * * * * * * * * * * * * * * * * * * * * * * * * * * * * * * * * * //

dimensions      [1 -1 -2 0 0 0 0];

internalField   nonuniform List<scalar> 
238185
(
308951.4
308800.9
308802.9
308933.7
309254
309214.2
309098.2
308987.1
309004.4
309141.2
309201.9
309218.8
309242.3
309324.3
309327.7
309301.4
309347.1
309371.8
309380.3
309369.9
309319.7
309332.8
309269.7
309155.3
309385.1
309284.1
309356.6
309530.4
309663.9
309764.6
309812.9
309800.9
309737.6
309634.2
309479.6
309302.2
309209.3
309189.4
309543.3
309467.8
309665.5
309886.6
310059.8
310179.4
310231.1
310206.4
310116.9
309971.3
309763.9
309534.8
309324.2
309314.7
309776
309676.5
309753.4
309993
310229.3
310408.7
310523.1
310570.4
310539.4
310444.9
310285.8
310059.4
309792.9
309537.8
309421.5
309407.6
309787.2
309738.5
309980.1
310259.8
310498.4
310672.3
310789.2
310836.8
310793.9
310684.7
310523.2
310293
310002.8
309697.6
309425.2
309388.6
309817.2
309735.3
309850.9
310146
310445.1
310674.1
310859.2
310975.6
311021.3
310975.2
310858.7
310676.4
310454.8
310150.7
309811.5
309494.3
309337.3
309297.8
309685.4
309639.8
309903.7
310236.7
310541.9
310760
310966.3
311060
311107.8
311054.8
310956
310747
310534.5
310224.8
309867.1
309513.2
309219.3
309154.8
309703.6
309647.5
309908.9
310239
310540.8
310755.9
310959.9
311051.2
311097.6
311043.2
310944.2
310734.5
310523.1
310212.6
309855.9
309500.5
309208.8
309162.9
309882.9
309764.8
309865.3
310152.8
310443.3
310664.5
310842.3
310953.1
310995.2
310945.6
310827.1
310644.6
310425.3
310121.3
309784.5
309466.3
309319.3
309327.6
309859.5
309767.3
309991.5
310257.1
310484
310646.2
310754.2
310794.7
310746.9
310635.6
310473.9
310245.2
309958.1
309655.7
309388.6
309382.5
309876
309718.8
309768.9
309989.8
310210.8
310374.8
310475.2
310507
310473.9
310376.9
310217
309991
309728.5
309478.5
309374.2
309406.7
309622.7
309492.5
309664.8
309866.4
310021
310119.3
310137.4
310121.9
310030.3
309883
309675.7
309448.2
309250.7
309279.1
309480.4
309314.5
309359.8
309509.2
309621.4
309695.9
309703.7
309700.7
309630.4
309520.6
309367.4
309194.9
309119.1
309166.4
309304.5
309350
309312
309257.9
309271.6
309250.9
309260.9
309240.2
309185.5
309201.6
309174.1
309098.5
309276.9
309200.9
309025.9
308866.1
308877.8
309003.7
309089.9
309129.3
308917.1
308721.2
308713.3
308839.7
304820.6
304943.8
305200.6
305402.7
305539.3
305606.1
305604.3
305530.5
305403.1
305410.9
304859
305092.2
305231.4
305395.5
305617.6
305775.5
305869.6
305920.5
305926.9
305871.2
305767.9
305730.7
305655.2
305560.6
305231.3
305254.8
305487.7
305759.8
305990.4
306197
306291.2
306294.3
306330.8
306396.5
306392.1
306273.6
306150.5
305955.4
305829.1
305839.8
305447.6
305516
305754.6
306067.4
306357.5
306525.6
306523.2
306527.1
306338.7
306363.4
306619.4
306651.6
306693.8
306613.8
306385.9
306171.9
306032.3
306021.4
305541.9
305677.6
305944.7
306309.7
306570.9
306663.8
306751.5
306549
306342.2
305945.3
305952.2
306396.9
306596.6
306846.4
306791.7
306726.8
306559
306296.3
306122.6
306074.6
305516.8
305719.4
306054.1
306448.8
306657.2
306763.5
306659.9
306522.3
306148.4
306061.8
306007.4
305998.7
306045
306121.6
306535.6
306658.9
306804.8
306737.7
306623
306324.2
306111.2
306070
305828.8
306070.9
306491.3
306832.3
306893.1
306559.8
306240.7
306221.6
306234.5
306252
306254.6
306235.2
306197.8
306151.6
306126
306137.4
306503.1
306838.5
306844.3
306591
306296.7
306212.4
305913.8
306121.6
306474.3
306908.2
307065.4
306870.2
306340.6
306299.8
306375.9
306466.9
306531.8
306553.4
306525.6
306452.6
306342.7
306213.2
306115.4
306163.7
306735
306918.6
306850.8
306531.3
306319.2
306285.1
306131.4
306371.9
306791.9
307152.5
307215.2
306838
306427.7
306471.3
306599.3
306720.1
306799.8
306825
306790.6
306701.2
306562.9
306387.7
306217.8
306157.4
306606.5
306984.6
306973.3
306702.6
306414.5
306328.9
306481
306664.3
307070.9
307236
307050.9
306533.6
306509.8
306637.9
306797.7
306931.6
307017.5
307043.4
307002.7
306902
306749.7
306554
306340.9
306182.7
306206.7
306768.5
306938.7
306859
306573.9
306516.4
306751.5
306870.7
307190.7
307247.9
306911
306513.8
306587.6
306762.4
306938.6
307080.9
307170.3
307196.1
307151.9
307043.8
306880.4
306673.5
306434.3
306214.3
306122.6
306558.6
306913.2
306908.5
306678.1
306657.7
306919.6
306994.5
307225.8
307065.5
306537.2
306488
306628.5
306826.4
307009.4
307156.1
307243.9
307267.6
307222.9
307113.5
306944.5
306732.8
306482.7
306234
306071.4
306126.2
306700.2
306877.4
306721.1
306736.2
306956.6
307022.2
307245.2
307074
306543.1
306489.9
306627.2
306821.9
307002
307146.3
307232.1
307254.2
307208.3
307098.3
306929.2
306717.6
306467.8
306219.7
306057.3
306113
306692.6
306877.1
306729.2
306763
306860.7
306949.3
307245.3
307271.6
306925.1
306515.5
306580.8
306747.1
306915.7
307051.5
307135.8
307157.8
307111
307001.7
306838.6
306633
306395.9
306178.3
306088.1
306525
306894.2
306902.3
306696.8
306726.1
306650
306779.2
307152.6
307289.2
307079.5
306540.7
306500
306613.9
306761.6
306885.2
306962.7
306982.4
306938.2
306836.1
306684.4
306491
306282
306127.2
306155.8
306729.7
306926.6
306857.1
306598.6
306610.9
306346.1
306515.9
306900.9
307222.3
307241.8
306846.9
306413.3
306438.8
306550.8
306657.4
306724.3
306739.2
306700.9
306610
306472.4
306300.5
306136.5
306081.8
306539.6
306939.5
306953.4
306707.5
306444.3
306437.9
306187
306298
306612.8
306998.5
307113.5
306885.9
306328.3
306263.2
306318.8
306391.2
306437.3
306443
306411.1
306337.3
306228.2
306102.7
306010.2
306068.1
306658.1
306869.1
306828.9
306547.5
306359.4
306419.3
306045.3
306234
306598.9
306897.6
306911.2
306549.9
306202.9
306160.1
306150.4
306144.3
306126.2
306100.5
306060.4
306013.3
305989.1
306004.7
306378.1
306745
306779.3
306566.4
306323.6
306279.1
305759
305897.6
306177
306534.4
306700.7
306761.6
306627.1
306464
306064
305948.4
305868.7
305849.4
305888.6
305959
306362.9
306501
306664.2
306627.7
306545.2
306294.9
306149.8
306174.7
305743.5
305816.9
306051
306379.3
306600.3
306655.7
306705.2
306471.8
306234.9
305808.3
305796.8
306219.4
306416.3
306663.3
306619.8
306578.1
306433.5
306206.1
306099.6
306185.7
305630
305650.3
305850.1
306123.6
306378.1
306514.3
306473
306435.8
306214.3
306220.2
306454.5
306475.2
306513
306436.9
306223.3
306038.4
305957
306068.6
305382.4
305370
305568.4
305807.3
306004.3
306171.9
306233.2
306191.5
306208.7
306252.7
306228
306097.1
305975.1
305787.2
305703.2
305830.4
305015.6
305204
305303.5
305434.9
305626.2
305753.9
305802.4
305835.6
305815.2
305734.2
305613.1
305579.6
305525.7
305475.6
304911
305006.7
305241
305416.7
305504.5
305557.8
305528.8
305429.4
305279.8
305278.7
300902.1
300982.9
301217.2
301411.8
301537.9
301594.9
301587.4
301734
300596.3
300846.8
301280.5
301416
301564.9
301779.3
301949.8
302055.6
302097.8
302090.1
302134.4
302187.8
302008.9
301974.6
301104.9
301146.4
301455.9
301763.8
301980.3
302220.2
302430.2
302585.1
302673.1
302696.7
302668.7
302605.1
302559.1
302448.4
302322.5
302445
300785.1
301221.2
301559
301783.7
301956.7
302199.9
302240.7
302439.6
302614.1
302740.4
302810.4
302825.3
302793.6
302741.9
302861.5
302800.1
302780.1
302738.9
302575.3
302333
301016.2
301272.5
301721.7
302020.1
302233.7
302234.5
302243.4
302059.2
302154.3
302251.4
302326.7
302378.2
302405.9
302414.4
302435
302772.3
302876.2
303031.1
302991.9
302862.8
302607.9
302520.8
301152
301451.5
301914
302254.6
302449.4
302295.7
302102.4
302156.4
302211.1
302245.9
302265.3
302281.9
302314.8
302365.9
302421.1
302466.5
302509.6
302555.2
302904.6
303173.3
303153.9
303007.8
302743.3
302671.3
301720.9
302071.5
302433.2
302658.7
302503.1
302254.5
302295.9
302344.3
302363.4
302330.5
302272.8
302220.9
302234.1
302322.8
302414.5
302493.4
302539.6
302562.6
302629
303024.4
303297.7
303264
303123.3
303031.3
301890.7
302234.8
302548.1
302788.3
302668.8
302418.2
302423.6
302455.7
302457.8
302421.7
302339.6
302232.8
302140.9
302130
302218.2
302323.3
302433.1
302500.5
302543.6
302590.9
302696.4
303099.7
303354.2
303336.7
303293.8
303301.9
301743.9
302146.7
302624
302911.3
302780.1
302569.2
302575.3
302558.3
302520.6
302468.4
302390.6
302299.2
302218.9
302158.5
302133.1
302150.1
302197.2
302287.1
302367.6
302454.8
302538.4
302641.4
302756.8
303141.5
303434.8
303412
303235.9
303197.6
302118.8
302593.2
302955.4
303016.3
302711.8
302742.4
302740.3
302653.7
302522.1
302428.6
302377.7
302348.3
302324
302295.3
302261.4
302225.4
302192.5
302182.5
302210.1
302318.9
302482.6
302627.2
302731.5
302850.2
303354.6
303506.6
303444.9
303350.9
302632.4
303006.8
303296.5
303140.1
302888.3
302910.5
302862.8
302709.2
302539.3
302466.7
302468
302489.9
302501.6
302488.7
302447.1
302379.9
302295.1
302211.3
302164.2
302223
302416.1
302595.9
302729
302840.5
303296.9
303626.2
303653.5
303651.5
302594.4
302956.6
303356
303425.8
303043.8
303028.5
303014.5
302906.5
302726.5
302589.4
302566.7
302609.7
302662.2
302692.6
302686.1
302638.2
302552
302435.9
302306.9
302201
302186.3
302328.3
302535.9
302700.9
302828.2
303005.9
303593.1
303783.8
303691.7
303747.9
302822.9
303218.1
303678.8
303685.8
303209.1
303134.5
303056.3
302890.9
302710.4
302638.4
302672
302747.6
302818.9
302859.5
302855.9
302803.5
302705.5
302570.7
302414.3
302266.2
302181.6
302234.8
302437.3
302632.3
302807.3
303029.1
303715.2
303946.9
303755.2
303697.2
303132.1
303485.2
303930.6
303894.3
303347.9
303193
303035.9
302844.3
302698.4
302684
302755.7
302852.3
302934.8
302981.2
302978.8
302923.4
302818
302671.4
302497.4
302320.5
302185.9
302164.4
302318.1
302549.9
302778.3
303063
303816.6
304079.5
303893.3
303846.4
303328.6
303655.1
304086.5
304020
303434.6
303230.9
303010.3
302792.8
302685.1
302709.7
302802.2
302909
302996.4
303044.7
303042
302985.5
302876.7
302724.7
302542.2
302351.3
302191.4
302125.3
302225.8
302481.5
302756.1
303080.7
303873.1
304153.7
303975.8
303945.8
303368.5
303689
304116
304043.9
303454.1
303245.8
303020
302799.6
302688
302709.2
302798.9
302903.4
302988.9
303035.8
303032
302974.7
302865.4
302713.3
302530.8
302340.3
302181.2
302115.1
302215.9
302472.3
302750
303079.2
303879.3
304168.5
304001.3
303994.5
303256.5
303588.7
304020.4
303967.1
303404.7
303233.6
303059.3
302857.7
302700.3
302676.8
302740.7
302831
302908.4
302950.9
302945.7
302888.5
302782.3
302635.8
302462.5
302287.2
302154.8
302134.2
302289
302524
302760.9
303059.9
303836.7
304122.2
303962.2
303966.9
303038.5
303389
303822.5
303797.8
303293.5
303192.3
303092.2
302909.2
302712.2
302624.4
302644.9
302710
302772.8
302806.9
302798.6
302743.6
302644.5
302510
302355.1
302209.6
302128
302184.4
302392
302597.5
302786.2
303030.9
303755.7
304017.9
303860.2
303869.6
302905.2
303194.7
303542.3
303568
303152.1
303102.9
303059.6
302924.4
302725.9
302567
302526.6
302555
302595.3
302615.8
302602.2
302550.7
302463.3
302347.9
302221.9
302120.7
302109.7
302257.3
302475
302657.7
302808
303017.1
303654.8
303879.8
303824.1
303969.3
302943.3
303232.3
303463.6
303273.3
302977.7
302965.5
302887.5
302708.4
302513.7
302417.9
302399.9
302405
302402.3
302378.8
302332
302263.3
302179.7
302099.8
302059
302122.8
302324.6
302521.4
302680.4
302824.5
303320.5
303705
303774.7
303825.3
302461.7
302845.7
303154.2
303168.3
302819.4
302812.1
302776.5
302657.2
302499.7
302378.5
302304.3
302252.5
302208.5
302164.7
302122.7
302083.7
302051.9
302045.1
302076.7
302190.3
302366.4
302535.1
302675.5
302836.1
303385.4
303608.2
303592.3
303575
302102.6
302418.6
302840
303081.3
302908.6
302656.2
302628.9
302579.9
302508.7
302427.6
302324.4
302205.1
302099.4
302018.1
301980.6
301991
302035.5
302120.8
302202.9
302296.5
302398.3
302532.3
302692.1
303128.9
303475.1
303533.3
303418.8
303503.4
302184.2
302459.2
302743.8
302939.6
302778.6
302493.8
302467.7
302468.2
302440.3
302371.6
302259.5
302124.9
302006.5
301976.3
302046.6
302141.4
302241.4
302307.6
302361.7
302430.8
302570.5
303020.3
303343.7
303400
303445.9
303571.6
301945.5
302275.8
302612.3
302804.7
302614.5
302327.9
302335.9
302352.8
302341.6
302276.7
302184
302101.9
302089.4
302152.3
302223.3
302289.2
302332.1
302364.9
302452.7
302880
303208.2
303257.2
303208
303234.7
301401.7
301675.3
302114.5
302432.5
302592
302402.6
302174
302194.1
302217.7
302219.6
302203.9
302185.5
302189.1
302211.2
302240.4
302267.9
302303.1
302351.9
302712.4
303022.6
303071.4
302993.5
302840.3
302923.6
301261.4
301488.8
301906.1
302186.2
302374.1
302338.3
302314.8
302095.5
302159.8
302223.9
302262.6
302284.6
302282.8
302263.5
302261.9
302582.3
302684.9
302847.9
302854.5
302778.4
302608.5
302659
301007
301423.8
301728
301936.6
302078.9
302294.4
302304.9
302477.7
302621.9
302707.9
302749.7
302736.3
302676.5
302601.2
302698.8
302627.1
302617.1
302618.2
302510.3
302353.7
301282.6
301301.2
301577.9
301859
302045.1
302259.9
302441.1
302552.4
302621
302618.3
302561
302472.4
302403.3
302287.5
302172.8
302312.6
300737.3
300960.4
301354.1
301464.8
301590.3
301779.7
301913
302000.3
302009.8
301968.9
301994
302023.1
301830.5
301772.6
300911.5
300968.2
301180.1
301350.3
301446.8
301455.7
301415.4
301530.1
297232.9
297244.4
297434.1
297600.6
297710.5
297982.4
296609.7
296909.9
297410
297843.7
297837.9
297921.1
298093
298235.8
298332.1
298489.7
298736.2
298634.4
298394.9
298327.1
296473.1
297018.8
297296.3
297560.5
297875
298151.5
298131.3
298279.1
298435.1
298560.9
298651.5
298731.2
298967.3
298965
298893.4
298844.8
298779.5
298510.5
297001.9
297238.7
297556.1
297824.9
297930.4
298136.6
298205.6
298039.9
298154.8
298283.4
298388.5
298469.4
298561.1
298944.1
299085.8
299100.3
299211.8
299175.2
299073.3
299015.7
297398.7
297586.1
297828.3
298097.4
297958.9
297796.8
297902
298011.6
298123.2
298254
298370.8
298455.4
298509.1
298553.1
298621
298694.6
298795.1
299179.6
299508.9
299476.3
299410
299412
297617.9
297789.5
298058.2
298149.7
298172.2
297890.3
297899.3
297965.5
298047.4
298152.4
298263.8
298356.6
298420.4
298456.8
298480.5
298520.1
298598.1
298709.8
298891.4
299393
299559.2
299650.6
299601.6
299629.2
297741.7
297981.9
298206.7
298149.1
297999.2
298009.4
298003.1
298012.2
298036.2
298071.1
298129.4
298192.6
298247.1
298289.8
298322.7
298352.6
298400.3
298494.3
298610
298768.1
298958.1
299140.4
299510.3
299737
299758.4
299777.5
297669.9
298136
298459
298345.8
298145.4
298153.2
298151.4
298121.2
298108
298117.7
298134.5
298151.7
298166.2
298179.7
298200.6
298232.4
298271.5
298322.4
298392.8
298490.1
298645.3
298829.7
299008.3
299208.9
299627.9
299928.4
299917.2
299766.8
297482.4
298135.4
298594.8
298730.5
298375.3
298337.8
298329.4
298286.6
298239.1
298224.9
298225.6
298220.2
298198.1
298184.2
298179.5
298178.4
298191.2
298214.8
298269.1
298326.4
298398.8
298519.1
298705
298905.5
299105
299362.2
299945.2
300090.7
299939.1
299626.7
298145.8
298619.7
299007.4
298898.6
298558.1
298506.2
298457.4
298398.1
298357.6
298337.1
298314.8
298295.9
298262.3
298213.5
298181.2
298161.6
298164.6
298185
298220.8
298253.2
298318.8
298412.7
298564.8
298772.8
298996.8
299265.5
299887.1
300231
300172.6
300063.3
298068.9
298638
299060.5
299015.9
298768
298697.4
298625.5
298564.5
298513.7
298464.8
298433.3
298400.5
298354.7
298309.9
298244.3
298189
298154.5
298145.1
298156
298170.4
298196.3
298249.3
298321.2
298452.3
298629.9
298861.8
299137
299465.6
300012.1
300313.1
300253.7
300071.7
298537
299071.1
299296.2
298975.2
298908.1
298827
298742
298685.5
298630.5
298571.1
298517.7
298462
298403.4
298356
298311.2
298265
298218.9
298176.8
298142.6
298126.6
298141.3
298190.2
298265.3
298376.5
298535.3
298747.5
299036.2
299352.5
299712.1
300334.8
300449.1
300282.7
299184.5
299518.4
299588.9
299176.3
299069.3
298955.7
298866.1
298803
298726.6
298653.4
298582.5
298508.7
298473
298451.8
298426.7
298387.7
298332.6
298265.1
298192.6
298129.5
298099.2
298135.8
298216.8
298314.8
298471.8
298671.6
298958.4
299304
299701.4
300430.4
300678.7
300695.3
299688.6
299878
299757.2
299388.1
299240.5
299080.4
298973.7
298892
298805.3
298714.6
298631.8
298581.9
298571.6
298571.9
298560.9
298526.3
298464.8
298379.6
298279.3
298179.8
298107.6
298099.3
298166.8
298273.5
298413.9
298612
298895.6
299283.8
299709.8
300413.9
300827.6
301011.7
299544.8
299897.5
299975.4
299662.8
299566.3
299408.6
299209.7
299065.6
298948.3
298850
298759.2
298678.7
298659
298671.8
298688.1
298686.5
298654.6
298588.7
298491.7
298372.3
298245.9
298138.3
298085.1
298125.7
298224.8
298353.2
298566.8
298871.1
299292.5
299718
300124.3
300725.5
300910.3
300810.1
299662
300059.8
300173.3
299818.6
299733.2
299557.6
299319.7
299133.2
298994
298873.8
298771.5
298718.1
298722.1
298751.6
298778.5
298782.8
298752.4
298683.5
298579.2
298447.4
298302.9
298169.8
298082.6
298082.2
298172.9
298320.2
298534.1
298866.8
299320
299754.4
300143
300790
300912.5
300706.5
299849.1
300219
300310.4
299934.4
299845.2
299654.7
299390.7
299175.8
299027.3
298895.1
298780.6
298745.4
298763
298801.4
298833.7
298840.7
298810.9
298740.7
298632.7
298494.8
298340.9
298194.2
298087.6
298061.4
298149.2
298308.4
298516.8
298868.2
299340.5
299782.9
300173.9
300845.7
300986
300791.1
299890.3
300254
300341.2
299963.2
299871.1
299677.5
299409.3
299190.4
299038.4
298903.1
298785.6
298747.9
298763.7
298800.7
298832
298838.2
298807.7
298737
298628.5
298490
298335.6
298188.4
298081
298054.2
298141.5
298300.3
298510.6
298865
299340.8
299788.3
300186.6
300869.4
301025.3
300855.7
299807
300183.2
300277.1
299908.7
299810.8
299622.6
299369.6
299169
299018.5
298889.2
298777.8
298717.2
298715.7
298741.1
298765
298766.9
298734.7
298664.5
298558.8
298425.7
298280.1
298146.1
298057.7
298056.1
298146.9
298295.2
298515.4
298858.5
299324
299773.9
300182.7
300857.3
301016.7
300874.8
299816.8
300133.2
300159
299815.7
299690.7
299507.4
299283.9
299116.7
298980.9
298867.8
298762.5
298669.4
298639.6
298644.8
298655.2
298649.1
298613.9
298545.4
298446.3
298324.9
298196.8
298088.3
298035.6
298075.8
298176.5
298311
298537.4
298861.2
299306.4
299758.9
300197.2
300839.3
301086.4
301106.6
300042.7
300134.6
299968.3
299549.3
299363.9
299172.8
299036
298929.8
298822.6
298713.6
298612.7
298548.3
298526.6
298517.9
298499.8
298459.9
298394.7
298306.7
298204
298102.8
298030
298024.1
298093.1
298204.8
298357.5
298575.4
298887.2
299310
299773
300520.8
300988.1
301260.9
299589.3
299839.1
299844.8
299368.1
299213.1
299065.6
298939.2
298846.9
298746
298650.1
298557.3
298463.8
298412.1
298377.7
298341.8
298294.6
298234
298162.5
298087.1
298022.7
297993.6
298033.4
298118.6
298227.2
298404.4
298632.3
298955.2
299343.3
299787.1
300574.3
300901.8
300999.4
298958.5
299407.8
299569.6
299186.5
299072.3
298952.5
298830.5
298741.8
298658.9
298573.1
298494.3
298414.5
298334.6
298268.3
298207.5
298148.4
298093.3
298044.7
298006.2
297988.8
298006.2
298058.6
298141.3
298270.2
298457.9
298707.1
299039.6
299410.9
299828.2
300522.5
300718.5
300629.6
298502
298975.9
299345.3
299255.1
298955.3
298843.1
298736.5
298642
298560.6
298483.2
298422.9
298363
298290.9
298221.3
298132.8
298058.2
298009.4
297990.1
297994.7
298006
298032.3
298088.8
298172.6
298328.7
298543.2
298820.3
299149.1
299546.7
300164.3
300547.8
300568.4
300476.5
298485.1
298910.4
299260.5
299114.7
298734.8
298645.9
298564.3
298473.3
298402
298351.2
298299.7
298250.5
298187.6
298110
298052.1
298011.8
298000
298009.1
298036.7
298064.4
298134.8
298245.1
298426
298673.4
298948.7
299285.1
299987.3
300411.6
300457.9
300444
297815.2
298427.6
298861.6
298965.1
298578.2
298512.9
298472.3
298397.5
298317.1
298270.7
298240.1
298203.2
298149.8
298102.5
298067.3
298039.5
298030.6
298035.1
298074.5
298123
298199.6
298336.1
298548
298787.6
299047.7
299380.1
300047.3
300307.3
300257.8
300092
297967.5
298410.8
298717.9
298580.7
298352.6
298332.6
298297
298234.2
298188.2
298165.2
298149.8
298134.9
298115.8
298096
298085.9
298089
298102
298131.7
298189.8
298286.7
298449
298655.3
298877.7
299141.3
299637.5
300036.3
300162.3
300174.8
298025.5
298257.6
298465.6
298382.9
298202
298182.3
298145.5
298122.5
298114.4
298117.4
298144.6
298176.2
298197.7
298208
298209.4
298209.9
298232.8
298307
298413.5
298570.6
298779.6
299002.8
299429
299728.9
299887.9
300077.7
297893.2
298054.7
298299.5
298366.3
298360.6
298047.2
298026.4
298063.5
298116.9
298194.3
298275.5
298336.1
298369.1
298374.7
298367.7
298379.9
298434.6
298530.9
298709.8
299223.6
299419.5
299553.7
299605
299774.6
297656.8
297824.2
298042.4
298291.4
298122.5
297927.3
298003.7
298085.9
298172.1
298274.5
298360
298415.8
298439.6
298452.4
298493.1
298547
298635.6
299014.8
299339.9
299325.9
299313.5
299394.7
297234
297445.7
297736.3
297979.9
298058.9
298235
298271.2
298077.5
298167.2
298268.7
298345.7
298394.7
298456.1
298814
298940.1
298938.3
299033.4
298988.4
298906.9
298853.2
296671
297168.8
297425.6
297671.3
297955.3
298190.7
298140.7
298270.3
298406.1
298500.6
298551.4
298602.7
298812.4
298783.4
298690.5
298635.8
298555.3
298260.6
296711.2
296997.6
297471.8
297845.1
297806.7
297875.5
298032
298131.7
298182.6
298315.3
298524.4
298399.4
298135.2
298046.4
297150.6
297159.5
297340.9
297441.7
297497.9
297726.3
292877
293231.9
293585.2
293781.3
294010.1
294199.9
294290.5
294378.8
294388.9
294353.2
292588.9
293041.7
293538.8
293763.4
293999
294239
294202.3
294361.6
294520.6
294652.1
294956.8
295050.1
295096.9
295092.9
294878.7
294718.2
293304.9
293315.6
293682.6
293861
294139.2
294338.3
294364
294138.1
294243
294383.8
294549.9
295036.8
295282.8
295359.2
295316.5
295366.6
295276.3
295479.7
292895.7
293502.1
293749
293740.9
293846.2
293759.5
293904.1
294023.3
294077.8
294133.2
294239.5
294362.3
294497.8
294674.9
294850.3
294984.2
295082.8
295411.8
295535.6
295756.8
295734.5
295381.1
293295.7
293629.1
293937.5
293850.9
293683.7
293721.7
293790.3
293890.3
293973.6
294026.3
294100.2
294195.9
294296.1
294401.2
294529.9
294684.6
294823
294954
295120.7
295318.8
295717.4
295979.5
295892.1
295720.2
293526.2
293926.1
294218.3
294088.2
293825.8
293800.7
293789.7
293808.2
293867.2
293932.3
293996.4
294074.9
294156.5
294232.4
294305
294387.9
294495.7
294621.7
294777.3
294990.5
295234.6
295495.3
295962.3
296259.5
296168.2
295939.1
293636.9
294117.5
294459
294301.1
293976.9
293915.8
293884.9
293845.5
293841.6
293890.7
293956.1
294008.6
294070.9
294130.3
294181.8
294228.8
294282.6
294360.3
294455.1
294585.8
294802.7
295072.2
295337.1
295619.8
296146.4
296454
296332.5
296062
293627.9
294199.7
294617.5
294505.1
294150.3
294033.9
293973.4
293936
293924.3
293932.5
293950.3
293985.4
294011.4
294041.9
294071
294098.4
294128
294167.7
294230.1
294313.7
294436.4
294614
294830.1
295095.9
295393
295726
296280.2
296550.9
296374
296067.3
294358.9
294696.7
294676.7
294376
294231.1
294127.2
294064.3
294039.7
294037.4
294030.2
294016
294008.9
294004.7
294000
293997.7
294002.2
294018
294047.4
294096.8
294175.9
294294.8
294449.5
294630.7
294859.5
295159
295506.1
295876
296404.9
296621.4
296601.1
294472.9
294852.1
294801.8
294595
294491.3
294351.6
294249.7
294201.3
294178.6
294145.5
294108.6
294080.9
294052.7
294020.3
293999.6
293981
293963.4
293949.9
293956.9
293993.9
294053
294146.7
294288.8
294471.7
294680.1
294946.7
295301.7
295699.5
296060
296514
296796.2
296779.3
294127.1
294752.2
295020.4
294775.9
294712.4
294608.2
294477.9
294394.9
294351.4
294298.7
294238.3
294190
294145.6
294111.9
294070.3
294030.4
293994.7
293959.1
293925.1
293912.7
293917.6
293947.1
294021.4
294139.4
294312.5
294527.2
294776.8
295107.7
295526.9
295912.3
296246.5
296721.1
296733.5
296458.4
294712
295257.6
295242.8
294938.9
294826.7
294709.2
294612.8
294546.3
294476.7
294398.4
294327.4
294278.2
294229.8
294183.3
294134.8
294069
294006.1
293953.8
293917.1
293897.8
293876.4
293882.5
293923.7
294015.5
294166.6
294373.4
294630.1
294939.9
295328.5
295770.5
296178.7
296756.8
296989.2
296782.8
295358
295592.4
295277.3
295120.4
294962.3
294830.1
294746.3
294676.9
294582.7
294495.6
294424.4
294374.7
294316.1
294249.4
294187.8
294126.2
294061.4
293996.3
293936.3
293886.2
293852.9
293849.4
293869.7
293929.8
294055.1
294241.8
294494.2
294800.8
295164
295634.7
296123.6
296565
297112.2
297211.3
295277.2
295883.5
296037.7
295532.8
295314.3
295122.5
294986
294883.4
294785.5
294682.9
294582.4
294515.9
294455.2
294378.1
294319.5
294269.3
294216.1
294152.4
294078.2
293998.5
293920.3
293854.3
293818.7
293833.5
293872.3
293971.2
294143.4
294380.2
294691.6
295076.1
295550
296098.7
296609.1
297313.7
297375.9
296990.7
295798.8
296295.6
296330.2
295726.5
295480.7
295280.4
295144.5
295021.5
294885.8
294767.7
294668.5
294593.4
294517.6
294450.9
294405.5
294367.5
294322.5
294260.3
294179.7
294085.4
293984.7
293890.1
293822.1
293805
293833.6
293911.6
294061.3
294288.8
294611.4
295014.3
295481.7
296063.1
296624.6
297423.8
297545.3
297221
296247.4
296603.8
296439.7
295861.8
295607.3
295416.8
295274.2
295132.2
294973.2
294833.4
294738.3
294659.8
294576.2
294524.4
294492.6
294465.5
294427
294366.2
294281.2
294176.4
294059
293941.4
293844.6
293794.6
293811.6
293864.7
293992.4
294217.9
294544
294953
295417.9
295993.8
296586.8
297372.6
297645.2
297422.4
296556
296638.7
296239.3
295959.4
295725.8
295541.4
295388.8
295225.1
295040.7
294895.8
294790
294695.8
294624.2
294585.5
294564.8
294545.7
294511.8
294451.9
294364.1
294252.3
294123.4
293989.4
293871.1
293795.1
293785.5
293837.2
293953.3
294169.8
294503.1
294918.4
295380.6
295945.7
296529.7
297025.1
297533.7
297556.5
296780.9
296782.5
296319.9
296048.1
295815.4
295629.1
295467.8
295288.5
295087.5
294946.6
294834.3
294725.9
294662.8
294632.4
294618.3
294603.7
294572.3
294512.9
294423.6
294308
294172.7
294029.5
293898.8
293807.3
293780.5
293838.6
293945.2
294151.7
294489.8
294909.4
295372.2
295936.2
296524.2
297019
297595.2
297686.3
296821.5
296820.2
296356.9
296082.4
295846.4
295656.7
295492.3
295308.7
295104.1
294960.7
294846
294736.2
294672.2
294641.3
294627
294612.3
294580.6
294521
294431.2
294314.8
294178.2
294033.3
293900.7
293806.8
293777.8
293834.2
293939.5
294145.5
294484.2
294905.4
295371.6
295942.4
296540.4
297047.1
297638.4
297755.8
296706.1
296770.3
296362
296066.7
295818.4
295619.4
295453.5
295275.1
295079
294926.3
294813.8
294714.5
294639.1
294598.2
294576.1
294556
294521
294460.1
294370.8
294256.5
294123.9
293985.7
293862.7
293781.4
293766.9
293815.9
293930.3
294147.9
294486.3
294910.2
295385.8
295972.2
296584.4
297111.2
297659.4
297746.8
296528.2
296842.1
296659.6
296042.8
295757.5
295537.5
295370
295204.3
295025.6
294871
294764.2
294675.7
294583.9
294526.2
294490.4
294460
294418.8
294355.4
294267.4
294158.3
294035.4
293911.6
293808.5
293752.1
293764.7
293815.3
293944.4
294177
294516.5
294944.2
295434.3
296045.9
296683.2
297519.5
297857.4
297750.2
296178.2
296632.7
296628.6
295965.7
295675.7
295431.4
295261.4
295108.5
294947.3
294809.1
294693.8
294604.8
294516.7
294440.2
294387.5
294343.9
294294.1
294227.7
294142.8
294043
293935.5
293833.5
293758.2
293734.4
293760.1
293837.3
293992.5
294233.3
294577.5
295009.2
295513.7
296143.4
296762.6
297633.1
297842.8
297608.5
295734.1
296286.5
296380.4
295810
295538.1
295295.4
295119.3
294983.5
294856.1
294729.3
294608.6
294523.8
294447.2
294355.5
294285.4
294225.8
294164.9
294094.5
294014.1
293927.6
293841.5
293767.4
293724.5
293734.4
293771.1
293873
294057.1
294314.9
294657.2
295080.2
295602.7
296212.4
296794.9
297582.7
297720.3
297427.5
295828.5
295963.2
295571.3
295355.7
295149.4
294978.3
294861.1
294761.7
294640.9
294530.1
294436.5
294366.4
294289
294205.4
294129.2
294055.1
293979.4
293904.6
293835.1
293775.8
293734
293723.7
293741.3
293800.1
293933.5
294139.5
294421.9
294769.3
295183
295715.8
296275.3
296793
297420.9
297617.1
295186.5
295641.6
295554.5
295188.3
295035
294879.8
294750.1
294653.7
294556.5
294451.9
294355.4
294281.1
294209.2
294140
294071.4
293986.6
293906.6
293839
293788.6
293757.4
293727.4
293727.2
293765.5
293858
294022.8
294256.1
294552.6
294914.9
295369
295884.9
296371.7
297035.5
297343.5
297255.3
294568.1
295122.5
295333
295041.3
294941.6
294807
294645.9
294532.8
294461.1
294380.5
294291.9
294215.6
294144
294082.7
294015.1
293949.5
293891
293833.5
293780.4
293751.1
293745.3
293767.5
293836.7
293959.2
294150
294396.6
294693.1
295087.5
295583.1
296051.2
296474.7
297042.6
297172.4
297028.4
294817
295167.9
295092.2
294852.7
294720
294552.5
294423.6
294346.6
294294.3
294231.1
294164
294106.6
294048.7
293986.8
293935.7
293888.6
293842.9
293805.1
293790.6
293811.1
293857.4
293944.9
294091.7
294293.2
294535.7
294855
295281.7
295762.6
296217.8
296768.3
297164
297311.7
294681.7
295001.3
294960
294634.2
294464.5
294335.5
294244.7
294189
294155.7
294117.9
294073.2
294035.7
294000.7
293964.8
293931.7
293904.3
293889.9
293892.3
293918.4
293978.8
294088.3
294244.1
294440.6
294704.9
295061
295480.5
295937.6
296566.4
296893.5
297045.7
293968.1
294521.9
294921.5
294792.2
294411.6
294269
294180.3
294112.2
294069.9
294047.7
294036.1
294043
294039.1
294038.7
294036.9
294031.6
294028
294036.8
294071.7
294132.6
294239.9
294413.8
294640.3
294939.2
295286.1
295683.6
296324.7
296691.9
296670
296542.8
293961.3
294428.9
294758.2
294581.2
294228
294138.2
294076.2
294005.9
293973.5
293995.1
294035.3
294061.6
294094.4
294123.1
294143.3
294157.4
294178.7
294227.1
294298.4
294411.7
294621.6
294895.8
295183.4
295501.1
296080.2
296455.4
296469.1
296385
293832.8
294222.1
294501.9
294348
294052.2
293996.5
293952
293941.9
293976.1
294017.1
294057.3
294110
294163.5
294208.5
294248.3
294298.7
294378.1
294482.5
294621.5
294823.7
295066.7
295339.4
295830.6
296154.6
296150.5
296059.8
293576.2
293902.5
294192.3
294075.6
293870.6
293874.8
293917.3
293992.3
294049
294077.1
294127.9
294198.3
294267.6
294338.7
294435.5
294564.1
294683.1
294796.6
294950.2
295145.3
295552
295812.4
295764.4
295650
293158.8
293738.4
293957.3
293916.9
293983.3
293871.1
293990.4
294078.7
294103.7
294138.4
294221.5
294311.7
294410.6
294556.4
294709.1
294822
294902.8
295220.3
295338.5
295550.5
295512.8
295176.7
293490
293480
293808.9