/*--------------------------------*- C++ -*----------------------------------*\
  =========                 |
  \\      /  F ield         | OpenFOAM: The Open Source CFD Toolbox
   \\    /   O peration     | Website:  https://openfoam.org
    \\  /    A nd           | Version:  6
     \\/     M anipulation  |
\*---------------------------------------------------------------------------*/
FoamFile
{
    version     2.0;
    format      ascii;
    class       volScalarField;
    location    "49.8";
    object      p_rgh;
}
// * * * * * * * * * * * * * * * * * * * * * * * * * * * * * * * * * * * * * //

dimensions      [1 -1 -2 0 0 0 0];

internalField   nonuniform List<scalar> 
238185
(
124219.9
124236.6
124239.6
124203.9
124294.1
124309.7
124304
124325.9
124343.7
124349.2
124301
124262.3
124422.6
124417.4
124387.3
124374.7
124363.9
124364.9
124373.6
124388.2
124395.2
124395.6
124366.9
124338.4
124568.3
124512.7
124488.9
124465.9
124437.5
124421.7
124408
124396.6
124395.5
124408.4
124416.8
124436.7
124439.2
124373.9
124641.4
124602.3
124567.8
124535.6
124501.1
124477.1
124453.8
124429.4
124414.8
124412.7
124413.5
124437.8
124459.3
124413.9
124822.4
124740.7
124691.5
124642.9
124598.6
124555.6
124521.2
124493.4
124462.4
124443.1
124432.7
124428.6
124443
124476.5
124486.3
124454.1
124889.7
124815.9
124755.7
124701.8
124645.4
124594.7
124559.2
124525.2
124482.2
124454.7
124445.3
124440
124445.1
124473.7
124502.4
124489.4
125094.4
124947.8
124871.5
124805.3
124743.9
124672.4
124629.3
124585.7
124548.7
124502.6
124468.7
124446.3
124453.1
124449.4
124470.7
124514.6
124548.2
124572.7
125128.4
124983.4
124899.4
124833.7
124765.4
124683
124654.6
124587.4
124557.7
124504.4
124483.4
124435.2
124457.5
124448.1
124463.7
124509.1
124562.3
124596.5
125145.6
124991.4
124904.8
124835.8
124764.2
124678.9
124648.1
124578.6
124547.5
124492.9
124471.4
124422.6
124445.8
124435.8
124452.5
124496.2
124552.6
124605
125158.2
124976.6
124886
124812
124742.1
124662.6
124612.2
124563.1
124522.5
124472.9
124436.9
124414.3
124423.1
124419.5
124443.1
124486.4
124531.1
124603.1
124960.4
124844.7
124767.5
124699.6
124631
124568.3
124524
124482.8
124434.9
124405.4
124396
124392.1
124399.7
124430.5
124465.3
124484.2
124921.7
124782.5
124706.4
124639.7
124580.1
124521.5
124473
124430.5
124397.6
124375
124363.8
124360.4
124378.2
124416
124438
124452.7
124720.3
124626.8
124567.6
124516
124462.7
124417.7
124367.1
124351.8
124328.7
124324.7
124325.4
124351.1
124385.5
124377
124665.5
124545.8
124494.3
124446.3
124395.9
124353.9
124306.9
124304.2
124288.9
124295.4
124304.3
124329.1
124350.3
124351
124489.6
124447.5
124374.4
124333
124290.4
124251.6
124261.6
124259.2
124261.5
124263.9
124271
124283.6
124320.8
124299.7
124235.6
124214
124225.4
124213.4
124189.5
124173.4
124190.3
124162.8
124154.7
124112.6
123819.2
123862
123907.4
123954.6
124013.7
124081.3
124158.5
124240.7
124325.1
124414.1
123862.8
123902.3
123906.3
123944
123984.8
124025.6
124070.6
124122.8
124180.5
124241.9
124319.3
124409.6
124468.6
124567.6
124009.7
123979.6
123986.9
123989.3
124017.7
124050.6
124093.3
124119.7
124157.7
124201.3
124247.5
124302.9
124383.4
124458.8
124559.6
124625
124143.5
124106.6
124092.8
124090.9
124089
124115.8
124121
124171.5
124196.5
124222.5
124266
124252.5
124287.9
124349.8
124415.3
124516.3
124628.5
124723.3
124321.4
124265.8
124225.5
124210.7
124214.9
124194.6
124231.7
124235.3
124223.4
124210.1
124217.9
124281
124287
124330.4
124327.2
124375.7
124464.3
124582.1
124718.3
124862.4
124524
124448.5
124392.4
124348.8
124338.8
124344.3
124329.7
124302.3
124271
124247.2
124235.4
124227.2
124232.2
124246.8
124319.3
124333.3
124389.2
124422.4
124527.9
124668.8
124846.7
125082.1
124644.7
124575.3
124517.8
124478.3
124476.6
124422.7
124380.6
124343.3
124317.5
124291.7
124270.2
124251.2
124238.5
124235.9
124249.9
124279.8
124368
124424
124494.1
124621.5
124805.7
125032
124920.2
124805.5
124710.6
124644.9
124601.4
124545.4
124482.8
124439.8
124399.8
124365.1
124333.3
124303.3
124275.7
124254.5
124241.3
124237.9
124256.3
124306.9
124411.8
124457.4
124589.5
124769.9
125005.1
125294.5
125058.7
124931.2
124827
124750.4
124702.8
124623.6
124552.5
124496.4
124448.4
124405.1
124366.4
124329.9
124295.5
124267.7
124247.9
124236.8
124243
124282.4
124392.6
124472.5
124571
124738.4
124973
125256.4
125198.2
125044.3
124934.2
124842.4
124745.8
124661.7
124596
124537.6
124483.1
124434.6
124391.1
124348.9
124308.1
124275.5
124252.4
124239.1
124240.1
124268.4
124333.7
124460.9
124544
124721.7
124950.8
125232.4
125313.1
125132.9
125004
124901.7
124800.4
124704.4
124630.4
124565.5
124505.7
124454.7
124407.1
124362
124317.6
124280.3
124253.8
124240.1
124236.7
124256.2
124311.7
124445.4
124565
124719.7
124937.9
125219.3
125401.7
125204.3
125060
124931.3
124808.2
124720
124646.8
124577.6
124514.6
124461.6
124409.7
124363.1
124318.3
124279.1
124249.7
124237.5
124233.1
124251.2
124302.4
124395.8
124564.7
124710.9
124930.7
125219.2
125437.4
125229.5
125077.1
124938.4
124813.7
124721.9
124645.3
124573
124507.2
124451.8
124397.9
124349.8
124303.8
124263.9
124234.3
124222.2
124218.1
124236.9
124288.2
124382.8
124556.8
124709.2
124937
125244.4
125418.9
125207.1
125056.3
124923.6
124812.8
124705.7
124623.5
124550.1
124482.6
124425.2
124372.5
124323.6
124276.7
124238.2
124211.9
124199.3
124198
124219.8
124277.4
124412.9
124546.4
124713.4
124955.3
125284.6
125364.2
125156.2
125016.2
124894.7
124772.4
124668.3
124586.2
124513.7
124447.1
124388.2
124336.4
124287.9
124243.7
124209.6
124187
124176
124180.9
124212.2
124282.7
124423.4
124532.3
124720
124976.9
125325.5
125272.7
125074.2
124936.9
124819.8
124729.1
124632.4
124538.1
124464.2
124400.3
124342.6
124291.2
124245.2
124206.8
124176.9
124157.5
124149.7
124161.3
124206.1
124324.8
124426.6
124551.2
124743
125003.8
125364.9
125194
124981.9
124849.9
124736.2
124651.8
124561.7
124471.4
124404.3
124343.8
124290.4
124240.3
124197
124165.2
124140.3
124127.2
124127.5
124151.1
124211.1
124333.6
124406.5
124568.1
124785.3
125044.8
125427.8
124863.8
124739.7
124627.3
124548.1
124497.4
124415.9
124345.7
124284.2
124235.3
124186.4
124147.3
124121.7
124102.7
124098.3
124113
124147.3
124244.1
124331
124430.1
124598.2
124830.6
125097.5
124771.1
124629.1
124519.6
124441.1
124387.3
124347.3
124302.2
124248.1
124189.6
124137.4
124102.6
124083.4
124077.7
124085.1
124147
124175.9
124250.3
124315.2
124453.1
124641
124882.4
125185.5
124527.3
124412.1
124337.8
124283.9
124248.3
124191.5
124190.4
124162.8
124121.2
124079.8
124068.4
124105.9
124107.7
124148.6
124156.7
124228.1
124340.4
124495
124698
124971.8
124330.8
124242.4
124190
124149.8
124112.7
124107.6
124074.8
124085.5
124077.8
124083.8
124103.9
124077.7
124108.5
124173.5
124251.4
124380.5
124552
124772.6
124163.2
124099.3
124071.6
124040.4
124034.5
124030.2
124041.2
124026
124043.7
124060.5
124086
124128.5
124209.6
124291.6
124434
124613.8
124021.9
124017.5
123983.8
123988.7
123998.9
124007.9
124011.2
124045.2
124070.6
124107.2
124166.6
124260
124341.9
124487
123913
123926.5
123947.7
123966.6
123980.2
124035
124082.2
124139.9
124202.4
124281.8
123813.8
123875.4
123974.7
124087.8
124212.1
124347.4
124477.8
124648.9
123590.3
123609.9
123702.7
123744.6
123805.1
123887.4
123981.3
124086.4
124203.4
124327.1
124461.3
124611.9
124777.6
124973.4
123638.8
123615.6
123638.8
123691.8
123734.9
123790.3
123859.2
123937.1
124025.1
124125.4
124238
124358.1
124487.1
124634.2
124797.7
124987.1
123700.4
123683.8
123677.7
123680.1
123684.7
123742.1
123783.1
123832.7
123887.8
123950.3
124020.8
124100.2
124188.3
124286
124406.6
124531
124681
124864.3
125045.4
125256.7
123879.1
123806.7
123773.5
123760.4
123783.6
123796.1
123804.6
123811.7
123839.3
123876.7
123920.8
123973.1
124033.2
124101.8
124190.2
124338.2
124442.7
124585.4
124737.7
124922.9
125150.1
125389.6
124067.8
123986.3
123927.9
123897.8
123902.2
123880
123859.5
123855.3
123867.1
123883.4
123907.4
123931.7
123965.5
124010.1
124060.8
124125.1
124212.1
124316.7
124494
124632.7
124804.2
125027.5
125285.6
125595.8
124185.3
124125
124076
124056.6
124013.1
123968.8
123951.8
123941.6
123944
123941.8
123950.8
123957
123971.1
124002.6
124028.6
124077.3
124141.1
124223.4
124348.8
124540.4
124701.7
124914.2
125185.4
125503.9
124430.3
124356.6
124289.3
124242.4
124177.5
124113.3
124079.5
124058
124035
124027.5
124015.5
124001.3
123987.3
123977.1
123988.6
124002.3
124042.2
124081.7
124150.4
124251.5
124397
124615.9
124816.1
125085.3
125422.9
125847.5
124740.1
124621.9
124523.3
124463.4
124367.8
124284.5
124231.5
124192.9
124159.4
124129.3
124101.5
124077.2
124049.7
124024.3
123999.3
123982.3
123977.5
124000.6
124032
124096.8
124176.6
124302.3
124477.9
124735.4
124991.6
125317.5
125716.7
126200.1
124890.1
124781.8
124686.8
124584.1
124473.9
124401.7
124345.2
124294.5
124243.6
124204.8
124165.7
124131.5
124095.8
124060.8
124027.2
123998
123976.9
123972
123988.1
124042
124125.5
124235.2
124394.5
124616.2
124925.6
125244.3
125640.5
126125.1
125066.3
124939.4
124843.8
124710.5
124594.2
124513.7
124445.2
124374.7
124317.7
124269
124222.6
124179
124135.5
124092.3
124050.7
124014
123984.4
123966.1
123966.6
124001.6
124082
124179.6
124333.7
124548.2
124869.4
125179.2
125593.4
126086.7
125524.3
125295.2
125114.5
124974.4
124805.7
124693
124603.1
124519.7
124443.2
124381
124322.9
124269.3
124218.4
124168.5
124118.9
124070.9
124027.6
123991.6
123965.7
123956.1
123976.7
124043.8
124148.1
124288.6
124492.5
124767.7
125145.1
125549
126033
126672.5
125728
125463.8
125253.2
125086.9
124904.9
124782.1
124677
124575.6
124494.9
124426
124363.4
124304.7
124248.9
124194.4
124140.1
124087.5
124039.9
123999.8
123970
123955.8
123966.8
124016.7
124118.6
124250.4
124452.9
124722.9
125117.5
125526.6
126005.3
126599.8
125891.7
125595.9
125364.7
125176.3
124983.8
124845.9
124723.7
124621.6
124535.8
124460.2
124392.2
124329.4
124270.1
124212.5
124155.3
124099.7
124048.6
124005.5
123972.8
123954.7
123959.1
123998.2
124091.2
124234.1
124428.2
124696.8
125099.3
125517.4
126009.7
126611.1
126006.3
125691
125444.7
125237.6
125037.8
124890.2
124755.5
124646.9
124556.9
124479.3
124408.2
124342.9
124281.1
124221.4
124162.6
124105.8
124052.7
124008.2
123974.4
123954.8
123957.9
123993.3
124076.1
124223.1
124412.7
124682.4
125091.2
125514.1
126015.4
126629
126052.1
125728
125475.2
125261.1
125056.1
124904
124764.5
124653.3
124559.6
124478.7
124404.8
124337.3
124273.6
124212.4
124152.5
124094.9
124041.3
123996.7
123962.8
123943.7
123947.5
123983.1
124066.2
124213.8
124406
124680
125096.3
125528.2
126040.9
126678.9
126026.2
125706.8
125457.7
125248.5
125038.6
124885
124745.9
124634.1
124537.3
124452.8
124377.1
124308
124243.7
124182.2
124122.2
124064.8
124012.9
123969.8
123937.7
123921.1
123927.7
123967.9
124062.5
124208.3
124410.5
124692.5
125117
125558.1
126079
126735.3
125947.3
125642
125402.2
125199.3
124988.1
124839.7
124712.4
124593.1
124496.5
124412.1
124336.5
124267.2
124203
124142
124083.1
124027.9
123979
123939
123910.7
123898.9
123912.9
123966.1
124073.6
124215.8
124431.8
124724.4
125155.1
125594.6
126111.4
126778.2
125833
125538.3
125307.8
125119.7
124914.4
124768.2
124648.5
124538.1
124443.1
124359.2
124283.5
124215.3
124152.2
124092.4
124036
123984.4
123939.5
123903.8
123880.7
123875.7
123899.7
123972.3
124086.8
124245.4
124472
124778.6
125203.7
125641.4
126167
126899.7
125378
125171.8
125015.4
124844.6
124685.1
124570.2
124472.1
124375.6
124293.8
124221.8
124156.1
124095.6
124038
123984.9
123938
123898.5
123869.5
123854.8
123861.4
123901.3
123990
124104.7
124285.2
124531.7
124892.4
125254.7
125711
126262.6
125232.7
125038.8
124891.3
124738.6
124584
124474.3
124385.2
124301.4
124224.4
124157.8
124095
124038.2
123983
123933.9
123891.8
123857.9
123837.1
123834.9
123854.9
123913.9
124009.7
124143.8
124338.8
124601.2
124957
125343.9
125785.1
126350.6
125101.2
124894.9
124744.4
124638.2
124500.2
124375.9
124290.2
124219
124151.8
124092.9
124039.2
123986.6
123933.9
123888.3
123850.7
123825.4
123816.9
123835
123867.9
123939.5
124037.8
124194.6
124413.8
124720.7
125033
125439.2
125899.7
126506.6
124721.6
124582.8
124489.6
124397.4
124293
124193.5
124127.4
124074.3
124021.8
123981.8
123939.7
123898.1
123857.8
123827.6
123819.7
123821.9
123851.7
123889.8
123969.2
124092.2
124272.3
124537.7
124804.2
125148.6
125575.9
126118.3
124413.3
124332.4
124258.8
124206.3
124126.2
124044.7
123994.8
123953.5
123925.5
123891.9
123866.6
123843
123830.7
123834.8
123839.1
123874.5
123934.3
124025.5
124171.8
124394.9
124613.4
124908.9
125268.5
125707.1
124322.6
124212.7
124130.5
124076.7
124047.7
123990.7
123934.3
123896.4
123876.7
123860.8
123850.4
123841.3
123845.3
123858.2
123882.1
123928.1
124006.8
124114.3
124303.3
124481.4
124719.8
125014.7
125382.7
125847.2
124122.9
124022.8
123961
123928.8
123924.3
123902.2
123880.8
123851
123847.3
123851.3
123861
123883.6
123911.7
123952.4
124018.3
124148.6
124251.9
124404.1
124601.8
124837.5
125147.8
125527.3
123924.4
123891.3
123849.7
123834.2
123807.9
123838.3
123846.5
123868.3
123892.3
123918.8
123961.5
124009.8
124070.7
124145.6
124244.3
124359.6
124519.2
124742
124980.4
125276.5
123818.8
123773.1
123764.9
123789.3
123799
123826.3
123864.4
123905.7
123974.3
124042.8
124128
124225.2
124331.9
124473.7
124647.1
124850.4
123729.3
123726.1
123782.8
123799.7
123831.6
123883.7
123944
124029.9
124110.4
124204.9
124321.9
124446.5
124596.5
124769.4
123834.3
123867.9
123936.2
124019.2
124113.4
124206.1
124309.1
124447.2
123963
124043.2
124187.1
124349.6
124509.2
124721.8
123520.7
123554.7
123641.8
123782.9
123836.8
123928.9
124055.1
124195.3
124337
124493.4
124684.4
124867.7
125040.5
125246.6
123437.3
123472.7
123480.3
123509.6
123577.9
123679.2
123749.1
123841.5
123952.2
124076.5
124210.4
124349.9
124499.9
124670.9
124843.9
125032
125241.7
125481.4
123493.6
123434.8
123440.4
123471.3
123503.5
123558.4
123622.9
123670.4
123745
123835.1
123939.6
124058
124190.8
124360.8
124508.8
124677.5
124861.1
125064.6
125278.4
125516
123563.5
123509.4
123466.4
123489.3
123493
123499.2
123533.8
123572.6
123619.5
123679.9
123751.8
123836.2
123934.7
124049.1
124181.8
124327.5
124500.9
124719.5
124907.1
125121.2
125342.1
125585
123706.6
123636.4
123595.3
123559.5
123548.2
123520.5
123520.5
123544.3
123572.6
123609.3
123654.8
123708.8
123772.7
123848.3
123938.1
124046.3
124178.7
124333.9
124526.1
124776.4
124975.5
125194.3
125455.7
125723.5
123907.5
123829.8
123769.3
123697
123633.2
123598.3
123582.8
123578.9
123585.7
123600.6
123621.3
123648.9
123683.6
123726.6
123780
123845.8
123931.4
124046.3
124179.8
124351.5
124552
124780.9
125065.4
125305.4
125612.6
125951.1
124163.4
124061.6
123995.3
123893.2
123795.3
123735.2
123694.1
123666.3
123653.3
123648.4
123652.3
123659.7
123671
123685.9
123707.2
123738.4
123780.9
123841.8
123925.8
124038.3
124193.7
124376.8
124595.7
124864.8
125183
125472.8
125850.9
126267.9
124446.8
124335.2
124234.2
124140.9
124010.3
123920
123853.7
123801.4
123766.6
123745.5
123731.8
123724.5
123718.9
123713.9
123711
123710.4
123719.2
123737.1
123775.3
123834.9
123922.1
124050
124223.7
124434.2
124692.9
125004.3
125363.5
125739.7
126147.6
126598.7
124607.7
124507.4
124402
124279.1
124149
124050.4
123972.5
123916.3
123877.1
123848.2
123824.9
123804.7
123787
123767.6
123749.7
123730.5
123717.2
123711.7
123728.8
123765.1
123832.1
123934.9
124086.2
124292
124545.7
124862
125274
125632.9
126069.9
126534.1
124994
124827.7
124708.2
124554.7
124402.2
124280.3
124173.5
124093.8
124034.1
123988.2
123948.8
123915.7
123883.6
123854.7
123821.1
123786.4
123752.3
123723.2
123702.9
123698.7
123713.7
123763.8
123846
123974.9
124162
124413
124723.3
125104.6
125555.9
125969.4
126454.1
127001.3
125188.2
125022.7
124874.1
124683.3
124534.4
124399.5
124292.3
124210
124144.5
124088.3
124040.4
123999.1
123955.8
123912.9
123867.8
123821.3
123775.6
123734.3
123701
123681
123680.5
123711.6
123780.4
123891
124060.6
124299
124610
124982.4
125424.6
125916.4
126408.1
126941.6
125421.2
125229.8
125020
124815.1
124654.7
124513.4
124404.1
124315.5
124242.2
124175.8
124121.6
124068.6
124016.1
123963.9
123910.1
123854.7
123799.9
123749.1
123705.5
123673.6
123660
123675.6
123732.7
123828.4
123982.8
124208.4
124515.5
124891.4
125343.2
125862.4
126390.7
126936.8
125646.1
125422.5
125185.8
124956.9
124773.8
124619.4
124500.8
124405
124321.6
124249.6
124187.8
124126.7
124067.1
124008.2
123948.1
123886.5
123825
123767
123715.8
123675.4
123652.1
123654.7
123696.7
123783.8
123922.9
124135.4
124431.9
124816.8
125280.3
125843
126366.9
126961.4
126301.8
125918
125609
125303.2
125070.6
124875
124712.6
124584.7
124479.7
124386.9
124310.5
124240.1
124173.5
124109
124045.5
123981.2
123915.1
123849.1
123786.2
123729.4
123682.5
123651.7
123644.7
123674.5
123751.1
123878.1
124080
124369.2
124756.5
125222.5
125764.2
126353.3
126919.3
127552.7
126474
126076.2
125741.9
125415.5
125167
124958.5
124787.4
124649.9
124534.6
124437.2
124355
124279.3
124208.3
124140.2
124073.6
124006.4
123937.6
123868.6
123802.3
123741.7
123690.4
123654.3
123641.3
123662.3
123728
123851.3
124043.6
124328.7
124717.5
125187.7
125740.9
126359.8
126926.7
127512.6
126603.7
126183.3
125831.3
125492.9
125234.4
125016.7
124838.1
124693.4
124571.7
124471.6
124384.3
124306.1
124232.8
124163
124094.7
124026.1
123956
123885.6
123817.5
123754.9
123701
123662
123645.6
123661.6
123721.3
123841.4
124026.9
124309.6
124698.6
125170.8
125733.1
126370.1
126954.6
127549
126652.5
126225.1
125867.3
125524.1
125261.4
125039.5
124856.3
124707.6
124582.5
124479.3
124389.1
124308.5
124233.4
124162.2
124092.9
124023.4
123952.7
123881.8
123813.2
123749.9
123695.6
123656.1
123638.9
123654.3
123713.5
123833.2
124020.4
124305.9
124698.3
125175.9
125746.3
126395.4
126996.6
127618.1
126625.1
126207
125853.1
125510.6
125247.3
125024.1
124836.9
124685.1
124558.6
124452.1
124361.1
124278.4
124201.9
124129.8
124060.1
123990.5
123919.9
123849.5
123781.9
123719.9
123667.3
123630.4
123616.2
123636.1
123702
123826.3
124024.6
124319.7
124720.3
125206.5
125782
126431.4
127039.1
127691.4
126566.8
126149.9
125793.4
125460.2
125198.8
124975.4
124787.1
124636
124512.4
124404.7
124314.2
124231.2
124154.6
124082.4
124013
123944.2
123874.8
123806.2
123740.9
123682
123633.4
123601.7
123595.1
123624.5
123703
123836
124050.5
124358.7
124768.9
125262.4
125838.9
126473.2
127104.6
127857.8
125993
125675.7
125400.4
125122.7
124900.3
124713.3
124564.3
124443.9
124340.1
124249.6
124169.8
124094.1
124023.1
123955.1
123888
123821.1
123755.8
123694.7
123640.8
123598.5
123574.6
123579.3
123623
123715.1
123866.6
124098.7
124423
124841.3
125342.2
125951
126531.1
127213
125827.7
125549.2
125276.9
125011.1
124802.4
124625.6
124479.5
124361.6
124263.9
124174.7
124098.5
124025.6
123957.1
123891.5
123826.9
123763.6
123702.9
123647.4
123600.5
123567.1
123554.4
123573.1
123634.4
123740.8
123915.4
124168.9
124511.7
124928.9
125427.6
126007.7
126613
127234.8
125615.9
125365.1
125149.6
124897.9
124702.7
124528.2
124384
124269.6
124176.6
124093.7
124020.2
123954.5
123889.8
123827.7
123766.5
123707.4
123652.2
123603.7
123565.5
123543.5
123545.6
123580.2
123656.7
123785
123983.3
124258.3
124613.3
125039.5
125539.8
126104.6
126674.1
127285.2
125427
125172.3
124998.6
124794.7
124592.6
124429.8
124288.4
124175.3
124085.3
124010.5
123942.1
123881.8
123823.3
123769.4
123712.8
123658.8
123610
123570
123542.7
123535
123550.1
123603.7
123697.9
123851.8
124075.5
124370.8
124735.6
125185.6
125709.1
126201.7
126764
127407.1
124950.4
124802.6
124655.8
124494.8
124328.7
124193.5
124083.4
123995.2
123924.8
123865.8
123813.3
123762.8
123715.9
123667.6
123624.1
123583.7
123554.7
123537.2
123545.6
123576.9
123648.5
123767.4
123947.8
124192.9
124497.1
124881.5
125374.1
125814.3
126353.2
126913
124783.3
124629.7
124505.5
124379
124216.1
124097.9
123999.4
123914.7
123847.2
123794
123749.1
123710.5
123673.6
123635.6
123602.3
123574.5
123560.8
123558.8
123581.6
123631.9
123723
123866.6
124066.2
124316.4
124635.8
125021.7
125466.7
125956.2
126467
127067.3
124461.1
124338.9
124258.8
124129.4
124003.4
123915.7
123841.8
123781.6
123736
123698.5
123670
123645.5
123623.4
123605.1
123595.1
123596.9
123612.6
123652
123723.3
123835.2
123997.7
124201.9
124463.9
124796.6
125192
125581.3
126096.6
126678.2
124190
124104.9
124026.9
123928.3
123837.3
123773
123726.4
123691
123666.6
123648.6
123637.7
123633.6
123635.7
123646.2
123667.4
123703.6
123764.3
123859.2
123983.6
124154.2
124373.1
124641.9
124980
125296.7
125742.3
126250.9
123978.6
123899.4
123836.3
123778.1
123739.4
123678.8
123649.1
123643.8
123642.2
123650.2
123665
123688.4
123721.7
123765.2
123824.6
123905.9
124015.3
124155.3
124344
124603.6
124834.3
125096
125455.8
125867.9
123816.4
123747.9
123684.1
123684.4
123657.2
123631.4
123637.4
123647.8
123667.3
123697.9
123740.4
123795.9
123862.6
123946.6
124053.3
124179.6
124340.6
124552.3
124734.8
124970.2
125242.7
125561.3
123720.2
123643.3
123624.4
123625.6
123631.4
123659.3
123693.5
123710.4
123755.8
123818.1
123893.9
123980.6
124085.2
124230.9
124362.2
124514.2
124682.5
124877
125108
125346.7
123630.7
123630
123616.2
123618.4
123656.3
123725.4
123766.3
123833.2
123916.6
124009
124109.8
124224.2
124345.2
124487.9
124641.2
124823.1
125013.6
125226.9
123633.9
123645.4
123697.1
123788.3
123818
123887.5
123985.3
124082.3
124189.6
124323.3
124471.9
124630.6
124780.3
124962.2
123897.2
123967.4
124083.6
124181.5
124300.5
124470
123655.9
123736
123879.8
123994.1
124154.9
124338.1
124503.4
124683.7
124893.9
125126.8
123378.9
123428.2
123528.5
123570.7
123653.2
123778.7
123888.6
124028.4
124184.9
124342.4
124507.8
124707.9
124901.6
125085.3
125271.9
125506
123378.3
123336.3
123380.4
123437.4
123501.2
123588.1
123695.3
123786.3
123909.6
124049.7
124199.6
124375.5
124538.4
124721.5
124896.3
125073.8
125298.3
125549.2
123311.7
123327.8
123324.3
123316.4
123355.2
123384.5
123440.9
123516.5
123594.2
123678.7
123784.3
123906.8
124043.5
124194.5
124347.7
124523.6
124711.1
124927.9
125117
125332.5
125560.1
125802.8
123440.1
123360.4
123341.1
123312.5
123298.4
123318.3
123345.5
123385
123438.1
123492.3
123558.5
123641.5
123741.6
123859.7
123997
124150.4
124319.8
124512.5
124721
124938.5
125184.9
125387.2
125627.9
125872.7
123574.6
123489.5
123435.3
123380.1
123316.3
123303
123309.3
123323.9
123346.7
123376.5
123412.1
123459.6
123520.4
123596.3
123689.8
123803.8
123940.4
124102.4
124295.3
124513.4
124741.1
124991
125261
125482.3
125736.7
125993.3
123784
123682
123605.7
123516
123418.3
123360.3
123336.4
123325.1
123325.6
123334.7
123350.9
123371.8
123402.2
123442
123493.8
123560.7
123646.7
123756.6
123897.5
124070.7
124284.4
124527
124785.6
125066
125368
125605.6
125901.3
126215.6
124045.9
123933.3
123835.2
123721
123587.9
123491.4
123427.5
123389.3
123367.2
123359.1
123356.7
123361.9
123369.6
123382.2
123400.8
123428.6
123469.5
123527.7
123608.9
123719.4
123865.1
124056
124285
124552.8
124854
125167.6
125501.9
125774.7
126114.8
126493
124184.5
124100.7
123969.5
123818.4
123688.1
123587.9
123516.8
123468
123438.3
123422.4
123410.5
123402.6
123396.7
123392.4
123391.2
123396
123411.2
123441
123492.6
123573.2
123690.2
123850.5
124057.7
124313.1
124622.2
124966.7
125323.2
125704.2
126033
126436.3
124539
124423.7
124264.1
124087.5
123937.8
123806.6
123702.4
123623.5
123568.4
123533
123506.5
123484.9
123465.6
123446.9
123426.8
123406.9
123389.8
123381
123384.7
123408.7
123459.5
123547.6
123679.7
123861.6
124100.6
124400.2
124759.1
125149.6
125558.3
125983.7
126378.7
126861.6
124910.3
124770
124599
124394.1
124218.4
124063.8
123934.4
123825.2
123741.8
123683
123639.1
123604
123572.9
123541.5
123509.5
123475.5
123441.2
123406.4
123375
123354
123352.3
123376.1
123437.6
123542.9
123700.2
123917.6
124204.8
124564.3
124984.3
125422.1
125871.6
126309.1
126763.6
127257.9
125103.2
124966.1
124761.8
124540.9
124351.9
124194.2
124060.2
123950.1
123865.8
123800.2
123748.9
123705.3
123663.8
123621.4
123578.9
123531.4
123479.9
123428.3
123381.6
123345.2
123320.8
123319.2
123355.6
123438.1
123570.6
123765.5
124033.1
124384.2
124813.3
125297.3
125785.6
126283.2
126701.6
127177.2
125359.2
125178.5
124909.8
124683.1
124485.5
124321.5
124182.4
124073.3
123984.1
123912.5
123853.4
123803
123752.8
123699.8
123644.6
123585.7
123522.4
123457.9
123397.6
123345.9
123306.9
123290.2
123303.9
123362
123472.2
123644.4
123892.3
124230
124652.5
125157.2
125687.5
126202
126703.3
127214.2
126061.5
125695.5
125406
125079.4
124820
124612.1
124438.7
124297.7
124186.4
124092.7
124015.2
123950.4
123893.6
123832.6
123770.4
123706.7
123639.6
123567.8
123494.1
123423.5
123359.9
123307.9
123276.2
123275
123312.9
123401.4
123552
123780.6
124101.1
124523.1
125036
125601.7
126156.1
126687.9
127197.1
127783.7
126307.1
125957.6
125594.6
125235.2
124958.9
124736.6
124552.6
124406.7
124287.8
124188.8
124105.4
124036.5
123971.3
123903.3
123834.3
123764.5
123691.6
123613.8
123533.5
123455.6
123383.2
123320.7
123276.3
123260.2
123279.7
123347.8
123478.2
123687.8
123994.3
124412.8
124931.9
125535.9
126128.1
126685.4
127212
127738.8
126563.3
126166.9
125793
125395.7
125087.6
124845.4
124652.3
124500.7
124375.3
124270.2
124182.5
124109.7
124037.2
123964.3
123890.7
123816.8
123740
123658
123573.2
123490
123411.2
123340.2
123285.1
123255.8
123261.3
123310.9
123422
123614.2
123907.8
124318.7
124838.6
125467
126112.5
126716.1
127200.5
127732.4
126786.9
126340.8
125901
125517.6
125196.8
124939.1
124735.6
124576.3
124444.3
124333.5
124243
124164.3
124088.2
124011.9
123935.5
123859.2
123779.9
123695.3
123607.6
123520.7
123437.2
123360.1
123297.1
123258.3
123252.5
123289.8
123386.1
123565.4
123847.9
124251.3
124769.5
125409.9
126082.6
126682.3
127231.4
127776.9
126929.8
126454.3
125994.6
125603.3
125273
125006
124795.2
124629.2
124492.6
124379.1
124287.6
124205.3
124128
124050.5
123973.1
123896
123815.7
123729.8
123640.5
123551.5
123464.9
123384
123316.1
123271
123258.1
123289.5
123376.8
123547.6
123823.3
124222.3
124739.7
125387.2
126075.7
126693
127268.3
127833.3
126977.3
126497
126034.7
125640
125305.3
125034.3
124819.9
124649.4
124509
124393
124299.3
124215.7
124137.3
124059.4
123981.8
123904.5
123824
123737.9
123648.1
123558.2
123470.3
123387.7
123317.8
123270.5
123255.4
123285.1
123371
123541.3
123817.5
124218.1
124739.2
125393.7
126092.9
126723
127315
127910.2
126938.7
126475.1
126026.8
125628.4
125292
125019
124801.2
124626.7
124482.8
124364
124267
124183.2
124103.4
124024.9
123947.1
123869.7
123789.4
123703.7
123614.4
123524.9
123437.6
123356.3
123288.6
123244.5
123234
123268.4
123363.2
123543.5
123830.8
124242.8
124774.6
125437.5
126140
126772.9
127362.5
127977.1
126835.1
126398.7
126011
125577.2
125240
124968.7
124750
124574
124428.7
124308.7
124209.2
124126.5
124045.8
123967
123889.3
123812.2
123732.5
123647.9
123560
123472.3
123387.8
123310.7
123249.2
123213.6
123214.7
123261.7
123374.3
123573.7
123880.3
124309.6
124854.9
125520.4
126212.2
126869.1
127412.8
128054.4
126690.7
126297.5
125893.1
125474.3
125156.1
124890.8
124672.4
124496
124351.3
124232.1
124132.6
124049.6
123972.1
123894.2
123817.9
123742.3
123664.6
123582.4
123497.6
123413.9
123334.5
123264.4
123212.6
123190
123206.5
123273.9
123409.9
123632.7
123960.5
124407.3
124963.6
125616.7
126266.7
126893.8
127502.6
128115.9
126529.5
126108
125753.6
125358.6
125046.2
124788.4
124575.7
124400.9
124259.9
124142
124044.1
123961
123888.3
123812.5
123738.5
123665.2
123590.2
123511.6
123431.3
123353.4
123281.7
123221.3
123182.3
123176.1
123211.8
123303.4
123466
123715.6
124066.6
124526.6
125088.3
125715.4
126339.9
126950.8
127537.1
128220.1
125830.3
125552.6
125208.1
124922
124676.3
124473.4
124300.9
124161.7
124046
123950.8
123869
123798.1
123728.9
123658.8
123588.6
123516.9
123442.5
123367.9
123297.6
123236.1
123188.4
123164.7
123175.6
123232.5
123350.8
123542.3
123820.1
124198.4
124671
125237.8
125838.5
126427.9
127011.9
127623.8
125578.4
125350.6
125077.6
124795
124563.2
124368
124201
124061.3
123949.6
123857.6
123780.6
123711.8
123646.7
123581.3
123518.4
123451.7
123382.8
123315.4
123254.3
123205.5
123172.2
123164.2
123197.6
123280.7
123427
123648.4
123955.5
124359.2
124853.7
125411.7
125977.1
126559.4
127057.9
127652.2
125366.5
125151.6
124918.4
124664
124450.2
124264.5
124105.3
123966.5
123855.1
123768.2
123695.9
123632.9
123574.5
123515.4
123457.2
123397.4
123339.9
123282.7
123231.7
123193.3
123180.5
123196.7
123252.9
123362.6
123537.6
123787.1
124120.9
124544
125040.5
125561.3
126099.2
126629.9
127199
127819.8
124898.3
124748.3
124557
124348
124169.1
124009.8
123878.7
123771.2
123686.3
123621
123564.4
123513.2
123464.1
123415.9
123365.3
123316.7
123271
123237.5
123219.1
123226.2
123264
123345.6
123482.2
123682.6
123955.9
124308.8
124739.5
125213
125716.5
126239.7
126744.4
127385.7
124510.5
124406.3
124252.9
124077.7
123922.2
123796.9
123698.4
123619
123558.5
123512.1
123469.8
123431.2
123394.5
123358.8
123326.5
123299
123284
123286.3
123314.4
123375.9
123483.5
123644.6
123866.7
124157
124523
124941
125384.4
125866.6
126305.8
126877.8
124379.9
124252.2
124138
124005.1
123847.4
123725.2
123635
123566.8
123514.2
123476
123444.3
123420.7
123398.1
123379.6
123367
123361.9
123369.3
123396.5
123450.1
123537.9
123668.1
123855.1
124094.2
124393.8
124743.7
125123.1
125544.4
125916.6
126410.3
126968.6
124100.2
123990.6
123901.9
123792
123667.6
123582.9
123528.9
123486.7
123458.8
123440.3
123430.7
123424.7
123425
123434.4
123454.6
123488.1
123541.7
123622.4
123739.9
123895.8
124101.9
124348.3
124629.8
124944.1
125296.3
125606.3
126039.7
126537.7
123876
123783.8
123714.6
123635.2
123542.3
123499.5
123472.3
123458.7
123456.8
123462.4
123473
123493.6
123526
123570.7
123630.8
123712.8
123821.3
123961.9
124138
124344.4
124570.5
124832.2
125122.5
125372.3
125718.1
126112.1
123718.4
123633.1
123591.4
123533.3
123486.6
123473.3
123473.4
123488.5
123516.1
123544.9
123585.6
123641.3
123709.8
123794.5
123900.9
124028.5
124178.2
124353.2
124548.7
124762.6
125015.2
125217.2
125497.6
125795.5
123572.4
123563.1
123528.8
123494.8
123500.7
123498.3
123527
123575.2
123625.3
123684.7
123761.9
123850.8
123954.1
124075.4
124204.9
124359.4
124529.4
124733.1
124917.4
125128.9
125341.8
125592.2
123563.2
123498.7
123512.1
123537.5
123572.5
123629.7