/*--------------------------------*- C++ -*----------------------------------*\
  =========                 |
  \\      /  F ield         | OpenFOAM: The Open Source CFD Toolbox
   \\    /   O peration     | Website:  https://openfoam.org
    \\  /    A nd           | Version:  6
     \\/     M anipulation  |
\*---------------------------------------------------------------------------*/
FoamFile
{
    version     2.0;
    format      ascii;
    class       volScalarField;
    location    "49.8";
    object      rhok;
}
// * * * * * * * * * * * * * * * * * * * * * * * * * * * * * * * * * * * * * //

dimensions      [0 0 0 0 0 0 0];

internalField   nonuniform List<scalar> 
238185
(
0.9996739
0.9996735
0.9996719
0.9996703
0.999669
0.9996685
0.9996675
0.9996648
0.9996622
0.9996592
0.9996563
0.9996548
0.9996632
0.9996627
0.9996623
0.9996598
0.9996579
0.9996556
0.9996532
0.9996509
0.9996487
0.9996466
0.9996447
0.9996438
0.9996563
0.9996561
0.9996541
0.9996527
0.999651
0.9996493
0.9996475
0.9996458
0.9996443
0.9996429
0.9996417
0.9996407
0.9996398
0.9996391
0.9996481
0.9996471
0.9996461
0.999645
0.9996438
0.9996427
0.9996416
0.9996407
0.9996398
0.9996391
0.9996385
0.9996379
0.9996375
0.999637
0.9996421
0.9996422
0.999641
0.9996404
0.9996398
0.9996392
0.9996387
0.9996381
0.9996377
0.9996373
0.999637
0.9996367
0.9996364
0.9996362
0.999636
0.9996356
0.9996384
0.9996381
0.9996379
0.9996376
0.9996374
0.9996372
0.9996369
0.9996368
0.9996366
0.9996365
0.9996363
0.9996363
0.9996362
0.9996361
0.999636
0.9996359
0.9996374
0.9996374
0.9996372
0.9996371
0.999637
0.9996369
0.9996368
0.9996367
0.9996367
0.9996366
0.9996365
0.9996365
0.9996364
0.9996364
0.9996364
0.9996363
0.9996362
0.9996358
0.9996376
0.9996375
0.9996375
0.9996374
0.9996373
0.9996373
0.9996372
0.9996371
0.9996371
0.999637
0.9996369
0.9996369
0.9996368
0.9996368
0.9996367
0.9996367
0.9996366
0.9996364
0.999638
0.999638
0.9996379
0.9996378
0.9996377
0.9996376
0.9996376
0.9996375
0.9996374
0.9996373
0.9996373
0.9996372
0.9996371
0.9996371
0.999637
0.9996369
0.9996368
0.9996366
0.9996387
0.9996387
0.9996385
0.9996383
0.9996382
0.9996381
0.999638
0.9996379
0.9996377
0.9996376
0.9996375
0.9996374
0.9996373
0.9996372
0.9996372
0.9996371
0.9996369
0.9996364
0.9996398
0.9996396
0.9996394
0.9996392
0.999639
0.9996388
0.9996386
0.9996384
0.9996382
0.999638
0.9996378
0.9996377
0.9996375
0.9996374
0.9996372
0.999637
0.9996422
0.9996422
0.9996416
0.9996413
0.9996409
0.9996406
0.9996403
0.9996399
0.9996396
0.9996393
0.999639
0.9996387
0.9996384
0.9996381
0.9996377
0.9996373
0.9996451
0.9996447
0.9996443
0.9996439
0.9996434
0.9996429
0.9996425
0.999642
0.9996415
0.999641
0.9996406
0.9996402
0.9996398
0.9996393
0.9996489
0.9996489
0.999648
0.9996476
0.999647
0.9996463
0.9996457
0.9996451
0.9996444
0.9996438
0.9996432
0.9996425
0.9996419
0.9996413
0.9996522
0.9996521
0.999652
0.999651
0.9996503
0.9996495
0.9996487
0.9996479
0.999647
0.9996461
0.999645
0.9996445
0.9996551
0.9996551
0.9996549
0.9996538
0.999653
0.9996519
0.9996505
0.9996498
0.999658
0.9996581
0.9996576
0.9996567
0.9996995
0.9996989
0.9996971
0.9996952
0.9996932
0.9996912
0.9996892
0.9996873
0.9996856
0.9996841
0.9996996
0.9996989
0.9996975
0.9996959
0.999694
0.999692
0.9996899
0.9996876
0.9996852
0.9996827
0.99968
0.9996769
0.9996736
0.9996717
0.9996977
0.9996971
0.9996955
0.9996938
0.9996918
0.9996896
0.9996873
0.9996849
0.9996822
0.9996792
0.9996762
0.9996729
0.9996695
0.9996661
0.9996628
0.99966
0.9996948
0.9996942
0.9996924
0.9996905
0.9996884
0.9996862
0.9996837
0.9996803
0.9996783
0.9996753
0.999672
0.999668
0.9996645
0.9996611
0.9996577
0.9996546
0.9996516
0.9996494
0.9996895
0.9996893
0.9996872
0.9996852
0.999683
0.9996805
0.9996769
0.9996755
0.999673
0.9996693
0.9996658
0.9996624
0.9996598
0.9996567
0.999653
0.9996502
0.9996477
0.9996455
0.9996434
0.9996419
0.9996809
0.9996813
0.999679
0.9996769
0.9996747
0.9996713
0.9996707
0.9996686
0.9996655
0.9996626
0.9996595
0.9996565
0.9996536
0.999651
0.9996485
0.9996469
0.9996449
0.9996426
0.9996411
0.9996397
0.9996385
0.9996376
0.9996692
0.999668
0.9996663
0.9996642
0.9996615
0.9996619
0.99966
0.9996578
0.9996554
0.999653
0.9996506
0.9996484
0.9996464
0.9996446
0.999643
0.9996417
0.9996403
0.9996394
0.9996381
0.9996372
0.9996365
0.9996358
0.9996568
0.9996576
0.9996553
0.999654
0.9996528
0.9996518
0.9996514
0.9996502
0.9996486
0.9996469
0.9996453
0.9996438
0.9996425
0.9996413
0.9996402
0.9996393
0.9996386
0.9996379
0.9996371
0.9996364
0.9996358
0.9996353
0.9996348
0.9996342
0.9996464
0.9996462
0.9996458
0.9996451
0.9996443
0.9996447
0.9996438
0.999643
0.9996421
0.9996412
0.9996403
0.9996396
0.9996389
0.9996383
0.9996378
0.9996373
0.999637
0.9996366
0.9996362
0.9996358
0.9996352
0.9996348
0.9996344
0.999634
0.9996401
0.99964
0.9996398
0.9996397
0.9996396
0.9996397
0.9996395
0.9996391
0.9996387
0.9996384
0.999638
0.9996377
0.9996374
0.9996372
0.999637
0.9996369
0.9996367
0.9996366
0.9996364
0.999636
0.9996355
0.9996351
0.9996347
0.9996343
0.9996383
0.9996382
0.9996381
0.999638
0.9996381
0.9996381
0.999638
0.9996379
0.9996378
0.9996377
0.9996376
0.9996375
0.9996374
0.9996373
0.9996372
0.9996372
0.9996371
0.999637
0.9996369
0.9996365
0.999636
0.9996356
0.9996351
0.9996347
0.9996383
0.9996382
0.9996381
0.9996381
0.9996382
0.9996383
0.9996382
0.9996382
0.9996382
0.9996381
0.999638
0.999638
0.9996379
0.9996379
0.9996378
0.9996377
0.9996377
0.9996376
0.9996374
0.9996371
0.9996365
0.9996359
0.9996353
0.9996348
0.9996388
0.9996388
0.9996387
0.9996386
0.9996388
0.9996388
0.9996388
0.9996388
0.9996387
0.9996386
0.9996385
0.9996385
0.9996384
0.9996383
0.9996382
0.9996381
0.9996381
0.999638
0.9996378
0.9996373
0.9996367
0.999636
0.9996354
0.9996348
0.9996397
0.9996396
0.9996395
0.9996394
0.9996395
0.9996395
0.9996394
0.9996393
0.9996392
0.999639
0.9996389
0.9996388
0.9996386
0.9996385
0.9996384
0.9996383
0.9996381
0.999638
0.9996377
0.9996372
0.9996366
0.999636
0.9996354
0.9996348
0.9996412
0.9996411
0.9996409
0.9996407
0.9996407
0.9996408
0.9996407
0.9996405
0.9996402
0.99964
0.9996397
0.9996394
0.9996392
0.9996389
0.9996387
0.9996385
0.9996382
0.999638
0.9996376
0.999637
0.9996364
0.9996358
0.9996353
0.9996348
0.9996443
0.9996442
0.999644
0.9996437
0.9996433
0.9996435
0.9996432
0.9996429
0.9996425
0.999642
0.9996416
0.9996411
0.9996407
0.9996403
0.9996399
0.9996395
0.9996391
0.9996386
0.999638
0.9996375
0.9996367
0.9996361
0.9996356
0.9996351
0.9996487
0.9996488
0.9996478
0.9996474
0.999647
0.9996468
0.9996468
0.9996464
0.9996459
0.9996452
0.9996446
0.9996439
0.9996433
0.9996427
0.9996421
0.9996415
0.9996409
0.9996403
0.9996394
0.9996386
0.9996379
0.9996372
0.9996366
0.9996359
0.9996539
0.9996533
0.9996527
0.999652
0.9996511
0.9996514
0.9996508
0.9996501
0.9996493
0.9996484
0.9996475
0.9996466
0.9996458
0.999645
0.9996442
0.9996434
0.9996424
0.9996416
0.9996405
0.9996396
0.9996388
0.9996381
0.9996602
0.9996604
0.999659
0.999658
0.999657
0.9996556
0.9996557
0.999655
0.9996539
0.9996528
0.9996517
0.9996505
0.9996495
0.9996484
0.9996472
0.9996464
0.9996452
0.9996438
0.9996427
0.9996417
0.9996407
0.9996398
0.9996664
0.9996666
0.9996651
0.9996638
0.9996626
0.9996613
0.9996593
0.999659
0.999658
0.9996564
0.9996549
0.9996535
0.9996525
0.9996511
0.9996493
0.9996479
0.9996466
0.9996454
0.9996441
0.9996429
0.9996722
0.9996723
0.9996706
0.9996692
0.9996676
0.9996661
0.9996646
0.9996624
0.9996617
0.9996602
0.9996585
0.9996563
0.9996547
0.9996531
0.9996515
0.99965
0.9996485
0.9996471
0.9996773
0.9996772
0.9996755
0.999674
0.9996723
0.9996704
0.9996686
0.9996669
0.9996651
0.9996631
0.9996612
0.9996593
0.9996574
0.9996557
0.999654
0.9996524
0.9996813
0.999681
0.9996802
0.9996783
0.9996764
0.9996745
0.9996725
0.9996705
0.9996684
0.9996664
0.9996644
0.9996623
0.99966
0.9996588
0.9996839
0.9996837
0.999682
0.99968
0.9996778
0.9996756
0.9996735
0.9996716
0.9996699
0.9996684
0.9997058
0.9997051
0.999703
0.9997008
0.9996988
0.9996971
0.9996956
0.9996945
0.9997103
0.9997098
0.9997074
0.9997051
0.9997033
0.9997012
0.9996991
0.9996972
0.9996954
0.9996938
0.9996921
0.9996905
0.9996894
0.9996884
0.9997093
0.9997087
0.9997073
0.9997054
0.9997033
0.9997014
0.9996993
0.9996973
0.9996954
0.9996935
0.9996918
0.99969
0.9996882
0.9996866
0.9996847
0.9996829
0.9997099
0.9997093
0.9997079
0.9997066
0.9997051
0.9997029
0.9997012
0.9996992
0.9996972
0.9996952
0.9996932
0.9996912
0.9996892
0.9996871
0.9996847
0.9996821
0.9996792
0.9996761
0.9996728
0.9996708
0.9997088
0.9997082
0.9997069
0.9997055
0.9997036
0.9997023
0.9997007
0.9996985
0.9996964
0.9996943
0.9996921
0.9996899
0.9996875
0.9996849
0.9996821
0.9996791
0.9996762
0.9996729
0.9996687
0.9996651
0.9996615
0.9996587
0.9997072
0.9997066
0.9997052
0.9997038
0.9997018
0.9997009
0.9996991
0.9996972
0.999695
0.9996928
0.9996904
0.9996878
0.9996851
0.9996821
0.999679
0.9996756
0.9996721
0.9996684
0.9996645
0.9996612
0.9996571
0.9996539
0.9996509
0.9996488
0.9997037
0.9997025
0.9997011
0.999699
0.9996983
0.9996965
0.9996946
0.9996925
0.9996901
0.9996875
0.9996848
0.9996819
0.9996786
0.999675
0.9996714
0.9996678
0.9996641
0.9996604
0.9996568
0.9996533
0.9996506
0.9996473
0.9996449
0.9996429
0.9996979
0.9996983
0.9996964
0.9996943
0.9996939
0.9996921
0.9996903
0.9996881
0.9996857
0.999683
0.9996803
0.9996772
0.9996739
0.9996704
0.9996667
0.9996631
0.9996596
0.9996563
0.9996531
0.9996501
0.9996472
0.9996446
0.9996427
0.9996403
0.9996388
0.9996375
0.9996887
0.99969
0.9996882
0.9996861
0.9996865
0.9996849
0.9996831
0.9996811
0.9996789
0.9996767
0.9996739
0.9996709
0.9996678
0.9996645
0.9996613
0.9996582
0.9996551
0.9996522
0.9996497
0.9996472
0.999645
0.9996429
0.9996409
0.999639
0.9996378
0.9996364
0.9996355
0.9996349
0.9996757
0.9996758
0.9996748
0.9996743
0.9996742
0.9996729
0.9996712
0.9996695
0.999668
0.9996659
0.9996634
0.9996607
0.999658
0.9996553
0.9996528
0.9996504
0.9996483
0.9996463
0.9996445
0.999643
0.9996414
0.99964
0.9996386
0.9996372
0.9996359
0.9996349
0.9996342
0.9996337
0.9996624
0.9996621
0.9996611
0.9996621
0.999661
0.9996601
0.999659
0.9996579
0.9996568
0.9996552
0.9996534
0.9996514
0.9996495
0.9996477
0.999646
0.9996446
0.9996433
0.9996421
0.9996411
0.9996402
0.9996392
0.9996382
0.9996372
0.9996361
0.9996351
0.9996343
0.9996336
0.9996331
0.9996494
0.9996508
0.9996496
0.9996491
0.9996499
0.9996498
0.9996494
0.9996489
0.9996485
0.9996478
0.9996468
0.9996457
0.9996446
0.9996435
0.9996425
0.9996417
0.9996409
0.9996403
0.9996397
0.9996392
0.9996388
0.9996382
0.9996376
0.9996368
0.9996359
0.999635
0.999634
0.9996333
0.9996329
0.9996325
0.9996416
0.9996417
0.9996417
0.9996416
0.9996423
0.9996424
0.9996424
0.9996424
0.9996424
0.9996421
0.9996417
0.9996412
0.9996408
0.9996403
0.99964
0.9996397
0.9996394
0.9996392
0.999639
0.9996389
0.9996387
0.9996385
0.9996379
0.9996372
0.9996364
0.9996354
0.9996343
0.9996335
0.9996328
0.9996324
0.9996392
0.9996391
0.999639
0.999639
0.9996393
0.9996394
0.9996395
0.9996397
0.9996398
0.9996398
0.9996398
0.9996397
0.9996396
0.9996396
0.9996395
0.9996395
0.9996395
0.9996396
0.9996396
0.9996396
0.9996395
0.9996394
0.999639
0.9996382
0.9996372
0.9996361
0.9996347
0.9996337
0.9996329
0.9996324
0.999639
0.999639
0.9996389
0.9996388
0.999639
0.9996391
0.9996393
0.9996395
0.9996397
0.9996399
0.99964
0.9996401
0.9996401
0.9996402
0.9996402
0.9996403
0.9996404
0.9996404
0.9996405
0.9996405
0.9996404
0.9996402
0.9996397
0.9996388
0.9996377
0.9996364
0.9996348
0.9996337
0.9996329
0.9996323
0.9996397
0.9996396
0.9996395
0.9996394
0.9996397
0.9996399
0.9996401
0.9996404
0.9996406
0.9996408
0.9996409
0.999641
0.999641
0.9996411
0.9996411
0.9996412
0.9996412
0.9996412
0.9996412
0.9996412
0.9996411
0.9996409
0.9996403
0.9996393
0.999638
0.9996365
0.9996349
0.9996336
0.9996327
0.9996322
0.9996407
0.9996406
0.9996405
0.9996404
0.9996407
0.9996408
0.999641
0.9996412
0.9996414
0.9996415
0.9996416
0.9996416
0.9996415
0.9996415
0.9996414
0.9996414
0.9996414
0.9996414
0.9996413
0.9996413
0.9996412
0.9996409
0.9996402
0.9996392
0.999638
0.9996365
0.9996349
0.9996337
0.9996327
0.9996322
0.9996425
0.9996425
0.9996424
0.9996422
0.9996426
0.9996427
0.9996428
0.9996429
0.999643
0.9996431
0.999643
0.9996428
0.9996426
0.9996424
0.9996421
0.9996419
0.9996417
0.9996414
0.9996412
0.999641
0.9996407
0.9996403
0.9996395
0.9996385
0.9996374
0.9996361
0.9996348
0.9996338
0.999633
0.9996326
0.9996464
0.9996467
0.999646
0.9996457
0.9996462
0.9996462
0.9996462
0.9996462
0.9996462
0.9996461
0.9996459
0.9996456
0.9996451
0.9996447
0.9996442
0.9996437
0.9996432
0.9996428
0.9996423
0.9996418
0.9996413
0.9996405
0.9996395
0.9996385
0.9996373
0.9996362
0.999635
0.9996342
0.9996337
0.9996333
0.9996515
0.9996512
0.9996509
0.9996512
0.9996511
0.9996509
0.9996507
0.9996506
0.9996505
0.9996501
0.9996496
0.9996489
0.9996483
0.9996475
0.9996468
0.9996461
0.9996454
0.9996447
0.9996439
0.9996431
0.999642
0.9996408
0.9996395
0.9996382
0.9996369
0.999636
0.9996351
0.9996345
0.9996575
0.9996573
0.9996569
0.9996569
0.9996573
0.9996571
0.9996566
0.9996562
0.9996559
0.9996553
0.9996545
0.9996536
0.9996527
0.9996517
0.9996507
0.9996497
0.9996487
0.9996477
0.9996467
0.9996455
0.9996442
0.9996427
0.9996412
0.9996397
0.9996382
0.9996371
0.9996363
0.9996357
0.9996662
0.9996668
0.9996653
0.9996641
0.9996648
0.9996643
0.9996636
0.9996628
0.999662
0.9996612
0.99966
0.9996589
0.9996576
0.9996563
0.999655
0.9996537
0.9996524
0.9996511
0.9996497
0.9996481
0.9996465
0.9996448
0.999643
0.9996412
0.9996399
0.9996386
0.9996377
0.9996372
0.9996742
0.9996749
0.999673
0.9996715
0.9996719
0.9996712
0.9996702
0.999669
0.9996675
0.999666
0.9996646
0.999663
0.9996613
0.9996596
0.9996579
0.9996563
0.9996546
0.9996528
0.999651
0.9996491
0.999647
0.999645
0.9996434
0.9996417
0.9996405
0.9996393
0.9996824
0.9996816
0.9996802
0.9996781
0.9996782
0.9996772
0.9996759
0.9996742
0.9996724
0.9996705
0.9996686
0.9996666
0.9996645
0.9996624
0.9996604
0.9996584
0.9996563
0.9996542
0.9996519
0.9996496
0.9996478
0.9996457
0.9996441
0.9996428
0.999689
0.9996891
0.9996875
0.999686
0.9996838
0.9996836
0.9996823
0.9996805
0.9996786
0.9996765
0.9996744
0.9996721
0.9996697
0.9996674
0.999665
0.9996626
0.9996602
0.9996579
0.9996553
0.9996533
0.9996508
0.9996489
0.9996473
0.9996459
0.9996936
0.9996934
0.9996919
0.9996907
0.9996885
0.9996878
0.9996862
0.9996843
0.9996822
0.9996799
0.9996775
0.9996751
0.9996726
0.99967
0.9996673
0.9996646
0.9996625
0.99966
0.9996571
0.9996549
0.9996529
0.999651
0.9996964
0.9996959
0.9996953
0.9996939
0.9996923
0.9996901
0.999689
0.9996871
0.9996849
0.9996826
0.9996802
0.9996778
0.9996753
0.9996728
0.9996702
0.9996672
0.9996646
0.9996621
0.9996594
0.9996577
0.9996978
0.9996974
0.9996959
0.9996944
0.9996928
0.999691
0.9996889
0.9996867
0.9996844
0.9996822
0.9996798
0.9996775
0.999675
0.9996727
0.9996704
0.9996681
0.9996996
0.9996992
0.9996975
0.9996956
0.9996942
0.9996923
0.9996902
0.9996882
0.9996861
0.999684
0.9996818
0.9996793
0.9996776
0.999676
0.9996972
0.9996968
0.9996951
0.9996931
0.9996912
0.9996894
0.9996878
0.9996866
0.9997089
0.9997082
0.9997058
0.9997036
0.9997016
0.9997002
0.999717
0.9997166
0.9997141
0.9997114
0.9997087
0.9997065
0.9997041
0.9997018
0.9996997
0.9996978
0.9996959
0.9996947
0.9996935
0.9996927
0.999719
0.9997185
0.9997167
0.9997151
0.9997127
0.9997097
0.9997072
0.9997048
0.9997023
0.9997
0.9996979
0.9996961
0.9996944
0.999693
0.9996918
0.9996905
0.9996895
0.9996887
0.9997184
0.999718
0.9997168
0.999715
0.9997133
0.9997109
0.9997086
0.9997057
0.9997031
0.9997006
0.9996982
0.9996961
0.9996942
0.9996925
0.9996912
0.9996899
0.9996885
0.9996871
0.9996858
0.9996844
0.9997178
0.9997174
0.9997162
0.9997145
0.9997134
0.9997115
0.9997091
0.9997066
0.9997039
0.9997013
0.9996988
0.9996964
0.9996943
0.9996923
0.9996905
0.9996888
0.999687
0.9996852
0.9996835
0.9996813
0.9996789
0.9996766
0.9997169
0.9997165
0.999715
0.9997141
0.9997127
0.9997111
0.999709
0.9997067
0.9997042
0.9997016
0.9996991
0.9996967
0.9996944
0.9996922
0.9996901
0.999688
0.9996857
0.9996833
0.9996807
0.9996779
0.9996753
0.999672
0.999668
0.9996648
0.9997154
0.999715
0.9997134
0.9997127
0.9997115
0.99971
0.9997082
0.9997061
0.9997038
0.9997013
0.9996988
0.9996964
0.999694
0.9996917
0.9996893
0.9996869
0.9996843
0.9996815
0.9996784
0.999675
0.9996713
0.9996674
0.9996634
0.9996602
0.9996562
0.999653
0.9997131
0.9997127
0.999711
0.9997106
0.9997095
0.9997081
0.9997065
0.9997047
0.9997026
0.9997003
0.9996979
0.9996955
0.999693
0.9996904
0.9996878
0.9996851
0.9996822
0.9996792
0.9996759
0.9996723
0.9996684
0.9996643
0.9996601
0.9996559
0.999652
0.9996493
0.9996463
0.999644
0.9997095
0.9997098
0.9997086
0.999707
0.9997064
0.9997052
0.9997038
0.9997023
0.9997004
0.9996983
0.999696
0.9996935
0.999691
0.9996883
0.9996855
0.9996826
0.9996794
0.9996761
0.9996727
0.9996691
0.9996655
0.9996617
0.9996577
0.9996537
0.9996498
0.9996462
0.9996432
0.999641
0.9996396
0.9996384
0.9997031
0.9997031
0.9997018
0.9997019
0.9997007
0.9996995
0.9996983
0.9996966
0.9996947
0.9996925
0.9996901
0.9996875
0.9996847
0.9996819
0.9996788
0.9996757
0.9996724
0.999669
0.9996655
0.9996621
0.9996588
0.9996554
0.999652
0.9996486
0.9996452
0.9996421
0.9996395
0.999638
0.9996365
0.9996357
0.999692
0.9996949
0.9996931
0.999694
0.9996932
0.9996923
0.9996916
0.9996903
0.9996886
0.9996866
0.9996844
0.999682
0.9996793
0.9996764
0.9996735
0.9996705
0.9996675
0.9996645
0.9996615
0.9996584
0.9996555
0.9996527
0.9996503
0.9996476
0.9996449
0.9996422
0.9996397
0.9996374
0.9996357
0.9996349
0.9996343
0.9996339
0.9996781
0.9996802
0.9996801
0.9996813
0.9996812
0.999681
0.9996805
0.9996793
0.9996778
0.9996761
0.9996741
0.9996719
0.9996693
0.9996667
0.9996641
0.9996615
0.999659
0.9996566
0.9996543
0.9996521
0.99965
0.999648
0.9996463
0.9996445
0.9996425
0.9996404
0.9996382
0.9996362
0.9996346
0.9996336
0.9996332
0.999633
0.9996627
0.9996635
0.9996658
0.9996671
0.9996675
0.9996678
0.9996675
0.9996667
0.9996656
0.9996644
0.9996629
0.9996611
0.9996592
0.9996572
0.9996552
0.9996534
0.9996517
0.9996501
0.9996486
0.9996472
0.9996459
0.9996446
0.9996436
0.9996425
0.999641
0.9996394
0.9996375
0.9996357
0.9996342
0.9996331
0.9996327
0.9996326
0.9996519
0.999652
0.9996531
0.9996536
0.9996543
0.9996551
0.9996552
0.9996549
0.9996544
0.9996538
0.9996529
0.9996518
0.9996506
0.9996494
0.9996483
0.9996472
0.9996463
0.9996455
0.9996448
0.9996441
0.9996435
0.9996429
0.9996423
0.9996416
0.9996406
0.9996392
0.9996376
0.9996357
0.9996341
0.9996329
0.9996325
0.9996323
0.9996429
0.9996435
0.999643
0.9996438
0.9996444
0.9996451
0.9996458
0.9996462
0.9996463
0.9996463
0.9996462
0.9996459
0.9996455
0.999645
0.9996445
0.9996441
0.9996438
0.9996435
0.9996433
0.9996432
0.9996431
0.999643
0.9996428
0.9996426
0.9996422
0.9996415
0.9996403
0.9996386
0.9996366
0.9996347
0.9996332
0.9996324
0.9996322
0.9996321
0.99964
0.99964
0.9996399
0.9996402
0.9996405
0.9996408
0.9996413
0.9996417
0.999642
0.9996422
0.9996424
0.9996426
0.9996426
0.9996427
0.9996427
0.9996428
0.9996429
0.9996431
0.9996433
0.9996436
0.9996439
0.9996441
0.9996442
0.9996442
0.9996439
0.9996432
0.999642
0.9996401
0.9996377
0.9996354
0.9996335
0.9996324
0.9996321
0.9996321
0.9996397
0.9996397
0.9996396
0.9996398
0.9996399
0.9996401
0.9996405
0.9996408
0.9996412
0.9996415
0.9996419
0.9996423
0.9996426
0.9996429
0.9996432
0.9996435
0.9996439
0.9996442
0.9996446
0.9996449
0.9996453
0.9996455
0.9996456
0.9996456
0.9996452
0.9996442
0.9996429
0.9996408
0.9996382
0.9996356
0.9996335
0.9996323
0.999632
0.9996319
0.9996404
0.9996404
0.9996403
0.9996405
0.9996407
0.9996409
0.9996414
0.9996418
0.9996422
0.9996427
0.9996432
0.9996436
0.999644
0.9996444
0.9996447
0.999645
0.9996454
0.9996457
0.999646
0.9996463
0.9996466
0.9996468
0.9996468
0.9996467
0.9996462
0.999645
0.9996435
0.9996412
0.9996384
0.9996357
0.9996334
0.9996321
0.9996318
0.9996317
0.9996416
0.9996415
0.9996414
0.9996417
0.999642
0.9996422
0.9996427
0.9996431
0.9996435
0.9996439
0.9996443
0.9996447
0.999645
0.9996452
0.9996454
0.9996456
0.9996458
0.999646
0.9996462
0.9996464
0.9996466
0.9996468
0.9996467
0.9996467
0.9996461
0.9996451
0.9996435
0.9996412
0.9996383
0.9996356
0.9996334
0.9996321
0.9996319
0.9996318
0.999644
0.9996441
0.9996436
0.999644
0.9996443
0.9996447
0.9996452
0.9996456
0.999646
0.9996463
0.9996466
0.9996468
0.9996469
0.9996469
0.9996468
0.9996468
0.9996466
0.9996465
0.9996465
0.9996463
0.9996462
0.999646
0.9996457
0.9996453
0.9996445
0.9996435
0.9996419
0.9996398
0.9996374
0.9996352
0.9996334
0.9996325
0.9996323
0.9996323
0.999648
0.9996479
0.9996483
0.9996485
0.999649
0.9996496
0.99965
0.9996503
0.9996505
0.9996506
0.9996507
0.9996507
0.9996505
0.9996502
0.9996498
0.9996494
0.999649
0.9996485
0.999648
0.9996475
0.9996469
0.9996462
0.9996453
0.9996443
0.9996429
0.9996411
0.999639
0.9996368
0.999635
0.9996337
0.9996333
0.999633
0.9996528
0.9996528
0.9996536
0.9996544
0.999655
0.9996556
0.999656
0.9996561
0.9996562
0.9996562
0.9996561
0.9996559
0.9996554
0.9996549
0.9996543
0.9996537
0.999653
0.9996522
0.9996514
0.9996505
0.9996495
0.9996485
0.9996473
0.9996459
0.999644
0.9996419
0.9996396
0.9996375
0.9996357
0.9996346
0.9996342
0.999634
0.9996602
0.9996607
0.9996606
0.9996617
0.9996622
0.9996627
0.9996632
0.9996633
0.9996631
0.9996629
0.9996625
0.9996619
0.9996612
0.9996604
0.9996596
0.9996586
0.9996577
0.9996566
0.9996555
0.9996542
0.999653
0.9996516
0.99965
0.9996482
0.9996459
0.9996434
0.9996408
0.9996385
0.9996367
0.9996357
0.9996352
0.999635
0.99967
0.9996715
0.99967
0.9996708
0.9996708
0.999671
0.9996713
0.9996712
0.9996708
0.9996702
0.9996694
0.9996685
0.9996674
0.9996663
0.9996651
0.9996639
0.9996626
0.9996612
0.9996596
0.999658
0.9996565
0.9996548
0.9996529
0.9996505
0.9996478
0.9996449
0.9996421
0.9996397
0.999638
0.9996372
0.9996366
0.9996362
0.9996793
0.9996793
0.9996789
0.9996798
0.9996795
0.9996792
0.999679
0.9996784
0.9996776
0.9996765
0.9996752
0.9996738
0.9996723
0.9996707
0.9996691
0.9996675
0.9996656
0.9996637
0.9996619
0.9996601
0.9996579
0.9996555
0.9996527
0.9996496
0.9996465
0.9996436
0.999641
0.9996397
0.9996385
0.9996378
0.9996884
0.9996897
0.9996886
0.9996873
0.9996875
0.9996869
0.9996861
0.9996854
0.9996845
0.9996832
0.9996816
0.9996799
0.999678
0.9996762
0.9996742
0.9996722
0.99967
0.9996679
0.9996658
0.9996635
0.9996609
0.9996581
0.9996549
0.9996516
0.9996484
0.9996454
0.999643
0.9996415
0.9996404
0.9996396
0.9996956
0.999696
0.9996941
0.9996943
0.9996936
0.9996926
0.9996915
0.9996904
0.9996891
0.9996873
0.9996854
0.9996834
0.9996812
0.999679
0.9996767
0.9996743
0.9996719
0.9996695
0.9996669
0.999664
0.9996609
0.9996575
0.9996541
0.9996509
0.999648
0.9996462
0.9996444
0.9996428
0.9997009
0.9997009
0.999699
0.9996988
0.9996979
0.9996967
0.9996954
0.9996941
0.9996923
0.9996903
0.9996881
0.9996858
0.9996834
0.999681
0.9996785
0.9996759
0.9996732
0.9996703
0.9996673
0.999664
0.9996606
0.9996574
0.9996542
0.9996522
0.9996498
0.9996476
0.9997042
0.999704
0.9997023
0.9997019
0.9997006
0.9996995
0.999698
0.9996962
0.9996943
0.999692
0.9996897
0.9996873
0.9996849
0.9996824
0.9996797
0.999677
0.999674
0.9996709
0.9996677
0.9996644
0.999662
0.9996594
0.9996567
0.9996541
0.9997062
0.9997059
0.9997047
0.999703
0.9997024
0.9997011
0.9996995
0.9996975
0.9996953
0.9996929
0.9996906
0.9996882
0.9996857
0.9996832
0.9996807
0.999678
0.9996752
0.9996722
0.9996698
0.9996669
0.9996644
0.9996618
0.9997074
0.999707
0.999706
0.9997044
0.9997035
0.9997018
0.9997001
0.9996978
0.9996956
0.9996933
0.999691
0.9996887
0.9996864
0.999684
0.9996821
0.9996799
0.9996776
0.999675
0.9996729
0.9996705
0.9997083
0.999708
0.9997068
0.9997057
0.9997039
0.9997015
0.9996997
0.9996978
0.9996956
0.9996935
0.9996914
0.9996894
0.9996874
0.9996854
0.9996835
0.9996816
0.9996794
0.9996778
0.9997078
0.9997076
0.9997057
0.9997035
0.9997013
0.9996998
0.9996978
0.9996957
0.9996938
0.9996918
0.9996897
0.9996883
0.9996868
0.9996856
0.999702
0.9997017
0.9996998
0.999698
0.9996963
0.9996951
0.9997179
0.9997174
0.999715
0.9997123
0.9997094
0.9997066
0.999704
0.9997018
0.9997
0.9996987
0.9997241
0.9997239
0.9997214
0.9997186
0.9997165
0.9997134
0.9997107
0.9997078
0.999705
0.9997024
0.9997002
0.9996982
0.9996966
0.9996951
0.999694
0.9996932
0.9997244
0.999724
0.9997227
0.9997205
0.999718
0.9997154
0.9997126
0.9997093
0.9997062
0.9997032
0.9997005
0.9996982
0.9996966
0.9996951
0.9996938
0.9996926
0.9996915
0.9996907
0.9997266
0.9997263
0.9997244
0.9997238
0.9997226
0.9997203
0.9997176
0.9997146
0.9997113
0.9997078
0.9997044
0.9997012
0.9996985
0.9996962
0.9996944
0.9996929
0.9996917
0.9996906
0.9996897
0.9996887
0.9996877
0.9996869
0.9997261
0.9997258
0.9997245
0.999724
0.9997235
0.9997219
0.9997195
0.9997166
0.9997134
0.9997099
0.9997063
0.9997028
0.9996996
0.9996968
0.9996944
0.9996924
0.9996907
0.9996893
0.9996881
0.9996871
0.999686
0.9996849
0.9996833
0.9996815
0.9997255
0.9997252
0.9997238
0.9997235
0.999723
0.999722
0.9997204
0.9997178
0.9997148
0.9997115
0.9997079
0.9997045
0.9997012
0.9996982
0.9996955
0.9996931
0.9996909
0.9996888
0.9996869
0.9996852
0.9996835
0.9996818
0.9996799
0.9996779
0.9996748
0.9996715
0.9997242
0.999724
0.9997225
0.9997221
0.9997217
0.999721
0.9997196
0.9997177
0.9997151
0.999712
0.9997087
0.9997054
0.9997021
0.9996991
0.9996964
0.9996939
0.9996916
0.9996893
0.999687
0.9996846
0.999682
0.9996792
0.9996764
0.9996733
0.9996699
0.9996669
0.9996628
0.999659
0.9997222
0.999722
0.9997203
0.99972
0.9997195
0.999719
0.9997179
0.9997164
0.9997143
0.9997116
0.9997087
0.9997055
0.9997024
0.9996994
0.9996967
0.9996941
0.9996917
0.9996894
0.999687
0.9996843
0.9996814
0.9996781
0.9996744
0.9996704
0.9996663
0.9996622
0.9996582
0.9996553
0.9996517
0.9996488
0.9997184
0.9997172
0.999717
0.9997164
0.999716
0.9997152
0.999714
0.9997123
0.9997101
0.9997076
0.9997048
0.9997019
0.9996991
0.9996963
0.9996936
0.9996911
0.9996886
0.999686
0.9996833
0.9996804
0.9996772
0.9996734
0.9996693
0.9996647
0.9996599
0.9996553
0.9996511
0.9996476
0.9996455
0.9996431
0.999713
0.9997135
0.9997132
0.9997127
0.999712
0.9997115
0.9997105
0.9997092
0.9997075
0.9997054
0.9997029
0.9997003
0.9996976
0.9996948
0.9996921
0.9996894
0.9996868
0.9996842
0.9996814
0.9996785
0.9996753
0.999672
0.9996682
0.999664
0.9996594
0.9996546
0.9996498
0.9996456
0.9996425
0.9996401
0.9996387
0.9996374
0.9997026
0.9997063
0.9997067
0.999707
0.9997067
0.9997064
0.9997057
0.9997047
0.9997033
0.9997016
0.9996995
0.9996972
0.9996947
0.999692
0.9996893
0.9996866
0.9996839
0.9996812
0.9996783
0.9996755
0.9996726
0.9996695
0.9996662
0.9996629
0.9996592
0.9996549
0.9996505
0.9996461
0.999642
0.999639
0.9996372
0.999636
0.9996353
0.9996347
0.9996944
0.9996963
0.999698
0.9996982
0.9996987
0.9996984
0.9996978
0.9996969
0.9996956
0.9996939
0.9996919
0.9996897
0.9996872
0.9996847
0.9996821
0.9996794
0.9996768
0.9996742
0.9996715
0.9996689
0.9996662
0.9996635
0.9996607
0.999658
0.999655
0.9996517
0.9996478
0.9996438
0.99964
0.9996369
0.9996352
0.9996343
0.9996339
0.9996335
0.9996801
0.999681
0.9996845
0.9996858
0.999687
0.9996873
0.9996871
0.9996865
0.9996854
0.999684
0.9996823
0.9996803
0.999678
0.9996757
0.9996733
0.9996709
0.9996686
0.9996664
0.9996642
0.9996621
0.9996601
0.9996581
0.9996559
0.9996539
0.9996518
0.9996493
0.9996462
0.9996426
0.9996391
0.999636
0.999634
0.9996333
0.999633
0.9996328
0.9996589
0.9996637
0.9996652
0.9996686
0.9996714
0.999673
0.9996739
0.9996742
0.999674
0.9996733
0.9996723
0.999671
0.9996694
0.9996677
0.9996658
0.999664
0.9996622
0.9996605
0.9996589
0.9996574
0.9996561
0.9996548
0.9996536
0.9996522
0.9996508
0.9996495
0.9996477
0.9996453
0.9996422
0.9996389
0.9996358
0.9996336
0.9996328
0.9996325
0.9996324
0.9996323
0.9996499
0.9996512
0.9996534
0.9996553
0.9996575
0.9996591
0.9996602
0.999661
0.9996612
0.9996611
0.9996606
0.9996599
0.999659
0.9996579
0.9996567
0.9996556
0.9996546
0.9996536
0.9996528
0.9996521
0.9996516
0.9996511
0.9996505
0.9996499
0.9996491
0.9996484
0.9996473
0.9996454
0.9996427
0.9996394
0.9996362
0.9996337
0.9996325
0.9996322
0.9996321
0.999632
0.9996437
0.999644
0.9996446
0.9996456
0.9996471
0.9996485
0.9996495
0.9996504
0.9996509
0.9996512
0.9996513
0.9996511
0.9996508
0.9996505
0.9996501
0.9996497
0.9996494
0.9996492
0.9996492
0.9996492
0.9996494
0.9996496
0.9996497
0.9996498
0.9996497
0.9996495
0.9996489
0.9996474
0.9996449
0.9996413
0.9996377
0.9996344
0.9996325
0.9996322
0.9996321
0.999632
0.9996408
0.9996407
0.9996411
0.9996415
0.9996422
0.9996429
0.9996436
0.9996443
0.9996449
0.9996454
0.9996458
0.9996461
0.9996463
0.9996466
0.9996468
0.9996471
0.9996474
0.9996478
0.9996484
0.999649
0.9996497
0.9996505
0.9996512
0.9996517
0.999652
0.9996522
0.9996518
0.9996503
0.9996477
0.9996437
0.9996395
0.9996353
0.9996326
0.9996321
0.999632
0.999632
0.9996404
0.9996403
0.9996405
0.9996407
0.9996412
0.9996416
0.999642
0.9996426
0.9996432
0.9996438
0.9996443
0.9996449
0.9996455
0.9996461
0.9996468
0.9996474
0.9996481
0.9996489
0.9996498
0.9996507
0.9996516
0.9996525
0.9996533
0.9996539
0.9996542
0.9996542
0.9996536
0.999652
0.999649
0.9996447
0.9996402
0.9996356
0.9996326
0.999632
0.9996319
0.9996319
0.9996411
0.999641
0.9996413
0.9996416
0.9996421
0.9996425
0.9996431
0.9996437
0.9996444
0.9996451
0.9996458
0.9996465
0.9996472
0.999648
0.9996487
0.9996495
0.9996503
0.9996511
0.999652
0.9996529
0.9996538
0.9996546
0.9996553
0.9996558
0.9996558
0.9996558
0.999655
0.9996531
0.9996498
0.9996452
0.9996404
0.9996356
0.9996325
0.9996318
0.9996317
0.9996316
0.9996424
0.9996423
0.9996426
0.999643
0.9996437
0.9996442
0.9996448
0.9996456
0.9996463
0.999647
0.9996477
0.9996483
0.9996489
0.9996495
0.9996501
0.9996507
0.9996512
0.9996519
0.9996525
0.9996532
0.9996539
0.9996546
0.9996552
0.9996556
0.9996557
0.9996557
0.999655
0.9996531
0.9996498
0.9996451
0.9996402
0.9996353
0.9996323
0.9996318
0.9996317
0.9996316
0.9996449
0.9996449
0.9996451
0.9996456
0.9996465
0.9996473
0.9996481
0.9996489
0.9996497
0.9996504
0.999651
0.9996515
0.9996519
0.9996523
0.9996526
0.9996528
0.999653
0.9996532
0.9996534
0.9996536
0.9996538
0.9996539
0.999654
0.9996538
0.9996535
0.9996531
0.999652
0.9996499
0.9996467
0.9996425
0.9996384
0.9996347
0.9996326
0.9996323
0.9996322
0.999632
0.9996484
0.9996486
0.9996494
0.9996503