/*--------------------------------*- C++ -*----------------------------------*\
  =========                 |
  \\      /  F ield         | OpenFOAM: The Open Source CFD Toolbox
   \\    /   O peration     | Website:  https://openfoam.org
    \\  /    A nd           | Version:  6
     \\/     M anipulation  |
\*---------------------------------------------------------------------------*/
FoamFile
{
    version     2.0;
    format      ascii;
    class       volScalarField;
    location    "49.8";
    object      T;
}
// * * * * * * * * * * * * * * * * * * * * * * * * * * * * * * * * * * * * * //

dimensions      [0 0 0 1 0 0 0];

internalField   nonuniform List<scalar> 
238185
(
924.6306
924.6324
924.6403
924.6484
924.6549
924.6576
924.6625
924.6762
924.6891
924.7041
924.7184
924.7258
924.6839
924.6863
924.6887
924.7011
924.7107
924.7222
924.734
924.7456
924.7567
924.7672
924.7764
924.781
924.7187
924.7195
924.7297
924.7364
924.745
924.7536
924.7624
924.7708
924.7785
924.7854
924.7913
924.7965
924.8012
924.8047
924.7594
924.7646
924.7697
924.7751
924.7808
924.7865
924.7918
924.7967
924.8009
924.8046
924.8077
924.8104
924.8127
924.8151
924.7893
924.7889
924.7951
924.798
924.801
924.8039
924.8067
924.8093
924.8116
924.8135
924.8152
924.8167
924.8179
924.819
924.8202
924.8219
924.8082
924.8096
924.8107
924.8119
924.8131
924.8142
924.8153
924.8162
924.817
924.8177
924.8183
924.8187
924.8192
924.8195
924.8199
924.8204
924.813
924.813
924.8141
924.8146
924.8151
924.8155
924.816
924.8164
924.8167
924.817
924.8173
924.8176
924.8178
924.818
924.8182
924.8185
924.819
924.821
924.8121
924.8123
924.8126
924.813
924.8134
924.8137
924.8141
924.8144
924.8147
924.815
924.8153
924.8156
924.8158
924.8161
924.8163
924.8166
924.8172
924.8182
924.8098
924.8101
924.8105
924.8109
924.8113
924.8118
924.8122
924.8126
924.813
924.8133
924.8137
924.814
924.8143
924.8147
924.815
924.8153
924.816
924.8172
924.8065
924.8064
924.8077
924.8083
924.8089
924.8095
924.8102
924.8107
924.8113
924.8119
924.8124
924.8129
924.8133
924.8138
924.8141
924.8147
924.8155
924.8179
924.801
924.802
924.8029
924.8038
924.8049
924.8059
924.807
924.808
924.809
924.8099
924.8108
924.8117
924.8125
924.8132
924.8141
924.8152
924.7891
924.789
924.7922
924.7937
924.7953
924.797
924.7986
924.8003
924.802
924.8036
924.8052
924.8067
924.8081
924.8096
924.8113
924.8134
924.7744
924.7765
924.7785
924.7806
924.7829
924.7853
924.7877
924.7901
924.7925
924.7948
924.7969
924.7991
924.8012
924.8037
924.7555
924.7556
924.7599
924.7622
924.7652
924.7683
924.7715
924.7747
924.778
924.7811
924.7841
924.7873
924.7903
924.7933
924.739
924.7394
924.7401
924.7452
924.7484
924.7524
924.7564
924.7606
924.7651
924.7696
924.7749
924.7777
924.7243
924.7246
924.7253
924.7309
924.7352
924.7405
924.7473
924.7509
924.7099
924.7094
924.7122
924.7163
924.5024
924.5054
924.5143
924.5242
924.5341
924.544
924.5538
924.5633
924.5722
924.5795
924.5021
924.5054
924.5124
924.5204
924.5298
924.54
924.5507
924.562
924.5738
924.5864
924.6
924.6153
924.6322
924.6413
924.5114
924.5144
924.5225
924.5311
924.541
924.5522
924.5634
924.5755
924.5889
924.6039
924.6192
924.6357
924.6524
924.6694
924.686
924.6998
924.5262
924.5288
924.5378
924.5473
924.5581
924.5691
924.5815
924.5987
924.6087
924.6235
924.64
924.66
924.6777
924.6947
924.7114
924.7269
924.7419
924.7531
924.5524
924.5535
924.5639
924.5741
924.5849
924.5974
924.6156
924.6227
924.635
924.6537
924.6709
924.6881
924.7011
924.7164
924.7349
924.7488
924.7613
924.7726
924.7828
924.7907
924.5955
924.5937
924.605
924.6154
924.6264
924.6434
924.6466
924.657
924.6723
924.6869
924.7026
924.7176
924.7319
924.7448
924.7573
924.7656
924.7754
924.7872
924.7947
924.8017
924.8075
924.812
924.6541
924.66
924.6686
924.679
924.6923
924.6906
924.7001
924.7108
924.7229
924.7351
924.7469
924.758
924.7681
924.777
924.785
924.7917
924.7984
924.803
924.8094
924.8139
924.8176
924.8209
924.7159
924.7121
924.7237
924.7301
924.7362
924.7412
924.7428
924.7491
924.7569
924.7653
924.7733
924.7809
924.7877
924.7937
924.7989
924.8033
924.8071
924.8106
924.8143
924.818
924.821
924.8237
924.8261
924.8289
924.7679
924.7688
924.7712
924.7743
924.7786
924.7767
924.781
924.7849
924.7894
924.794
924.7983
924.8022
924.8056
924.8085
924.8111
924.8133
924.8152
924.8169
924.8191
924.8211
924.8238
924.826
924.828
924.8299
924.7996
924.7999
924.8008
924.8017
924.8022
924.8016
924.8027
924.8044
924.8063
924.8082
924.81
924.8115
924.8128
924.8139
924.8149
924.8157
924.8164
924.8171
924.8182
924.8202
924.8227
924.8247
924.8267
924.8287
924.8087
924.809
924.8094
924.81
924.8096
924.8096
924.8099
924.8104
924.811
924.8116
924.8121
924.8126
924.8131
924.8134
924.8138
924.8141
924.8145
924.8149
924.8157
924.8176
924.8199
924.8219
924.8244
924.8267
924.8087
924.809
924.8094
924.8097
924.809
924.8087
924.8088
924.809
924.8092
924.8095
924.8098
924.8101
924.8104
924.8106
924.8109
924.8113
924.8116
924.812
924.8128
924.8146
924.8176
924.8205
924.8233
924.826
924.8059
924.8062
924.8066
924.8071
924.8061
924.8058
924.8059
924.8061
924.8065
924.8069
924.8073
924.8077
924.8081
924.8084
924.8088
924.8093
924.8097
924.8102
924.8112
924.8133
924.8167
924.8198
924.823
924.8259
924.8015
924.8019
924.8025
924.8031
924.8027
924.8027
924.8029
924.8034
924.8041
924.8048
924.8055
924.8062
924.8069
924.8075
924.8081
924.8087
924.8093
924.81
924.8113
924.8139
924.817
924.8198
924.8229
924.8258
924.7942
924.7947
924.7956
924.7964
924.7966
924.796
924.7965
924.7975
924.7988
924.8001
924.8015
924.8028
924.8041
924.8054
924.8066
924.8077
924.8088
924.8101
924.812
924.8149
924.8182
924.8209
924.8236
924.8261
924.7784
924.7792
924.7802
924.7816
924.7833
924.7825
924.784
924.7855
924.7876
924.7898
924.792
924.7943
924.7965
924.7986
924.8007
924.8027
924.8047
924.807
924.81
924.8127
924.8165
924.8195
924.8221
924.8246
924.7565
924.7558
924.7609
924.7631
924.7651
924.7662
924.766
924.7679
924.7706
924.7738
924.777
924.7803
924.7835
924.7866
924.7896
924.7925
924.7954
924.7987
924.8028
924.8071
924.8107
924.8141
924.8172
924.8204
924.7306
924.7335
924.7366
924.7402
924.7447
924.7432
924.7461
924.7495
924.7537
924.758
924.7624
924.7668
924.771
924.775
924.779
924.7832
924.788
924.792
924.7976
924.802
924.8059
924.8095
924.699
924.6981
924.7052
924.7102
924.7152
924.7219
924.7215
924.7249
924.7305
924.7358
924.7416
924.7473
924.7527
924.758
924.764
924.7682
924.7739
924.7811
924.7864
924.7917
924.7965
924.8009
924.6681
924.667
924.6747
924.6809
924.687
924.6937
924.7033
924.7048
924.7101
924.718
924.7253
924.7325
924.7377
924.7447
924.7536
924.7604
924.7668
924.7732
924.7794
924.7855
924.6388
924.6386
924.6469
924.654
924.6618
924.6693
924.6772
924.688
924.6916
924.6991
924.7076
924.7183
924.7266
924.7347
924.7427
924.75
924.7573
924.7646
924.6133
924.6141
924.6226
924.6299
924.6387
924.6481
924.6568
924.6657
924.6747
924.6846
924.6941
924.7037
924.7128
924.7217
924.7299
924.7382
924.5935
924.5951
924.5992
924.6085
924.6178
924.6273
924.6373
924.6475
924.6578
924.668
924.6781
924.6883
924.6998
924.7061
924.5806
924.5813
924.5898
924.6002
924.6112
924.6218
924.6323
924.642
924.6506
924.6578
924.4709
924.4744
924.4849
924.4958
924.5058
924.5146
924.522
924.5274
924.4487
924.4512
924.4629
924.4745
924.4835
924.494
924.5044
924.5141
924.5229
924.5312
924.5393
924.5475
924.5532
924.5582
924.4537
924.4564
924.4637
924.4732
924.4833
924.4931
924.5034
924.5136
924.5232
924.5323
924.5411
924.5498
924.5588
924.5672
924.5767
924.5857
924.4505
924.4536
924.4605
924.4669
924.4746
924.4855
924.4941
924.5039
924.5141
924.5242
924.5342
924.544
924.5541
924.5647
924.5763
924.5897
924.6039
924.6193
924.6359
924.6459
924.4561
924.4588
924.4655
924.4723
924.482
924.4885
924.4964
924.5075
924.5178
924.5284
924.5393
924.5506
924.5625
924.5753
924.5893
924.6046
924.6188
924.6357
924.6566
924.6743
924.6923
924.7064
924.4642
924.4668
924.4738
924.4809
924.4909
924.4956
924.5046
924.5142
924.5251
924.5362
924.5479
924.5608
924.5745
924.5893
924.6051
924.6219
924.6396
924.6579
924.6774
924.6939
924.7146
924.7307
924.7456
924.7559
924.4814
924.4874
924.4945
924.505
924.5087
924.5173
924.527
924.5377
924.5495
924.5623
924.5761
924.5907
924.6072
924.6248
924.6428
924.661
924.6796
924.698
924.7162
924.7336
924.747
924.7637
924.7756
924.7857
924.5105
924.5087
924.5178
924.5285
924.5307
924.5393
924.5487
924.5593
924.5716
924.585
924.5984
924.6138
924.6307
924.6482
924.6664
924.6843
924.7018
924.7184
924.7343
924.7495
924.7638
924.7771
924.7865
924.7983
924.8062
924.8125
924.5565
924.5502
924.5591
924.5693
924.5675
924.5756
924.5846
924.5946
924.6056
924.6166
924.6303
924.6453
924.6611
924.6774
924.6934
924.7092
924.7246
924.7389
924.7516
924.7638
924.7751
924.7857
924.7956
924.8048
924.8111
924.8181
924.8227
924.8257
924.6213
924.6211
924.6258
924.6284
924.629
924.6357
924.6441
924.6525
924.6599
924.6707
924.6832
924.6966
924.7102
924.7234
924.736
924.7478
924.7587
924.7686
924.7774
924.7852
924.7928
924.8002
924.8072
924.8139
924.8203
924.8254
924.829
924.8317
924.688
924.6896
924.6945
924.6897
924.695
924.6997
924.7051
924.7105
924.7158
924.7238
924.7332
924.743
924.7525
924.7615
924.7698
924.7772
924.7837
924.7895
924.7946
924.7991
924.8039
924.8089
924.814
924.8193
924.8247
924.8285
924.8321
924.8344
924.7529
924.7462
924.752
924.7544
924.7503
924.751
924.7532
924.7554
924.7574
924.7611
924.7659
924.7715
924.7771
924.7825
924.7874
924.7917
924.7954
924.7986
924.8013
924.8038
924.8061
924.8088
924.8122
924.8162
924.8205
924.8251
924.8299
924.8333
924.8357
924.8374
924.7918
924.7913
924.7916
924.7921
924.7887
924.788
924.788
924.7881
924.7882
924.7894
924.7914
924.7938
924.7962
924.7983
924.8002
924.8017
924.803
924.8039
924.8048
924.8055
924.8064
924.8077
924.8103
924.8138
924.818
924.823
924.8286
924.8327
924.8359
924.8378
924.804
924.8043
924.8048
924.8052
924.8037
924.8031
924.8024
924.8016
924.801
924.8008
924.8011
924.8015
924.8019
924.8022
924.8024
924.8024
924.8024
924.8022
924.8021
924.8021
924.8023
924.803
924.8052
924.8089
924.8138
924.8197
924.8265
924.8317
924.8356
924.838
924.8049
924.8052
924.8057
924.8061
924.805
924.8044
924.8036
924.8024
924.8013
924.8006
924.8001
924.7997
924.7994
924.7991
924.7988
924.7985
924.7982
924.7979
924.7977
924.7977
924.798
924.7988
924.8013
924.8058
924.8114
924.8181
924.8258
924.8315
924.8357
924.8383
924.8017
924.802
924.8024
924.8028
924.8015
924.8007
924.7997
924.7982
924.7969
924.796
924.7954
924.7951
924.7948
924.7946
924.7944
924.7942
924.794
924.7938
924.7938
924.7939
924.7944
924.7956
924.7986
924.8037
924.81
924.8174
924.8257
924.8318
924.8363
924.8391
924.7966
924.7969
924.7974
924.7979
924.7965
924.7959
924.7951
924.7941
924.793
924.7923
924.7921
924.7922
924.7924
924.7926
924.7928
924.7929
924.793
924.7931
924.7933
924.7935
924.794
924.7955
924.7988
924.8038
924.81
924.8174
924.8256
924.8317
924.8363
924.8391
924.7873
924.7875
924.7881
924.789
924.7871
924.7866
924.7862
924.7856
924.7848
924.7845
924.785
924.7859
924.787
924.7882
924.7894
924.7905
924.7917
924.7928
924.7939
924.7951
924.7964
924.7987
924.8026
924.8075
924.8131
924.8194
924.8262
924.8311
924.8348
924.8371
924.7678
924.7663
924.7699
924.7714
924.7692
924.7689
924.7692
924.7692
924.769
924.7693
924.7704
924.7722
924.7743
924.7767
924.779
924.7814
924.7838
924.7861
924.7885
924.791
924.7937
924.7975
924.8023
924.8077
924.8133
924.8192
924.8249
924.8289
924.8316
924.8333
924.7425
924.7438
924.7457
924.7438
924.7447
924.7455
924.7464
924.7471
924.7475
924.7493
924.752
924.7553
924.7587
924.7623
924.7659
924.7695
924.7731
924.7767
924.7804
924.7847
924.7901
924.7961
924.8025
924.8091
924.8155
924.82
924.8245
924.8273
924.7123
924.7133
924.7153
924.7153
924.7133
924.7147
924.717
924.7191
924.7206
924.7235
924.7275
924.7319
924.7367
924.7416
924.7465
924.7514
924.7564
924.7613
924.7665
924.7725
924.7792
924.7866
924.7941
924.8016
924.8088
924.8145
924.8185
924.8214
924.6691
924.6662
924.6735
924.6796
924.6762
924.6786
924.682
924.6858
924.69
924.6942
924.6998
924.7057
924.712
924.7184
924.725
924.7316
924.7381
924.7446
924.7515
924.7593
924.7674
924.7762
924.7851
924.7939
924.8003
924.8068
924.8113
924.8142
924.629
924.6257
924.635
924.6426
924.6404
924.6441
924.6491
924.6552
924.6624
924.67
924.6771
924.6852
924.6934
924.7019
924.7106
924.7185
924.727
924.7358
924.7451
924.7547
924.7648
924.7751
924.7828
924.7916
924.7977
924.8033
924.5879
924.5921
924.5988
924.6093
924.6089
924.6138
924.6206
924.6289
924.6378
924.6474
924.6572
924.6668
924.6775
924.6878
924.6978
924.7081
924.7185
924.7292
924.7403
924.7518
924.7609
924.7716
924.7794
924.7861
924.5551
924.5546
924.5625
924.5698
924.581
924.5822
924.5887
924.5973
924.6069
924.6173
924.6281
924.6396
924.6516
924.6632
924.675
924.6869
924.6988
924.7107
924.7234
924.7335
924.7462
924.7554
924.7637
924.7703
924.5322
924.5331
924.5403
924.5467
924.5577
924.561
924.569
924.5786
924.5891
924.6006
924.6123
924.6245
924.637
924.65
924.6633
924.677
924.6877
924.7001
924.7147
924.7256
924.7355
924.745
924.5181
924.5203
924.5235
924.5305
924.5383
924.5495
924.5552
924.5647
924.5756
924.5871
924.599
924.6111
924.6234
924.6361
924.6492
924.6641
924.677
924.6895
924.7029
924.7114
924.5111
924.513
924.5204
924.5279
924.5362
924.5451
924.5555
924.5666
924.5778
924.5892
924.6008
924.6126
924.625
924.6363
924.6479
924.6593
924.502
924.5038
924.5126
924.5222
924.529
924.5386
924.5488
924.5592
924.5695
924.5798
924.5908
924.6036
924.612
924.6199
924.5142
924.5158
924.5245
924.5344
924.5441
924.553
924.5608
924.5669
924.4555
924.4592
924.4708
924.4821
924.4919
924.4991
924.4148
924.4168
924.4295
924.4431
924.4566
924.4674
924.4795
924.491
924.5015
924.5111
924.5206
924.5267
924.5323
924.5365
924.4052
924.4074
924.4165
924.4244
924.4364
924.4513
924.4638
924.4759
924.4883
924.4998
924.5103
924.5196
924.5278
924.5348
924.541
924.5473
924.5527
924.5567
924.4079
924.4101
924.4158
924.4251
924.4336
924.4454
924.457
924.4713
924.4844
924.4971
924.5088
924.5195
924.529
924.5373
924.544
924.5506
924.5574
924.5645
924.5712
924.5779
924.4109
924.4129
924.4188
924.4277
924.4328
924.4426
924.4544
924.467
924.4806
924.4937
924.5062
924.5178
924.5284
924.5383
924.5474
924.5561
924.5649
924.5739
924.5825
924.5934
924.6053
924.6171
924.4156
924.4174
924.425
924.4296
924.4364
924.4446
924.4549
924.4665
924.4791
924.4919
924.5045
924.5166
924.528
924.5388
924.5495
924.5602
924.5714
924.5834
924.5965
924.6106
924.6236
924.6399
924.6602
924.676
924.4232
924.4249
924.4331
924.4363
924.4425
924.4501
924.4592
924.4694
924.481
924.4934
924.5059
924.518
924.5299
924.5416
924.5534
924.5656
924.5785
924.5926
924.6079
924.6251
924.6436
924.6629
924.6831
924.6992
924.719
924.735
924.4347
924.4365
924.4449
924.4472
924.4526
924.4595
924.4676
924.4764
924.4868
924.4983
924.5104
924.5227
924.5351
924.5478
924.5609
924.5746
924.5889
924.6042
924.6207
924.6385
924.658
924.6785
924.6997
924.7206
924.74
924.7534
924.7683
924.7799
924.4523
924.4512
924.4571
924.4649
924.4679
924.4738
924.4811
924.4886
924.4979
924.5085
924.5201
924.5324
924.5452
924.5584
924.5724
924.5871
924.6028
924.6193
924.6367
924.6543
924.6726
924.6917
924.7116
924.7316
924.7511
924.769
924.7842
924.7948
924.802
924.8078
924.4845
924.4845
924.4909
924.4904
924.4963
924.5025
924.5087
924.517
924.5267
924.5376
924.5497
924.5626
924.5763
924.5907
924.606
924.6216
924.638
924.6548
924.6724
924.6897
924.7062
924.7229
924.74
924.7572
924.7738
924.7894
924.8027
924.8099
924.8174
924.8214
924.5398
924.5256
924.5344
924.5299
924.5339
924.5383
924.5419
924.5487
924.5572
924.5669
924.5778
924.59
924.6035
924.6179
924.6326
924.6476
924.6626
924.6776
924.6927
924.7078
924.7226
924.7363
924.7487
924.7619
924.7753
924.7889
924.8017
924.8131
924.8215
924.8255
924.8287
924.8306
924.6094
924.5988
924.5997
924.5936
924.5938
924.5951
924.5975
924.6034
924.6109
924.6195
924.6293
924.6407
924.6533
924.6663
924.6795
924.6924
924.7048
924.7168
924.7283
924.7394
924.7501
924.7602
924.7687
924.7775
924.7875
924.7981
924.809
924.8189
924.8269
924.8319
924.8338
924.8349
924.6863
924.6826
924.6708
924.6647
924.6627
924.6608
924.6627
924.6665
924.6718
924.6781
924.6856
924.6944
924.7041
924.714
924.7238
924.7331
924.7417
924.7497
924.757
924.7639
924.7704
924.7768
924.7822
924.7876
924.7948
924.8032
924.8124
924.8215
924.8292
924.8344
924.8363
924.8372
924.7406
924.7402
924.7343
924.7318
924.7285
924.7247
924.7241
924.7254
924.7278
924.7311
924.7356
924.7409
924.7468
924.7528
924.7586
924.7638
924.7685
924.7726
924.7761
924.7794
924.7825
924.7857
924.7887
924.7922
924.7971
924.8039
924.8122
924.8214
924.8294
924.8353
924.8376
924.8386
924.7856
924.7825
924.7852
924.7812
924.7779
924.7747
924.7709
924.769
924.7683
924.7684
924.7691
924.7705
924.7725
924.7749
924.7773
924.7794
924.7812
924.7825
924.7834
924.7841
924.7845
924.785
924.7858
924.7868
924.7891
924.7923
924.7984
924.8068
924.8169
924.8264
924.8339
924.8381
924.839
924.8394
924.7998
924.8
924.8004
924.7988
924.7976
924.7959
924.7934
924.7915
924.7901
924.7888
924.7878
924.7871
924.7868
924.7866
924.7864
924.786
924.7853
924.7844
924.7833
924.782
924.7807
924.7796
924.7791
924.7792
924.7807
924.7841
924.7901
924.7996
924.8114
924.823
924.8326
924.8382
924.8393
924.8397
924.8013
924.8017
924.8022
924.8012
924.8005
924.7995
924.7977
924.7959
924.7942
924.7923
924.7903
924.7885
924.7869
924.7854
924.7839
924.7824
924.7807
924.7789
924.7771
924.7754
924.7737
924.7724
924.7719
924.7722
924.774
924.7789
924.7854
924.7961
924.8092
924.8218
924.8323
924.8385
924.8399
924.8403
924.798
924.7982
924.7986
924.7973
924.7965
924.7953
924.7931
924.791
924.7889
924.7865
924.7841
924.7819
924.78
924.7782
924.7766
924.7749
924.7732
924.7716
924.7699
924.7683
924.7669
924.766
924.7659
924.7664
924.769
924.7748
924.7823
924.7941
924.8082
924.8217
924.8328
924.8394
924.8408
924.8414
924.7921
924.7924
924.7929
924.7913
924.7902
924.7888
924.7865
924.7844
924.7825
924.7804
924.7783
924.7765
924.7751
924.774
924.773
924.7721
924.7711
924.77
924.7689
924.7678
924.7668
924.7662
924.7663
924.7667
924.7695
924.7745
924.7824
924.7941
924.8083
924.8219
924.833
924.8394
924.8406
924.8412
924.7802
924.7793
924.7822
924.78
924.7785
924.7767
924.774
924.7719
924.7701
924.7686
924.7672
924.766
924.7655
924.7655
924.7658
924.7662
924.7668
924.7673
924.7677
924.7683
924.7689
924.7699
924.7715
924.7734
924.7774
924.7824
924.7906
924.8011
924.8132
924.8242
924.8328
924.8374
924.8384
924.8387
924.7599
924.7604
924.7587
924.7575
924.7552
924.752
924.7499
924.7486
924.7476
924.7468
924.7464
924.7467
924.7477
924.7492
924.751
924.753
924.7551
924.7574
924.7598
924.7625
924.7656
924.7691
924.7733
924.7786
924.7856
924.7946
924.805
924.8158
924.8249
924.8313
924.8335
924.8351
924.7358
924.7358
924.732
924.7278
924.7251
924.7221
924.7202
924.7193
924.719
924.7191
924.7196
924.7207
924.7228
924.7254
924.7285
924.7317
924.7352
924.739
924.743
924.7474
924.7524
924.7573
924.7637
924.7706
924.78
924.7906
924.8019
924.8127
924.8215
924.8271
924.8291
924.8301
924.6989
924.6963
924.6972
924.6915
924.6888
924.6863
924.6839
924.6836
924.6844
924.6857
924.6877
924.6904
924.6939
924.6979
924.7022
924.7068
924.7117
924.717
924.7227
924.7289
924.7352
924.7421
924.7498
924.7591
924.7706
924.7831
924.796
924.8074
924.8164
924.8217
924.8238
924.8251
924.65
924.6427
924.65
924.6461
924.6458
924.6452
924.6436
924.6442
924.6462
924.6491
924.6528
924.6575
924.6628
924.6686
924.6745
924.6806
924.6871
924.6942
924.702
924.71
924.7173
924.726
924.7356
924.7476
924.7611
924.7755
924.7894
924.8015
924.8102
924.8141
924.8172
924.8191
924.6033
924.6034
924.6053
924.601
924.6025
924.6039
924.6049
924.6078
924.612
924.6175
924.6241
924.6312
924.6387
924.6463
924.6543
924.6626
924.6718
924.6815
924.6906
924.6995
924.7103
924.7226
924.7367
924.752
924.7675
924.7822
924.7948
924.8016
924.8076
924.8111
924.5578
924.5513
924.5571
924.5636
924.5625
924.5655
924.5696
924.5728
924.5777
924.5842
924.5921
924.6007
924.6098
924.6191
924.6289
924.6391
924.65
924.6607
924.6712
924.6826
924.6953
924.7096
924.7254
924.7418
924.758
924.7728
924.7849
924.7926
924.7978
924.8022
924.522
924.52
924.5294
924.5287
924.5322
924.537
924.5427
924.5478
924.5547
924.5633
924.5728
924.5831
924.5938
924.6051
924.6167
924.6286
924.6403
924.6526
924.6656
924.6799
924.6957
924.7124
924.7294
924.7457
924.7602
924.7691
924.7782
924.786
924.4956
924.4956
924.5049
924.5062
924.5105
924.5165
924.5229
924.5297
924.5386
924.5485
924.5594
924.5709
924.5831
924.5952
924.6075
924.6203
924.6338
924.6483
924.6635
924.68
924.6968
924.7132
924.7289
924.7392
924.7512
924.762
924.4792
924.4801
924.4884
924.4907
924.497
924.5026
924.5099
924.5188
924.5287
924.5399
924.5514
924.5634
924.5757
924.5882
924.6013
924.615
924.6298
924.6453
924.6617
924.6781
924.6899
924.703
924.7167
924.7294
924.4691
924.4706
924.4765
924.485
924.4879
924.4943
924.5027
924.5125
924.5237
924.5353
924.5472
924.5592
924.5714
924.5838
924.5967
924.6099
924.6241
924.6389
924.6508
924.6655
924.6778
924.691
924.4631
924.4648
924.4701
924.4778
924.4823
924.4909
924.4996
924.5111
924.5222
924.5337
924.5452
924.5566
924.5681
924.5799
924.5897
924.6005
924.6121
924.6251
924.6353
924.6475
924.4583
924.4602
924.4661
924.4715
924.4807
924.4927
924.5015
924.5112
924.5219
924.5326
924.5429
924.5529
924.5629
924.573
924.5823
924.5922
924.6028
924.6109
924.4608
924.4621
924.4717
924.4824
924.4933
924.5011
924.5112
924.5213
924.5311
924.5408
924.5513
924.5587
924.5658
924.5721
924.4901
924.4917
924.5009
924.5102
924.5183
924.5244
924.4106
924.4128
924.4248
924.4386
924.453
924.4669
924.4798
924.4911
924.5001
924.5067
924.3793
924.3806
924.3932
924.4072
924.4175
924.4328
924.4467
924.4612
924.4751
924.4878
924.4992
924.5089
924.517
924.5243
924.5298
924.5342
924.378
924.3799
924.3866
924.3973
924.4101
924.4232
924.4368
924.4533
924.4692
924.4841
924.4974
924.5088
924.5172
924.5246
924.5311
924.537
924.5425
924.5463
924.3672
924.3685
924.3782
924.3808
924.3872
924.3984
924.4119
924.427
924.4434
924.461
924.478
924.4938
924.5075
924.5189
924.5279
924.5353
924.5415
924.5468
924.5513
924.5564
924.5615
924.5654
924.3694
924.3711
924.3774
924.3799
924.3824
924.3903
924.4024
924.4169
924.4331
924.4507
924.4687
924.486
924.5018
924.5159
924.528
924.5381
924.5464
924.5534
924.5593
924.5646
924.57
924.5754
924.5837
924.5925
924.3727
924.3742
924.3808
924.3826
924.3851
924.3898
924.398
924.4108
924.426
924.4427
924.4603
924.4777
924.4942
924.5092
924.5227
924.5347
924.5457
924.5558
924.5653
924.5741
924.5824
924.5908
924.6004
924.6105
924.6259
924.6423
924.3788
924.3802
924.3877
924.3893
924.3914
924.395
924.4018
924.4117
924.4246
924.4399
924.4566
924.4732
924.4893
924.5043
924.518
924.5305
924.5421
924.5535
924.5651
924.5772
924.5902
924.604
924.6182
924.6336
924.6505
924.6654
924.6859
924.7052
924.3888
924.3902
924.3984
924.4001
924.4025
924.4052
924.4103
924.4182
924.4287
924.4418
924.4566
924.4723
924.4879
924.5029
924.5167
924.5294
924.5414
924.5531
924.5652
924.5784
924.5929
924.6096
924.628
924.6479
924.6685
924.6891
924.709
924.7236
924.7415
924.7558
924.408
924.4138
924.415
924.4179
924.4201
924.4239
924.4301
924.4385
924.4493
924.4619
924.4759
924.4904
924.5047
924.5186
924.5318
924.5446
924.5572
924.5701
924.5834
924.5978
924.614
924.6329
924.6537
924.6764
924.7004
924.7236
924.7443
924.7619
924.7727
924.7843
924.435
924.4325
924.434
924.4367
924.4401
924.4427
924.4474
924.4541
924.4627
924.4732
924.4853
924.4985
924.5121
924.5258
924.5394
924.5528
924.5659
924.5792
924.5929
924.6076
924.6235
924.6401
924.6588
924.6801
924.703
924.727
924.751
924.7718
924.7877
924.7995
924.8065
924.8131
924.487
924.4683
924.4667
924.4648
924.4665
924.4681
924.4717
924.4767
924.4835
924.4922
924.5024
924.5141
924.5267
924.54
924.5536
924.5669
924.5804
924.5941
924.6083
924.6224
924.6372
924.6524
924.6688
924.6855
924.7042
924.7253
924.7473
924.7696
924.7899
924.8048
924.8141
924.8201
924.8234
924.8265
924.5281
924.5184
924.51
924.509
924.5067
924.5081
924.511
924.5154
924.522
924.5304
924.5403
924.5514
924.5638
924.5763
924.5895
924.6028
924.616
924.6292
924.6424
924.6556
924.6692
924.6826
924.6964
924.7101
924.7248
924.7417
924.7609
924.7809
924.7999
924.8153
924.824
924.8283
924.8304
924.8326
924.5994
924.595
924.5774
924.5709
924.565
924.5634
924.5643
924.5673
924.5728
924.58
924.5887
924.5987
924.6098
924.6215
924.6335
924.6454
924.657
924.6682
924.6789
924.6893
924.6995
924.7097
924.7203
924.7307
924.741
924.7536
924.7689
924.7869
924.8043
924.8202
924.8299
924.8334
924.8351
924.8362
924.7054
924.6815
924.6741
924.6569
924.643
924.6348
924.6306
924.629
924.6301
924.6335
924.6385
924.6448
924.6529
924.6616
924.6709
924.6802
924.6892
924.6977
924.7056
924.7128
924.7195
924.7259
924.7322
924.7388
924.7462
924.7527
924.7616
924.7736
924.7889
924.8055
924.8211
924.832
924.836
924.8374
924.838
924.8386
924.7505
924.7441
924.7332
924.7233
924.7125
924.7047
924.6991
924.6952
924.6939
924.6947
924.697
924.7005
924.7052
924.7106
924.7163
924.7219
924.7272
924.7319
924.7359
924.7393
924.7421
924.7447
924.7473
924.7503
924.7543
924.7579
924.7637
924.7731
924.7865
924.8032
924.8189
924.8316
924.8373
924.8388
924.8394
924.8399
924.7815
924.7801
924.7769
924.7718
924.7645
924.7577
924.7525
924.7481
924.7453
924.744
924.7435
924.7445
924.7458
924.7476
924.7496
924.7514
924.7529
924.7538
924.7541
924.7539
924.7532
924.7522
924.7513
924.7509
924.7516
924.7524
924.7555
924.763
924.7756
924.7933
924.8113
924.828
924.8374
924.8392
924.8397
924.8401
924.7962
924.7964
924.7947
924.7924
924.789
924.7854
924.7819
924.7784
924.7754
924.7729
924.771
924.7696
924.7683
924.7672
924.766
924.7647
924.763
924.7608
924.7581
924.7549
924.7514
924.7477
924.7442
924.7413
924.7399
924.7392
924.7412
924.7483
924.7616
924.7813
924.8025
924.8236
924.8371
924.8394
924.8399
924.8402
924.7982
924.7987
924.7976
924.7963
924.7942
924.7922
924.7899
924.787
924.784
924.781
924.7783
924.7753
924.7723
924.7693
924.7662
924.7629
924.7594
924.7554
924.7512
924.7467
924.742
924.7374
924.7333
924.7303
924.7291
924.729
924.7318
924.7401
924.7549
924.7763
924.799
924.8219
924.8368
924.8399
924.8405
924.8407
924.7947
924.7951
924.7937
924.792
924.7896
924.7873
924.7847
924.7815
924.7781
924.7745
924.7712
924.7675
924.7638
924.7601
924.7564
924.7526
924.7487
924.7445
924.7401
924.7357
924.7312
924.727
924.7234
924.7211
924.7208
924.7212
924.7251
924.7347
924.751
924.7738
924.798
924.8221
924.8377
924.841
924.8416
924.842
924.7882
924.7886
924.787
924.7848
924.7817
924.7788
924.7758
924.7722
924.7686
924.765
924.7617
924.7585
924.7553
924.7523
924.7495
924.7467
924.7438
924.7407
924.7374
924.7339
924.7303
924.7268
924.7238
924.7219
924.7216
924.7213
924.7251
924.7347
924.7511
924.7743
924.7989
924.8233
924.8386
924.8409
924.8415
924.8419
924.7756
924.7757
924.7746
924.7718
924.7675
924.7635
924.7596
924.7554
924.7516
924.7482
924.745
924.7427
924.7404
924.7386
924.7372
924.7361
924.7351
924.7342
924.7331
924.7321
924.7311
924.7303
924.7301
924.7308
924.7325
924.7346
924.7402
924.7506
924.7664
924.7873
924.8079
924.8266
924.8371
924.8387
924.839
924.84
924.7582
924.7569
924.7532
924.7485
924.7433
924.7381
924.7332
924.7285
924.7245
924.7213
924.7185
924.7166
924.7152
924.7144
924.7141
924.7143
924.7148
924.7155
924.7164
924.7175
924.719
924.721
924.7239
924.7279
924.7326
924.7383
924.7473
924.7601
924.7768
924.7964
924.8142
924.828
924.8338
924.8349
924.8354
924.8361
924.7335
924.7258
924.7263
924.7184
924.711
924.7038
924.6981
924.6932
924.6894
924.6867
924.6847
924.6833
924.6834
924.6836
924.6845
924.6858
924.6874
924.6893
924.6915
924.6941
924.6973
924.7012
924.7062
924.7128
924.7192
924.7282
924.7405
924.7565
924.7757
924.7954
924.8131
924.8249
924.829
924.8303
924.831
924.832
924.6875
924.6869
924.6776
924.6708
924.6627
924.6569
924.6524
924.6491
924.6473
924.6467
924.647
924.6482
924.6502
924.6525
924.6553
924.6583
924.6614
924.6649
924.6688
924.6734
924.6791
924.6859
924.6934
924.7017
924.7134
924.729
924.7484
924.7705
924.7912
924.8092
924.8196
924.8233
924.8253
924.8268
924.6364
924.6331
924.6269
924.6224
924.6163
924.612
924.6087
924.6066
924.6062
924.6071
924.6093
924.6124
924.6166
924.6206
924.6253
924.6299
924.6347
924.6396
924.6451
924.6514
924.659
924.6672
924.6752
924.686
924.7006
924.7194
924.7418
924.7652
924.787
924.8038
924.8125
924.8169
924.8191
924.8216
924.5977
924.5843
924.5816
924.5751
924.5716
924.5682
924.5663
924.5657
924.5665
924.5689
924.5727
924.5778
924.5838
924.5903
924.5972
924.6034
924.6102
924.6169
924.6244
924.6319
924.6406
924.6497
924.6602
924.6738
924.6914
924.7129
924.7363
924.7599
924.7813
924.7961
924.8045
924.8102
924.8136
924.8166
924.5371
924.5313
924.5297
924.5296
924.53
924.5284
924.529
924.5311
924.5346
924.5396
924.5461
924.5539
924.5622
924.5709
924.5795
924.5883
924.5967
924.6054
924.6144
924.6243
924.6347
924.6475
924.6639
924.6843
924.7069
924.7307
924.7542
924.7734
924.7866
924.796
924.8017
924.8072
924.4945
924.4977
924.496
924.4973
924.4968
924.498
924.5007
924.5051
924.5109
924.5185
924.5275
924.5375
924.5477
924.558
924.5682
924.5783
924.5885
924.5989
924.6096
924.6218
924.6367
924.6552
924.6761
924.6989
924.7224
924.7437
924.7607
924.774
924.7822
924.7898
924.4643
924.4626
924.4711
924.4712
924.4727
924.4736
924.4761
924.4807
924.4868
924.4949
924.5049
924.5162
924.5281
924.5399
924.5516
924.5632
924.5741
924.5852
924.5973
924.6112
924.6269
924.6458
924.6664
924.6882
924.7093
924.7279
924.7442
924.7552
924.766
924.7758
924.4455
924.4459
924.4537
924.4545
924.4558
924.4576
924.4618
924.4674
924.4755
924.486
924.4983
924.5115
924.5247
924.5375
924.5499
924.5619
924.574
924.5867
924.6009
924.6164
924.6343
924.6533
924.672
924.6904
924.7075
924.7197
924.7328
924.7471
924.4347
924.4358
924.4426
924.4436
924.4448
924.4479
924.4523
924.4596
924.4703
924.4829
924.4967
924.5109
924.5249
924.5384
924.5513
924.564
924.5769
924.5903
924.6046
924.6197
924.6352
924.6511
924.6673
924.6787
924.6926
924.7092
924.4284
924.4297
924.4357
924.4365
924.4379
924.4414
924.4487
924.4592
924.4716
924.4856
924.5003
924.5149
924.529
924.5423
924.5548
924.5666