/*--------------------------------*- C++ -*----------------------------------*\
  =========                 |
  \\      /  F ield         | OpenFOAM: The Open Source CFD Toolbox
   \\    /   O peration     | Website:  https://openfoam.org
    \\  /    A nd           | Version:  6
     \\/     M anipulation  |
\*---------------------------------------------------------------------------*/
FoamFile
{
    version     2.0;
    format      ascii;
    class       volScalarField;
    location    "50";
    object      alphat;
}
// * * * * * * * * * * * * * * * * * * * * * * * * * * * * * * * * * * * * * //

dimensions      [1 -1 -1 0 0 0 0];

internalField   nonuniform List<scalar> 
238185
(
5.943642
6.964027
7.214192
7.267303
6.235585
6.978755
7.134096
8.073125
8.641175
9.200902
8.445399
8.58677
6.657045
7.260552
7.36447
8.153287
8.563761
9.055602
9.453638
9.843833
10.15094
10.61698
9.585505
9.744887
7.333255
8.007746
8.780706
9.089578
9.403993
9.690552
9.96803
10.24515
10.54861
10.89939
11.27592
11.63294
12.09719
10.61351
9.481618
10.14946
10.33622
10.44707
10.5682
10.73094
10.90812
11.11805
11.38669
11.72419
12.10317
12.60394
13.13583
13.31932
9.614104
11.02235
11.45788
11.3994
11.35683
11.35285
11.38961
11.48769
11.61045
11.78914
11.99013
12.24795
12.56208
12.92239
13.05728
11.33527
11.83412
12.33738
12.15458
11.97005
11.82174
11.71873
11.7066
11.71635
11.74695
11.87985
12.0778
12.27179
12.55666
12.93326
13.28057
13.32466
10.26977
12.52356
12.70126
12.3897
12.12055
11.86852
11.7403
11.63638
11.55837
11.5369
11.5806
11.70421
11.88381
12.04759
12.32851
12.61921
12.70976
11.01427
12.12242
12.98566
12.7958
12.4491
12.13779
11.83516
11.75355
11.51385
11.51859
11.43679
11.5547
11.55374
11.85061
11.98872
12.28955
12.64931
12.96263
12.88296
11.61318
12.54276
12.37216
12.05192
11.72912
11.42438
11.35059
11.14013
11.14957
11.06874
11.19711
11.18896
11.48918
11.60817
11.89805
12.20679
12.47915
12.40046
9.486891
11.46854
11.71895
11.41245
11.12018
10.85999
10.73268
10.63439
10.56244
10.54288
10.58811
10.71255
10.88418
11.01552
11.26259
11.46719
11.53618
10.14881
10.75366
11.07904
10.81196
10.57002
10.38599
10.2576
10.2329
10.22849
10.24632
10.37528
10.55613
10.72302
10.97039
11.26419
11.51924
11.54218
8.828091
9.90551
10.11957
9.953851
9.838853
9.773267
9.769571
9.830294
9.930446
10.08322
10.25856
10.48866
10.77649
11.05455
11.18144
9.906374
8.877671
9.203598
9.203759
9.176443
9.173926
9.240462
9.31108
9.51556
9.679325
9.952515
10.25815
10.64653
11.06672
11.21673
7.104279
7.582705
8.18821
8.329347
8.467057
8.614828
8.745606
8.980371
9.143292
9.411807
9.65397
9.898126
10.22848
9.170674
6.630733
7.042246
7.020728
7.663576
7.963182
8.261361
8.582112
8.801776
8.972052
9.215673
8.403945
8.539521
6.136707
6.647632
6.82284
7.649882
8.173495
8.501404
7.828634
7.996294
5.752973
6.55753
6.930389
7.142946
6.936374
9.124421
9.591148
9.72281
9.731782
9.626196
9.437087
9.169462
8.842163
8.471138
6.402966
7.974848
8.074639
9.272248
9.624598
9.741417
9.772101
9.719166
9.637736
9.581536
9.667782
9.907634
8.913135
8.834103
6.32468
7.420178
8.380122
8.782038
9.333778
9.561626
9.702691
9.837168
9.906133
9.940499
9.977322
10.10059
10.2716
10.32183
10.65637
9.345401
6.401656
7.464444
8.373912
8.836864
9.106687
9.342182
9.46351
9.510078
10.4184
10.59856
10.75308
10.93676
11.10273
11.33648
11.62297
11.99712
12.21558
10.6441
6.684324
7.659694
8.497831
8.815438
8.957526
9.046457
9.063839
10.137
10.22224
11.54339
11.9162
12.174
12.28515
12.49629
12.81953
13.01016
13.20369
13.37337
13.31163
11.46919
6.821863
7.733012
8.488742
8.633922
8.680375
8.667649
9.815494
9.93304
11.40913
12.06622
12.90096
13.41583
13.771
14.01858
14.23546
14.25108
14.36382
14.51732
14.42265
14.40039
14.28784
12.37508
8.052941
8.596834
8.681984
8.678941
8.717788
9.824705
11.40865
12.15569
13.05284
13.70187
14.31033
14.81258
15.23888
15.56919
15.7662
15.91197
15.9479
15.79287
15.79652
15.71977
15.79122
15.66691
8.13338
9.581185
9.974245
10.03371
10.1702
10.36538
12.1973
13.24153
13.93339
14.52776
15.02718
15.4775
15.87975
16.24047
16.55049
16.78944
16.91949
16.94989
16.76262
16.47467
16.21397
16.06791
15.8929
13.52366
9.959727
10.60183
10.52362
10.53075
10.61177
12.1539
13.79624
14.54197
15.04549
15.44193
15.78324
16.0941
16.37476
16.63026
16.85095
17.02766
17.12999
17.1173
16.91573
16.6139
16.33505
16.06702
15.93567
15.452
11.37699
11.77723
11.69162
11.74204
12.06648
13.76352
14.5747
15.08354
15.42023
15.68191
15.91505
16.12774
16.32481
16.51617
16.69143
16.83712
16.94307
16.95743
16.84584
16.56242
16.2301
15.98427
15.85595
15.49205
10.81904
10.9034
10.81235
10.83966
12.84247
14.06814
14.63671
14.98535
15.2129
15.40476
15.57417
15.73761
15.89765
16.05908
16.21674
16.36514
16.48111
16.54549
16.51617
16.36461
16.17724
16.00016
15.89655
15.60201
11.44099
11.72303
11.65785
11.68181
13.16275
13.78413
14.21295
14.47267
14.64549
14.80782
14.9353
15.084
15.21806
15.37005
15.50357
15.6553
15.77338
15.86643
15.89223
15.83701
15.66933
15.49901
15.4356
15.19421
10.79378
11.03752
10.98648
11.02935
12.44933
13.0516
13.4652
13.71343
13.87901
14.03353
14.15367
14.28999
14.4113
14.54656
14.66366
14.79593
14.89844
14.98032
15.01675
14.98729
14.86043
14.73875
14.6394
14.45338
9.499047
9.490659
9.400703
9.405967
11.16408
12.25459
12.75535
13.06271
13.26158
13.42584
13.56646
13.6969
13.81949
13.93828
14.04916
14.1487
14.22101
14.25652
14.24107
14.13993
13.99567
13.91471
13.80522
13.61682
10.1013
10.09408
9.924777
9.934916
10.14666
11.5098
12.16623
12.59132
12.86881
13.08081
13.26855
13.4371
13.59134
13.73921
13.87162
13.97981
14.05747
14.07828
14.02401
13.86036
13.64558
13.46395
13.33015
13.09891
8.793534
8.92185
8.77194
8.717102
8.766013
10.19312
11.47011
12.06259
12.4482
12.73755
12.98385
13.20745
13.41343
13.60307
13.77144
13.91186
14.00337
14.02554
13.9335
13.7637
13.6164
13.46794
13.34681
13.01812
7.619849
8.566942
8.755388
8.67859
8.770337
8.949418
10.46039
11.27906
11.79161
12.19631
12.51811
12.79403
13.04737
13.26489
13.46098
13.61977
13.73372
13.78453
13.71367
13.58396
13.50839
13.53993
13.45679
11.76358
7.431122
7.612452
7.559748
7.574566
7.628139
8.714402
10.11871
10.73052
11.40504
11.8396
12.20207
12.4756
12.67067
12.80344
12.91768
12.97378
12.98026
12.88515
12.91552
12.94772
13.07833
13.04025
6.624735
7.120012
7.599135
7.644373
7.658772
7.664132
8.767292
8.96754
10.34565
10.89251
11.51093
11.81383
11.94783
12.02977
12.05798
11.9902
11.97933
11.96976
11.87034
11.81525
11.69064
10.37284
6.563642
7.156428
7.794802
7.937726
8.004539
8.099706
8.14473
9.237463
9.370468
10.70383
11.02585
11.194
11.19526
11.25432
11.33491
11.34787
11.36426
11.34967
11.18419
9.893652
6.369233
6.962174
7.63381
7.910636
8.102464
8.307692
8.490851
8.646431
9.751845
10.02252
10.22137
10.40303
10.5009
10.6422
10.74786
10.87281
10.84096
9.669255
5.993084
6.655724
7.339863
7.661211
8.050573
8.316943
8.572698
8.829052
9.151092
9.365357
9.55292
9.740397
9.905338
9.918662
10.08801
9.089719
5.807603
6.624532
6.799617
7.547058
7.838854
8.074605
8.274816
8.512049
8.663773
8.873202
9.148718
9.432838
8.647686
8.720876
5.977167
7.239231
7.603902
7.766938
7.839901
7.954815
7.962257
7.989971
8.020776
8.078689
7.855424
10.35282
10.92863
11.0404
10.945
10.67916
10.20318
9.507037
7.629103
10.08984
10.51614
10.26194
11.62873
11.94732
11.99396
11.93534
11.85102
11.81766
11.94435
10.72478
9.993541
9.127363
7.558337
9.223689
10.77143
11.3059
11.69607
12.36291
12.55972
12.57362
12.51715
12.4364
12.32991
12.09373
11.50371
11.0732
10.70414
9.249088
6.607447
8.481639
8.975563
10.27524
11.21966
11.88782
12.66724
13.05359
13.16015
13.13706
13.04579
12.90679
12.71133
12.42557
12.03904
11.72769
11.37207
10.9806
9.663713
9.159944
6.38078
7.906847
9.13578
9.821965
10.71735
12.0105
12.36468
13.3078
13.59219
13.68319
13.66317
13.5739
13.43154
13.24174
13.00334
12.7064
12.44004
12.19768
11.97761
11.58873
11.33937
9.748039
6.289263
7.646334
8.754528
9.391216
9.786396
10.99006
12.4493
13.0163
13.62396
13.90333
14.07537
14.06732
14.01896
13.95885
13.8856
13.82014
13.76725
13.71925
13.62402
13.46906
13.45498
13.21882
12.79439
10.84485
7.361776
8.395987
8.814512
9.003394
10.15946
11.74321
12.71467
13.25969
13.74553
14.07258
14.38196
14.71612
14.80685
14.83614
14.89801
15.01538
15.16265
15.31498
15.42482
15.42876
15.30197
15.35671
15.10701
14.69785
6.858562
7.948672
8.31255
8.392757
9.540725
11.04006
12.03267
12.74551
13.27006
13.79213
14.47857
14.96253
15.58887
15.95248
16.14137
16.29634
16.48736
16.70002
16.88256
17.00261
17.00601
16.82633
16.50234
16.16509
15.46085
13.07998
6.416522
7.467378
7.884889
7.900621
9.077635
10.4296
11.2543
11.9749
12.74057
13.70779
14.4094
15.3504
16.04072
16.71632
17.22473
17.6045
17.84159
17.99683
18.15318
18.25741
18.28692
18.21071
18.00818
17.63006
17.12856
16.5772
15.59304
12.68608
7.984643
8.559191
8.625591
8.716736
10.08506
10.79305
11.40535
12.26402
13.62849
14.91045
15.81302
16.67944
17.37931
17.99651
18.50177
18.90491
19.19994
19.38738
19.47619
19.54277
19.54695
19.5076
19.44221
19.31935
19.08267
18.73838
18.221
17.43552
8.8643
8.919527
8.907113
10.25722
11.34597
11.93517
12.6559
13.67922
15.37248
16.52084
17.36208
18.06345
18.64248
19.13396
19.54076
19.86817
20.11587
20.27943
20.33741
20.34097
20.2837
20.18355
20.06293
19.90683
19.65619
19.31035
18.92351
18.1877
8.663011
10.2842
10.37686
10.3903
11.64864
12.23438
12.85934
13.81079
15.45469
16.95226
17.86895
18.52251
19.02859
19.43404
19.76422
20.02793
20.2311
20.37433
20.45299
20.44904
20.33835
20.18639
19.97533
19.72557
19.44198
19.06096
18.47943
17.77483
16.81935
13.60482
11.08629
11.71828
11.56085
11.57219
12.75957
13.32204
14.02955
15.05858
16.80507
17.83685
18.49769
18.94336
19.26355
19.50276
19.68156
19.80944
19.89275
19.93228
19.92435
19.85848
19.71019
19.52839
19.29225
19.02826
18.73723
18.38031
17.8619
17.25912
16.45989
15.22932
11.206
11.36771
11.12845
11.07141
12.14234
12.80712
13.8222
15.69883
17.08378
17.82494
18.27129
18.5515
18.73965
18.86926
18.9591
19.01749
19.05043
19.0599
19.04548
18.99973
18.90873
18.79643
18.65844
18.50628
18.34656
18.16134
17.8644
17.49354
16.96708
16.14162
11.39594
11.68969
11.47313
11.42619
12.46836
13.02437
13.88158
15.61404
16.51366
17.038
17.33696
17.51344
17.62631
17.69714
17.74574
17.77541
17.79365
17.79835
17.7934
17.77162
17.72521
17.66558
17.59439
17.51576
17.44034
17.35653
17.19677
16.95988
16.59998
15.98969
10.71536
10.95716
10.75073
10.68008
11.60013
12.09796
12.88753
14.53253
15.34305
15.79124
16.0416
16.19123
16.29065
16.3577
16.4083
16.44503
16.47365
16.49291
16.50609
16.50774
16.49121
16.47254
16.45113
16.43066
16.41608
16.3892
16.2858
16.09211
15.79092
15.24983
9.779742
9.778627
9.526372
9.454152
10.25684
10.76919
11.60334
13.26856
14.47035
15.02961
15.34256
15.53229
15.65876
15.74694
15.80997
15.85335
15.88079
15.89365
15.89209
15.87157
15.83002
15.7838
15.72983
15.67446
15.61976
15.54025
15.36783
15.1031
14.72504
14.09798
9.757908
9.941923
9.704645
9.674183
10.46123
10.8568
11.39512
12.2101
13.75412
14.53518
14.98154
15.25849
15.44791
15.58712
15.69215
15.77016
15.82497
15.85654
15.86216
15.83481
15.78364
15.70988
15.61295
15.50249
15.37278
15.191
14.88584
14.48081
13.93473
13.0484
7.636824
8.632686
8.609815
8.597595
9.499715
9.930373
10.41467
11.20679
12.7066
13.91619
14.53952
14.9285
15.20153
15.40855
15.57463
15.71134
15.82397
15.91305
15.9745
15.99552
15.99816
15.97392
15.92504
15.85508
15.75318
15.57219
15.23498
14.76308
14.10738
11.79076
7.778762
7.559785
7.542967
8.847657
9.6811
10.13217
10.72018
11.56763
13.03769
13.85751
14.36564
14.73208
14.99841
15.20503
15.37087
15.50618
15.6176
15.70397
15.77135
15.83936
15.89931
15.96119
16.02934
16.08371
16.0765
15.94908
15.80104
15.37806
7.537083
7.642387
7.637139
7.711731
8.807532
9.351781
9.874776
10.64083
11.903
12.95538
13.57567
14.09102
14.42898
14.67465
14.83839
14.94543
15.00954
15.05142
15.09856
15.14041
15.18627
15.24791
15.32583
15.39594
15.41125
15.35008
15.16916
14.81414
6.322882
6.908066
7.121937
7.110233
8.133031
9.239149
9.877101
10.47223
11.15781
12.04521
12.63478
13.35872
13.78054
14.11347
14.28001
14.3422
14.36327
14.37557
14.37058
14.34432
14.30168
14.22593
14.10168
13.89307
13.61013
13.2996
12.72848
10.84195
6.636928
7.240368
7.459822
7.474942
8.457463
9.728272
10.49902
11.07939
11.55194
12.0417
12.66705
13.06681
13.51761
13.68016
13.72154
13.77283
13.79879
13.8154
13.81026
13.7777
13.69155
13.51375
13.26923
12.96562
12.47537
10.88961
6.92329
7.466506
7.627689
7.711116
8.680426
10.04633
10.85617
11.34725
11.81097
12.16196
12.50599
12.85263
12.95373
13.0185
13.07807
13.113
13.13764
13.14676
13.12161
13.02689
12.85262
12.77951
12.5359
12.21029
6.032998
6.926375
7.611884
7.886067
8.015
9.012174
10.33421
10.86156
11.48532
11.79079
12.03567
12.17838
12.23226
12.29124
12.32174
12.32507
12.29749
12.22799
12.09734
11.88723
11.72938
11.41024
10.9704
9.483598
6.018045
7.023144
7.816083
8.23459
8.602803
9.795487
9.920915
11.07043
11.35448
11.45239
11.53257
11.58048
11.59848
11.59347
11.55252
11.44903
11.28625
11.11802
10.91027
10.50265
10.12636
8.897329
6.089205
7.322724
7.718264
8.559235
9.063431
9.411745
10.40852
10.69968
10.81344
10.84965
10.86284
10.83651
10.80573
10.74827
10.66723
10.64086
10.4143
10.11022
9.050873
8.674305
6.635701
7.717099
8.722552
9.166704
9.529214
10.01335
10.18055
10.20075
10.26337
10.21716
10.18957
10.06567
9.810066
9.688482
9.553495
8.749899
6.408188
8.06524
8.501953
8.32572
9.402515
9.655332
9.693134
9.7136
9.635244
9.626015
9.626659
8.637129
8.323532
7.961339
6.809018
8.531536
8.95814
9.030526
8.939511
8.719953
8.428411
8.15863
7.814745
9.762178
10.02125
9.921619
9.573667
9.043736
7.671527
10.10319
10.97467
11.37802
11.06091
12.21834
12.39359
12.37742
12.36308
12.54727
11.26625
10.30881
9.334222
8.410749
7.337757
9.679939
10.30325
11.96897
12.59139
13.07673
13.35839
13.94142
14.0379
13.97518
13.81919
13.49425
12.68486
12.08252
11.43414
11.01623
9.422598
8.362363
7.469757
9.271745
10.91377
12.2083
13.46883
14.06334
14.41617
15.11082
15.43396
15.44996
15.32978
15.09371
14.6794
13.98337
13.32591
12.63524
11.8643
10.86999
9.989357
8.263638
7.340623
9.0703
10.64303
12.04227
13.31954
14.74101
15.34457
15.77872
16.20354
16.34441
16.2844
16.11876
15.86402
15.50598
15.03225
14.485
13.7836
12.83314
11.83985
10.93504
9.942643
8.467149
7.087791
8.79228
10.51843
12.17039
12.90942
14.60637
15.68963
16.25804
16.63823
16.88274
16.91337
16.80319
16.61152
16.35773
16.04677
15.67493
15.22209
14.65881
13.94825
13.10132
12.31496
11.62371
11.10602
9.683086
6.729888
8.336888
9.670401
11.17811
12.97961
14.06034
15.36881
16.31565
16.81217
17.16228
17.2766
17.25905
17.13762
16.95371
16.72789
16.47285
16.19152
15.87665
15.53867
15.16013
14.7392
14.22251
13.5066
12.68706
11.83943
10.17387
6.149648
7.694841
8.654799
10.16924
12.00087
13.35803
14.44814
15.66527
16.56801
17.04901
17.36549
17.49585
17.51222
17.44016
17.30426
17.1257
16.9683
16.83254
16.72345
16.64327
16.56732
16.47077
16.28589
15.88948
15.14005
14.13804
13.19297
11.0336
6.17534
7.6407
8.466284
8.813222
10.82635
12.14539
13.27346
14.58307
15.79859
16.59755
17.07238
17.38795
17.57568
17.69589
17.7545
17.77959
17.77468
17.77576
17.78447
17.86546
17.98985
18.13211
18.25147
18.28128
18.14333
17.67851
16.71033
15.44702
13.90233
11.09575
7.351354
8.021563
8.10476
9.316952
10.82155
11.92246
13.35562
14.71635
15.74242
16.46572
16.98159
17.39742
17.74503
18.04762
18.31517
18.53082
18.70753
18.87922
19.03169
19.19693
19.39399
19.58544
19.74474
19.81493
19.71997
19.35204
18.5137
17.37565
16.15159
14.55707
6.311617
7.325973
7.271511
8.482257
9.62505
10.63752
12.15795
13.56634
14.66121
15.59007
16.40592
17.12246
17.73286
18.29686
18.77573
19.20644
19.56886
19.87511
20.12952
20.32547
20.46714
20.59505
20.7123
20.78345
20.7987
20.71212
20.44095
19.85776
18.78518
17.41282
15.8835
12.40166
8.061881
8.425786
8.386656
9.509848
10.21994
11.14141
12.65912
13.76317
14.78147
15.84104
16.94849
17.89227
18.65156
19.31631
19.87477
20.35474
20.75246
21.07222
21.31409
21.47631
21.55038
21.55583
21.57288
21.59347
21.62788
21.67734
21.70476
21.61256
21.25422
20.39483
19.22845
17.37139
9.072816
9.24331
9.211652
10.13126
10.92888
12.39819
13.66493
14.68693
15.77916
16.97209
18.21774
19.1818
19.93638
20.55636
21.06286
21.47501
21.79632
22.03004
22.17812
22.24163
22.21959
22.11171
22.01491
21.95162
21.93602
21.97303
22.02786
21.99182
21.69178
20.89547
19.65847
17.90316
9.514915
9.318788
10.7727
11.52713
12.28217
13.725
14.79913
15.90173
17.14128
18.49789
19.64067
20.46366
21.07972
21.55145
21.90946
22.17084
22.34259
22.43017
22.43829
22.3704
22.22861
22.01516
21.79848
21.62827
21.50893
21.45101
21.4214
21.32409
20.96968
20.16044
19.01084
17.38088
9.535832
11.17435
11.15873
12.29115
12.73589
13.46495
14.94097
16.02778
17.18123
18.42199
19.68267
20.56122
21.16649
21.5828
21.86325
22.03904
22.12751
22.13837
22.07997
21.95965
21.78294
21.554
21.27654
20.99034
20.75955
20.59052
20.49588
20.44879
20.35764
20.03711
19.27585
17.80244
16.03216
12.4524
11.01927
11.3974
11.15012
12.07823
12.50085
13.23708
14.81957
16.1121
17.4868
18.8969
19.90347
20.53032
20.92276
21.15421
21.27229
21.30623
21.27381
21.18612
21.05269
20.88172
20.67972
20.45156
20.20247
19.9554
19.77673
19.68413
19.68204
19.76917
19.87054
19.82391
19.44839
18.47417
17.17115
15.21939
11.16258
11.4482
11.24418
12.21347
12.61975
13.3108
14.82577
15.98992
17.18552
18.36931
19.0755
19.4991
19.73611
19.84615
19.86984
19.83174
19.74839
19.62932
19.48278
19.31451
19.13017
18.93322
18.72784
18.531
18.3981
18.35694
18.39532
18.54357
18.73985
18.84551
18.71425
18.09753
17.13682
15.5985
10.50615
10.73732
10.53263
11.36703
11.70228
12.29971
13.68266
14.73853
15.8192
16.86931
17.45301
17.78505
17.96292
18.03956
18.0492
18.01219
17.94195
17.84604
17.73102
17.60169
17.46306
17.31906
17.17485
17.05305
16.99549
17.02979
17.14348
17.36458
17.62817
17.79672
17.72942
17.18781
16.30061
14.88087
9.590017
9.754442
9.518863
10.19695
10.49211
11.06227
12.39791
13.47528
14.61988
15.76406
16.50051
16.89785
17.12199
17.23766
17.28156
17.27515
17.23098
17.15657
17.05801
16.9406
16.80885
16.66661
16.51855
16.39714
16.33829
16.3523
16.44694
16.61955
16.8023
16.84853
16.60559
15.82825
14.74976
13.18787
8.229759
9.294465
9.335169
10.10197
10.38921
10.94604
12.20396
13.09418
14.02612
15.00222
15.9478
16.49701
16.82091
17.00892
17.10907
17.14874
17.14352
17.10258
17.03284
16.9396
16.8265
16.69594
16.54972
16.43168
16.36738
16.35109
16.40582
16.501
16.56375
16.43842
15.96288
14.91505
13.62109
11.04981
7.911829
7.531135
8.831745
9.425617
10.05702
11.35866
12.28073
13.2076
14.22434
15.27925
16.03485
16.47979
16.75076
16.91352
17.00291
17.04055
17.03997
17.01128
16.96223
16.89834
16.82262
16.74637
16.7072
16.71457
16.77257
16.88215
17.00494
17.06138
16.89811
16.37141
15.57421
14.29903
8.069143
7.826812
7.844243
8.556564
9.29004
10.73542
11.84334
12.703
13.59942
14.52885
15.42036
15.9821
16.33229
16.55197
16.67633
16.73413
16.74408
16.72186
16.68104
16.63309
16.58579
16.56907
16.61353
16.713
16.89748
17.14377
17.41496
17.61977
17.63212
17.28574
16.56025
15.44021
7.712502
7.737159
7.632094
8.455681
9.034158
9.836576
11.18608
12.1317
13.01113
13.90427
14.77787
15.41554
15.83123
16.11164
16.26888
16.33916
16.341
16.29557
16.22173
16.13729
16.07094
16.04933
16.08631
16.19262
16.37999
16.63017
16.90505
17.11825
17.17022
16.89668
16.3723
15.32051
6.252418
6.810829
6.704323
7.687154
8.567907
9.399587
10.74704
11.96
12.8889
13.68394
14.37643
14.94568
15.3681
15.6803
15.86165
15.94828
15.94591
15.87972
15.77106
15.66125
15.58833
15.54729
15.54173
15.57579
15.63
15.65989
15.58954
15.31967
14.72371
13.89991
13.02566
10.79086
7.019104
7.307334
7.339575
8.258972
9.369894
10.24648
11.52145
12.73973
13.63753
14.27858
14.73681
15.08585
15.33392
15.49457
15.56604
15.5477
15.45736
15.33944
15.25517
15.20643
15.18675
15.20177
15.24245
15.26655
15.20349
14.95945
14.395
13.62019
12.76624
11.7573
6.136335
7.125967
7.66643
7.787354
9.218618
10.15029
11.05507
12.27356
13.43791
14.20309
14.66405
14.96844
15.13351
15.21313
15.20711
15.1432
15.01842
14.90114
14.81172
14.75121
14.72743
14.73453
14.75156
14.72874
14.59746
14.2339
13.49755
12.55514
11.45517
9.581409
5.962567
6.94349
7.444321
8.619263
10.02288
11.02968
11.92247
13.09808
14.03912
14.54063
14.88252
15.00709
15.00924
14.92435
14.7929
14.62339
14.48093
14.35238
14.24332
14.15618
14.07036
13.95893
13.76529
13.38855
12.70943
11.83224
11.02423
9.529432
6.288202
7.411858
8.15146
9.364189
10.86131
11.70412
12.83755
13.79869
14.30827
14.72825
14.84718
14.80043
14.6367
14.46221
14.27781
14.08926
13.90054
13.70547
13.51184
13.28947
12.99834
12.55702
11.8739
11.06816
10.22358
9.026574
6.516321
7.770756
8.86063
10.3579
10.68737
12.26799
13.30189
13.8776
14.28847
14.44229
14.42579
14.29676
14.10351
13.87327
13.62146
13.35095
13.05046
12.71602
12.30596
11.78344
11.2024
10.66424
10.09366
8.975155
6.600361
7.886947
9.032168
9.8721
10.96868
12.41266
12.98457
13.37479
13.74421
13.83284
13.75774
13.584
13.32992
13.00384
12.60209
12.14461
11.60513
10.9417
10.28
9.751197
9.102391
8.265449
6.514997
7.848921
9.04645
9.926418
11.13124
11.6059
11.90622
12.60836
12.86353
12.88167
12.76884
12.5305
12.14221
11.54811
10.94445
10.33736
9.700343
9.055334
8.421659
7.503415
6.272983
7.971912
8.42202
9.633208
10.10031
10.45088
10.93043
11.39199
11.50593
11.47984
11.33867
11.02595
10.40488
9.948299
9.365478
8.812193
7.638604
7.202259
6.528078
8.191058
8.798545
9.039977
8.846239
9.797015
10.00384
10.08426
10.15213
10.24505
9.11718
8.444896
7.827067
7.354998
6.307055
7.580764
7.789518
7.772928
7.645042
7.47393
6.700425
8.408732
9.065872
9.500666
9.732974
9.733508
9.513519
9.013601
8.322756
7.656765
7.031639
8.913876
9.471605
9.523044
10.86865
11.66009
12.06535
12.24153
12.17606
11.8953
11.44346
11.05398
10.67637
9.300334
8.32109
7.485475
7.91028
9.188733
11.06915
11.92721
12.67969
13.7551
14.31161
15.38943
15.61593
15.47761
15.00812
14.14581
13.243
12.39514
11.32982
10.57489
10.18739
8.76705
6.983874
9.422014
10.03346
11.82785
13.04596
14.57019
15.59772
16.52287
17.15786
17.74487
17.85957
17.70978
17.33587
16.74212
16.01024
15.16167
14.0799
12.79746
11.65084
10.46018
8.599078
7.22047
6.861558
8.720177
10.6342
11.79951
13.9484
15.31968
16.56061
17.44586
18.11495
18.55968
18.80766
18.77655
18.59637
18.31875
17.96762
17.54384
16.99698
16.20492
15.03557
13.52428
11.60874
9.837477
8.627583
7.146966
6.540546
8.504965
10.35123
11.8129
13.81245
15.61378
16.94493
17.94646
18.61255
19.03607
19.25318
19.27133
19.11595
18.88322
18.61983
18.34857
18.06495
17.71887
17.20058
16.36557
15.11032
13.41048
11.42622
9.883527
8.79907
7.654997
6.273943
8.224555
9.918447
11.36629
13.50992
15.38284
16.86442
18.10049
18.96079
19.42516
19.64504
19.68363
19.55402
19.3134
19.03146
18.74387
18.46965
18.21008
17.94152
17.61498
17.15066
16.46196
15.47335
14.13302
12.55982
11.2357
10.37584
8.894957
5.992834
7.932162
9.274923
10.65011
12.69197
14.70267
16.4416
17.77428
18.85894
19.57633
19.96547
20.10355
20.04374
19.81811
19.52248
19.20591
18.89484
18.6068
18.35298
18.13485
17.9414
17.76587
17.57215
17.23824
16.56369
15.32192
13.514
11.84194
10.42382
8.733684
7.162128
8.367502
9.689493
11.50872
13.5602
15.47658
17.02111
18.23731
19.21301
19.84276
20.1563
20.24268
20.15108
19.94149
19.68049
19.40825
19.14478
18.8935
18.68261
18.54147
18.49276
18.55002
18.69285
18.85447
18.85648
18.41611
17.26207
15.44542
13.73979
12.63564
6.484531
7.40363
8.939894
10.46068
11.91675
14.05234
15.73843
17.13332
18.32084
19.23537
19.80793
20.09138
20.17473
20.11361
19.96996
19.77677
19.60579
19.45604
19.357
19.28963
19.2666
19.33241
19.52731
19.85294
20.24829
20.61494
20.73317
20.23756
18.82695
16.58477
14.52897
12.04427
6.008691
7.530359
7.956053
9.415647
10.5184
12.21683
14.05543
15.59075
17.00647
18.16771
19.01906
19.57408
19.89465
20.0575
20.09628
20.11242
20.07574
20.04559
20.02696
20.05902
20.11821
20.22388
20.34658
20.53985
20.85042
21.2623
21.69474
22.03172
21.99134
21.12691
19.11622
16.2052
13.52769
10.45875
6.898935
6.988384
8.090253
9.112792
10.71271
12.2956
13.84894
15.44845
16.8088
17.88703
18.73189
19.37613
19.81772
20.16428
20.38627
20.5607
20.69444
20.80669
20.90724
21.00823
21.10401
21.20647
21.2842
21.34879
21.48686
21.72904
22.06335
22.40416
22.606
22.30107
20.96004
18.46824
16.27833
14.52647
8.563098
8.401686
9.18598
9.881119
11.33946
12.60697
14.00178
15.51337
16.74916
17.8323
18.80827
19.62237
20.24251
20.73126
21.10914
21.40806
21.64283
21.81972
21.94349
22.01911
22.04709
22.02937
21.96249
21.86224
21.80307
21.8843
22.13996
22.58577
23.0984
23.54263
23.3911
22.1168
20.02229
18.38885
8.417259
9.637001
9.294458
10.02464
10.67808
12.03317
13.31064
14.8258
16.17895
17.37348
18.52392
19.62019
20.49759
21.20607
21.75141
22.16832
22.48096
22.70102
22.82995
22.87015
22.82686
22.70617
22.51876
22.28491
22.03689
21.8174
21.7808
21.96871
22.40946
23.00984
23.59172
23.67467
22.50086
19.94552
17.62154
13.35085
9.804796
10.05854
9.870075
10.75926
12.2451
13.38874
14.59585
16.05747
17.33803
18.5794
19.79913
20.8786
21.72412
22.37096
22.84234
23.17124
23.37957
23.47689
23.46468
23.34762
23.13525
22.83999
22.48032
22.08729
21.70231
21.36505
21.20837
21.28699
21.62478
22.1854
22.70694
22.82363
21.6842
18.80314
15.94472
13.31729
10.30821
10.05105
11.58784
12.40877
13.78311
14.75279
15.94494
17.41779
18.69609
19.93217
21.09244
21.99043
22.67845
23.15848
23.46331
23.62293
23.65912
23.5827
23.39868
23.11635
22.74991
22.31574
21.83533
21.34175
20.87793
20.48408
20.26155
20.28812
20.58869
21.13538
21.67982
21.90745
20.98194
18.26999
15.72192
13.68029
11.36282
11.10329
11.98802
12.55773
13.93252
14.97444
16.25118
17.85794
19.2579
20.53758
21.55705
22.26398
22.74662
23.0328
23.15574
23.14539
23.02515
22.80862
22.50449
22.12514
21.68635
21.2047
20.70047
20.20433
19.75677
19.39359
19.20455
19.26319
19.604
20.21957
20.90871
21.48217
21.26257
19.54389
17.13716
15.55649
11.42407
11.17605
12.03224
12.62744
14.03401
15.05225
16.27086
17.77213
19.01582
20.09554
20.83512
21.34758
21.65358
21.78936
21.78492
21.66905
21.46469
21.18589
20.84196
20.44437
20.00665
19.54259
19.06911
18.61246
18.20854
17.88522
17.71782
17.77508
18.10065
18.7029
19.4175
20.13751
20.30273
19.20443
17.30308
16.06994
10.77264
10.52029
11.25876
11.76292
13.01605
13.91854
15.01322
16.37011
17.46631
18.38787
18.98224
19.37443
19.59151
19.66866
19.63246
19.50802
19.31515
19.06582
18.76777
18.43037
18.06472
17.6825
17.29851
16.93613
16.62766
16.39043
16.30922
16.44004
16.82326
17.47195
18.23209
19.00758
19.24249
18.23845
16.44027
15.29845
9.846403
9.515405
10.17345
10.59841
11.74097
12.60194
13.67703
15.03384
16.15531
17.12007
17.81663
18.24058
18.49031
18.5991
18.59631
18.50682
18.34992
18.13728
17.87674
17.57786
17.25201
16.91099
16.56956
16.25007
15.98128
15.77178
15.72727
15.88601
16.27919
16.90605
17.59517
18.18691
18.07079
16.59676
14.52745
13.2534
8.575896
8.264613
9.510873
10.17617
11.32911
12.16741
13.2079
14.48486
15.5124
16.43914
17.2351
17.76341
18.10391
18.27995
18.32808
18.27835
18.15354
17.96824
17.73268
17.45844
17.15855
16.84608
16.53635
16.25054
16.01027
15.83593
15.81629
15.98726
16.3712
16.95112
17.52655
17.85478
17.24907
15.21274
13.37625
12.23466
8.442899
8.212103
7.973417
8.677013
10.1485
11.23324
12.36042
13.69675
14.77981
15.75841
16.63951
17.31909
17.7509
17.99941
18.09769
18.08296
17.98329
17.81793
17.60159
17.35033
17.08157
16.81261
16.56212
16.35205
16.19547
16.12932
16.21897
16.48371
16.9327
17.52947
18.05583
18.21762
17.33744
15.09262
12.99001
11.16931
7.544555
8.356654
8.013903
8.534287
9.166047
10.45868
11.69157
13.11492
14.27558
15.24106
16.10928
16.85705
17.3462
17.64975
17.78539
17.79123
17.69913
17.53221
17.3098
17.05277
16.78369
16.52509
16.30104
16.13704
16.03895
16.08181
16.30257
16.71799
17.33552
18.06601
18.77281
19.10246
18.4968
16.93248
15.49663
12.46885
8.164701
7.740236
8.346824
8.907821
10.17098
11.28244
12.51486
13.82875
14.86503
15.74355
16.48449
17.02283
17.33687
17.48952
17.49978
17.40406
17.22498
16.98582
16.71052
16.42471
16.15175
15.91654
15.74076
15.65573
15.73335
15.99246
16.44402
17.08653
17.79314
18.47493
18.73327
18.21121
17.19132
16.37627
6.680053
6.561239
7.430408
8.233204
9.59002
10.90425
12.23167
13.63109
14.80143
15.71325
16.40819
16.90305
17.17836
17.321
17.29964
17.18223
16.97785
16.71717
16.42485
16.12976
15.84997
15.61075
15.432
15.38326
15.4915
15.75799
16.16138
16.60973
16.97067
16.94718
16.16682
14.67902
13.42682
12.68392
6.104799
7.187127
7.445806
8.445983
9.27696
10.63811
12.1423
13.46403
14.74326
15.79444
16.54901
17.02254
17.26473
17.33404
17.24926
17.09282
16.83616
16.53667
16.21168
15.9004
15.6101
15.37004
15.23769
15.25353
15.43639
15.77314
16.18095
16.55421
16.64343
16.05129
14.59061
12.6467
11.06295
9.245974
6.393016
6.89573
8.053283
9.184248
10.25437
12.01904
13.43791
14.68319
15.80793
16.68391
17.21857
17.46358
17.50243
17.38075
17.14901
16.82756
16.48119
16.1189
15.76658
15.44123
15.19724
15.08171
15.11985
15.32277
15.63566
15.985
16.19358
15.91381
14.86106
13.19334
11.81293
10.31515
6.812378
7.399575
8.450116
9.866067
11.62665
13.30084
14.65158
15.75669
16.70287
17.31751
17.61185
17.6762
17.55178
17.29765
16.95732
16.56344
16.15333
15.74935
15.40521
15.1528
15.01732
15.01524
15.11614
15.26647
15.3205
15.00585
14.04163
12.50085
11.25121
10.4623
5.804065
7.371393
8.156376
9.274757
10.95165
12.73001
14.28147
15.44602
16.47314
17.16558
17.54244
17.6708
17.59805
17.37109
17.0394
16.63113
16.21679
15.82857
15.49116
15.22589
15.03662
14.92748
14.84909
14.67561
14.16623
13.07415
11.45043
10.14119
9.027129
7.963446
5.96319
7.563137
8.697292
9.88894
11.71219
13.35274
14.57925
15.76305
16.59329
17.05999
17.28212
17.31131
17.16956
16.9151
16.59588
16.24985
15.90329
15.5731
15.26573
14.97273
14.65883
14.25651
13.6592
12.71423
11.38505
10.18188
9.224551
8.158315
6.017628
7.615075
8.946831
10.11729
11.83667
13.30551
14.51543
15.48741
16.05526
16.42558
16.64313
16.69003
16.58277
16.38138
16.12098
15.8209
15.47807
15.06647
14.51946
13.75948
12.75456
11.51986
10.14076
9.044289
8.249009
7.634979
6.064314
7.542453
8.951473
9.911376
11.65196
12.80611
13.84527
14.55876
15.12925
15.56534
15.84271
15.89675
15.812
15.62159
15.33207
14.91827
14.34633