/*--------------------------------*- C++ -*----------------------------------*\
  =========                 |
  \\      /  F ield         | OpenFOAM: The Open Source CFD Toolbox
   \\    /   O peration     | Website:  https://openfoam.org
    \\  /    A nd           | Version:  6
     \\/     M anipulation  |
\*---------------------------------------------------------------------------*/
FoamFile
{
    version     2.0;
    format      ascii;
    class       volScalarField;
    location    "50";
    object      Co;
}
// * * * * * * * * * * * * * * * * * * * * * * * * * * * * * * * * * * * * * //

dimensions      [0 0 0 0 0 0 0];

internalField   nonuniform List<scalar> 
238185
(
0.1770819
0.1411558
0.1500809
0.1703086
0.1841325
0.1333379
0.1476904
0.1378807
0.1409419
0.1452655
0.1572959
0.1869244
0.1883045
0.1270845
0.1481254
0.1368487
0.1387247
0.1392902
0.1388391
0.1411918
0.1468069
0.1544422
0.162857
0.2056693
0.1919509
0.1567643
0.1363711
0.1363681
0.137308
0.1387283
0.1399171
0.1408222
0.1412174
0.1405492
0.145796
0.152874
0.1701549
0.2151442
0.1888953
0.1433535
0.1365525
0.1363005
0.1376307
0.1390848
0.1404242
0.1417072
0.142645
0.1429347
0.1428192
0.1470196
0.1593401
0.1918088
0.2029167
0.1646387
0.139884
0.1363565
0.1366763
0.1379763
0.1394603
0.1407195
0.1420657
0.1430713
0.1435887
0.1437061
0.1442402
0.1522481
0.1776073
0.223544
0.1939959
0.1466035
0.1379467
0.1362921
0.1369476
0.1382836
0.1394276
0.1404834
0.1419634
0.1432685
0.1437723
0.1440052
0.1435282
0.1478643
0.1615869
0.206183
0.2132623
0.1770362
0.1444851
0.1383528
0.1370519
0.1376725
0.138494
0.1388936
0.1398522
0.1409293
0.1419646
0.1431236
0.1428736
0.1427749
0.144718
0.1534968
0.1883453
0.2334997
0.1901526
0.1619239
0.145599
0.1407491
0.139644
0.1404957
0.1405827
0.1413404
0.1418913
0.1432146
0.1433483
0.1454156
0.1450026
0.1451792
0.1460536
0.152808
0.1715969
0.2061045
0.1924556
0.1615993
0.1468545
0.1423677
0.1416943
0.1428793
0.1431127
0.1443789
0.1449671
0.1465156
0.1466987
0.1489213
0.1485707
0.1488411
0.1507003
0.1575741
0.1767157
0.2092818
0.2210389
0.1813392
0.1496869
0.1437733
0.1428802
0.1438651
0.144759
0.1458626
0.1469518
0.1483233
0.1495528
0.150949
0.150826
0.151188
0.1548442
0.1640679
0.1960374
0.2428026
0.2049318
0.1547955
0.1455658
0.1437324
0.1443281
0.1457308
0.1469721
0.1482653
0.1499872
0.1514992
0.1521911
0.1525878
0.1534352
0.1588896
0.1733973
0.2123376
0.2203001
0.176687
0.1489198
0.1447219
0.1447822
0.1461243
0.1476204
0.1491456
0.1508229
0.1520109
0.1527756
0.1531389
0.156006
0.1646018
0.1899858
0.2370969
0.2049089
0.1542279
0.1461092
0.1453243
0.1464834
0.1477686
0.1497039
0.1508585
0.1520481
0.1526014
0.1543443
0.1597962
0.1730781
0.2054578
0.215645
0.1737923
0.1478245
0.1467951
0.1470521
0.1480528
0.1496433
0.1500878
0.1507283
0.1534732
0.1591809
0.1670459
0.1877055
0.2348004
0.2148747
0.1446224
0.1649832
0.1480876
0.1489781
0.149358
0.1483468
0.1542495
0.1603701
0.1740392
0.1784715
0.2298666
0.2112683
0.1419236
0.1646861
0.1487644
0.1523602
0.1667277
0.1715114
0.2170008
0.205612
0.1471611
0.1581953
0.2041747
0.1490219
0.144995
0.1471576
0.149287
0.1509866
0.1521572
0.152693
0.1535918
0.1567701
0.1685329
0.1593684
0.1387178
0.1324292
0.1328859
0.1354711
0.1378214
0.1410611
0.1437385
0.1447427
0.1450551
0.1470872
0.1445199
0.156333
0.1720059
0.1657978
0.1368965
0.1299148
0.1313039
0.1327604
0.1347099
0.1290513
0.1389349
0.1427108
0.1453495
0.1392927
0.1452954
0.1457999
0.1488659
0.1496912
0.163209
0.1667539
0.1370223
0.1295729
0.1295788
0.1326485
0.129148
0.1420243
0.1352435
0.1380859
0.1435899
0.1478448
0.1561805
0.1524085
0.1427477
0.1486525
0.1514603
0.1514327
0.1761679
0.1670561
0.1368823
0.128729
0.1287004
0.1246521
0.139503
0.1366792
0.1440044
0.1484397
0.1429831
0.1416736
0.1410911
0.155923
0.1536881
0.1605392
0.1572176
0.1465876
0.1542805
0.1578467
0.188892
0.167551
0.1394615
0.1284319
0.129147
0.12974
0.1349088
0.1411525
0.1497156
0.1476277
0.1495195
0.1489584
0.1464345
0.1443518
0.1466988
0.1468791
0.1622391
0.1599882
0.167816
0.1490967
0.155233
0.1651198
0.2028083
0.1647164
0.1306966
0.1302698
0.136233
0.1413924
0.1521033
0.1478776
0.1490581
0.1497946
0.150633
0.1509566
0.1504593
0.148769
0.1459217
0.1470383
0.1525093
0.1557709
0.1760053
0.1559617
0.156018
0.1588933
0.1827712
0.1749399
0.1478662
0.1313033
0.1330578
0.1511465
0.1594614
0.1534776
0.1499578
0.1493215
0.1498569
0.1505691
0.1511624
0.1514667
0.1511623
0.1498754
0.146867
0.1486309
0.1578108
0.1608214
0.1827016
0.1536918
0.1561065
0.1734344
0.2135023
0.1605928
0.1393743
0.1345829
0.1407287
0.1561808
0.1607832
0.1528979
0.1495704
0.1488601
0.1492696
0.1499731
0.1506105
0.1511757
0.1513224
0.1507909
0.1490201
0.1462531
0.154389
0.1600844
0.1831174
0.1587687
0.1584933
0.1649054
0.1866646
0.1661322
0.1453726
0.138501
0.1672173
0.1638338
0.157041
0.1511103
0.1484052
0.147905
0.1483084
0.1488544
0.1494407
0.1501723
0.1506006
0.1503783
0.1492867
0.1461594
0.1502798
0.160703
0.171416
0.185947
0.1559491
0.1641462
0.1859986
0.172579
0.1526591
0.1462235
0.1730394
0.1652032
0.1540475
0.1487238
0.1466486
0.1464243
0.1466364
0.1470642
0.1475716
0.1482126
0.1486658
0.1488323
0.1479087
0.1458087
0.1472108
0.1562043
0.1709228
0.1879896
0.1607423
0.1672249
0.189015
0.1773999
0.1593642
0.1581134
0.1667594
0.1612178
0.1527475
0.1479016
0.1460617
0.145985
0.1458865
0.1465342
0.1469255
0.1477354
0.1479778
0.1487294
0.147957
0.1465548
0.1471069
0.1548147
0.1676102
0.1777119
0.1728932
0.1732236
0.193815
0.1774567
0.1596419
0.1609165
0.1667881
0.1632205
0.1543059
0.1492944
0.1474091
0.1473418
0.1472906
0.1480444
0.1485519
0.1495028
0.1498717
0.1507595
0.1500922
0.1487965
0.1515457
0.1594843
0.1726493
0.1830667
0.1748774
0.1779055
0.19841
0.1753097
0.1558654
0.1529687
0.1748255
0.1710628
0.1584228
0.1524941
0.1502172
0.149978
0.1502798
0.1509056
0.1516556
0.1525696
0.1532967
0.1537192
0.1530003
0.1519152
0.1570176
0.1665229
0.1766216
0.2001313
0.16882
0.1780915
0.2007459
0.1730371
0.1520568
0.1461965
0.1727199
0.1717607
0.1630998
0.1560781
0.1529333
0.1523032
0.1527655
0.1534649
0.1543138
0.1553356
0.1560411
0.1560785
0.1551966
0.1550953
0.1615412
0.1725688
0.1789283
0.1990767
0.1676716
0.1770407
0.2011549
0.1733538
0.1498844
0.1442799
0.1501404
0.1691367
0.170371
0.1598022
0.1554348
0.1542909
0.1546009
0.1553477
0.1562369
0.1570498
0.1574805
0.1572459
0.1557262
0.1584581
0.1670245
0.1730275
0.1977405
0.1717063
0.1712448
0.1783477
0.202256
0.1949107
0.1632505
0.1426348
0.1436274
0.1660411
0.1711819
0.1627131
0.1574894
0.1560044
0.1560588
0.1565478
0.1573518
0.1575721
0.1575033
0.1564637
0.1563714
0.1619865
0.1717219
0.1750748
0.1980417
0.1669158
0.1693943
0.1856965
0.2323021
0.1842655
0.143746
0.1422931
0.1484721
0.156945
0.1649943
0.1577051
0.1577454
0.1572872
0.1574211
0.1575146
0.1565341
0.1548717
0.1559761
0.1613115
0.1670893
0.170542
0.19281
0.1704108
0.1704399
0.1734363
0.1960462
0.1913632
0.1568733
0.1410107
0.1406912
0.1441771
0.1474196
0.1543649
0.1625722
0.15724
0.1579199
0.1563095
0.152941
0.1558761
0.1611902
0.1612677
0.1787556
0.1757528
0.1838784
0.1635535
0.1704583
0.1824389
0.2246273
0.1890203
0.1521519
0.1390761
0.1382607
0.1325776
0.1497751
0.1487555
0.1537987
0.1607966
0.1519245
0.1522081
0.1540399
0.1714137
0.1675176
0.1749621
0.1723656
0.1605582
0.1694
0.1778452
0.211823
0.1850342
0.1492824
0.1372037
0.1365642
0.1402124
0.1353576
0.1508314
0.1463036
0.145436
0.1524981
0.1571419
0.1671229
0.1654726
0.1546948
0.1616135
0.1650866
0.1733056
0.20372
0.182513
0.1469658
0.1349521
0.13641
0.137694
0.1406178
0.1337443
0.1428353
0.1485079
0.153556
0.1470615
0.1546061
0.1560405
0.1598559
0.16858
0.1958894
0.1771705
0.1288437
0.1411773
0.1343083
0.1335144
0.1363518
0.1407075
0.1448052
0.1473999
0.1490264
0.152155
0.156233
0.1653314
0.1978959
0.168499
0.1352544
0.138598
0.1416114
0.1445597
0.1469077
0.1486236
0.1508925
0.1554945
0.1803332
0.1364739
0.1465054
0.1480461
0.1490348
0.1492231
0.148946
0.1500145
0.1620223
0.1368565
0.138978
0.1479744
0.1327842
0.1400139
0.1417756
0.1428499
0.1432568
0.1434288
0.1443073
0.1381135
0.1438068
0.1474843
0.1559443
0.151801
0.1250969
0.1295883
0.1281856
0.1372904
0.1408249
0.1430808
0.1444948
0.145148
0.1452038
0.144745
0.145053
0.1441161
0.1368887
0.1375436
0.1406652
0.1477988
0.1265994
0.1254536
0.1213805
0.1310194
0.124847
0.1371792
0.1416543
0.1443705
0.1461423
0.1471505
0.1475592
0.147852
0.1490109
0.1508912
0.1551926
0.1472379
0.1289796
0.1405383
0.1476569
0.1530918
0.1266045
0.1235046
0.1236407
0.1250935
0.1363442
0.1332562
0.1320849
0.13607
0.139438
0.1422205
0.1442262
0.1456035
0.1465427
0.1475998
0.1439383
0.1546132
0.151996
0.1549746
0.1372193
0.1348974
0.150489
0.1513759
0.1270069
0.1221169
0.1226134
0.1331668
0.1370006
0.1357162
0.1375315
0.1384691
0.1390906
0.1381238
0.1399563
0.1417569
0.1442946
0.1464704
0.1471349
0.148495
0.1499552
0.1477625
0.1588175
0.1573227
0.1386024
0.1408882
0.1718504
0.1457775
0.1203564
0.1198028
0.1319703
0.1385935
0.1386764
0.1397012
0.1418542
0.1433894
0.14561
0.1460169
0.1440788
0.143961
0.1451998
0.1468288
0.1485575
0.1503487
0.1510849
0.1533927
0.1510905
0.1622731
0.1598944
0.1422615
0.1521625
0.1503774
0.1229833
0.1166512
0.1297852
0.1380853
0.1396935
0.1417992
0.1432899
0.146466
0.1491177
0.1507602
0.1524451
0.1512079
0.1475744
0.1473227
0.1477567
0.1489285
0.1522127
0.1537016
0.1558633
0.1572826
0.153825
0.164997
0.1619854
0.1436464
0.1822459
0.1458893
0.1258465
0.1198207
0.125327
0.1376921
0.1396574
0.1437075
0.1467935
0.1490857
0.1513803
0.1544824
0.156228
0.1575765
0.1570199
0.1546558
0.1505557
0.1486146
0.1491781
0.1521042
0.1551487
0.1583541
0.1592302
0.1588897
0.1555342
0.1693846
0.1469684
0.1562329
0.1829087
0.1378715
0.1203236
0.1334009
0.1409727
0.1404715
0.143536
0.1489297
0.152999
0.1558817
0.1569223
0.158346
0.1592731
0.1598658
0.1596616
0.1584349
0.15604
0.1525388
0.148769
0.1500977
0.1558894
0.1597084
0.1613587
0.1598752
0.1602914
0.1570818
0.1731638
0.146219
0.1627871
0.149607
0.1259887
0.1392749
0.1443232
0.1439641
0.1484026
0.1535345
0.158796
0.1605533
0.1597532
0.1595984
0.1598118
0.1600084
0.1599117
0.1593107
0.1579463
0.1554987
0.1513196
0.1480405
0.1546416
0.160623
0.1629048
0.1625789
0.1615218
0.1590623
0.1772762
0.147922
0.1748974
0.1779726
0.1485583
0.1365401
0.1434975
0.14688
0.1483416
0.1535241
0.1581403
0.1621864
0.1615569
0.1598031
0.1589454
0.1587309
0.158732
0.1586644
0.1583633
0.1575357
0.1558362
0.1526344
0.1474528
0.1519555
0.1597189
0.1632626
0.1645578
0.1629231
0.1646505
0.1668404
0.1554371
0.1681951
0.202135
0.1639505
0.148117
0.1450094
0.1516193
0.1518407
0.1537304
0.1576475
0.1623528
0.1631019
0.1603218
0.1580842
0.1569755
0.1565824
0.1564632
0.156414
0.1563112
0.1558285
0.154614
0.1521731
0.1475366
0.1486448
0.1571282
0.163369
0.1653698
0.1654059
0.1664531
0.1686103
0.1589019
0.1577842
0.1724882
0.1666125
0.1514871
0.1520852
0.1582919
0.1566646
0.1578551
0.1604869
0.1636531
0.1611501
0.1575282
0.1551629
0.1540373
0.1535327
0.1533608
0.1533142
0.1532828
0.1529893
0.1521537
0.1501928
0.1465081
0.1455215
0.153687
0.1619891
0.1654017
0.1671824
0.1682387
0.1717259
0.163233
0.1602129
0.1744915
0.1683533
0.1532063
0.1553744
0.1626664
0.161274
0.1618456
0.163765
0.1631895
0.1582788
0.1540827
0.1515593
0.1504052
0.1498028
0.1497315
0.1497404
0.1498722
0.1497065
0.1492822
0.1477147
0.1447601
0.1437082
0.1515727
0.1613125
0.1673964
0.1697503
0.1717134
0.1760754
0.1677593
0.1638409
0.1779091
0.1662333
0.1517722
0.1546822
0.1627747
0.1621103
0.163293
0.1647606
0.1636312
0.1582079
0.1537175
0.1510611
0.1498733
0.1492984
0.149305
0.149414
0.1496648
0.1496163
0.1493108
0.1478515
0.1450106
0.1469677
0.1549829
0.1650113
0.1714707
0.1742074
0.1765938
0.1801611
0.1714088
0.1672384
0.1817524
0.1629613
0.1490163
0.1524165
0.161076
0.1607086
0.162021
0.1636382
0.165827
0.1620648
0.1576457
0.1548857
0.1536307
0.1531586
0.1531324
0.1532953
0.1535079
0.1534585
0.152856
0.1510996
0.1481893
0.1530005
0.1614905
0.1704124
0.1745728
0.1770472
0.1789119
0.18205
0.172875
0.1690028
0.1831879
0.1623793
0.1484291
0.1496038
0.1583441
0.1583001
0.1592759
0.1623639
0.1662828
0.1656776
0.1616756
0.1587457
0.1573347
0.1568926
0.156885
0.1570653
0.1572484
0.1570704
0.15616
0.1539919
0.1514343
0.1581351
0.1669541
0.1737207
0.1762353
0.1768357
0.1785773
0.1816015
0.1716527
0.170389
0.1833661
0.1854566
0.1586051
0.1474472
0.1543933
0.1560099
0.1561811
0.1605615
0.1642608
0.1672353
0.1648338
0.1618661
0.1603295
0.1598036
0.1597461
0.1598302
0.1597678
0.1592705
0.1579493
0.1551242
0.1554207
0.1630604
0.1711475
0.1750043
0.1765302
0.1751584
0.1773627
0.1801759
0.1686632
0.1790965
0.216698
0.1667816
0.13971
0.1571712
0.1573383
0.1540625
0.157565
0.1618446
0.1661313
0.1661224
0.1636131
0.1623048
0.1617339
0.1614898
0.1612797
0.1606405
0.1594931
0.157396
0.1549495
0.159499
0.1672476
0.1735257
0.1758727
0.1756022
0.1746658
0.1721916
0.1919804
0.1611711
0.1827879
0.156206
0.1350188
0.153356
0.1556987
0.1526255
0.1543195
0.1588525
0.1618856
0.1635999
0.16294
0.1629573
0.1625141
0.1621116
0.1612411
0.1595055
0.15702
0.1549858
0.1579926
0.1638591
0.1699172
0.1740502
0.1757705
0.1742432
0.1748335
0.1718247
0.1890495
0.1603592
0.1754875
0.1658857
0.1425012
0.133522
0.1421168
0.151512
0.1510285
0.1540536
0.1562538
0.1575838
0.1590425
0.1612015
0.1613765
0.1613323
0.1594246
0.1559669
0.1539696
0.1567687
0.1621875
0.1665582
0.1700305
0.1736223
0.1747419
0.1745338
0.171085
0.1868035
0.1623347
0.1714696
0.2040995
0.1680467
0.1351448
0.1290663
0.1412129
0.1495842
0.1491533
0.1504373
0.1513202
0.1542078
0.1563791
0.1573611
0.1580781
0.1552039
0.1516342
0.1537912
0.1589107
0.1627275
0.1665837
0.1685242
0.1713209
0.1731598
0.169618
0.1827385
0.1788652
0.1604055
0.2007315
0.1550168
0.1259435
0.1249813
0.1400522
0.1474496
0.1460231
0.1465082
0.1486261
0.1500312
0.152155
0.1521164
0.1494215
0.1493146
0.1529174
0.1580414
0.1607061
0.1635601
0.1650905
0.1682276
0.1661979
0.1793508
0.1761313
0.1576455
0.1720822
0.1591102
0.1316179
0.1241264
0.1248449
0.138911
0.1438093
0.1414703
0.1431521
0.1441257
0.1450135
0.143994
0.1438772
0.1460369
0.1504356
0.154492
0.1566097
0.1592984
0.1618111
0.1603117
0.1735248
0.1714157
0.1518946
0.1631457
0.1962899
0.1589997
0.1292128
0.1238023
0.1241617
0.1287654
0.1347968
0.1388874
0.1355775
0.1348816
0.1365845
0.1404068
0.1440436
0.1471569
0.1500239
0.1529286
0.1506135
0.1643796
0.1601137
0.1651332
0.1473992
0.1576291
0.1884866
0.1570122
0.1146834
0.1272456
0.1195521
0.1305478
0.1254746
0.1287458
0.1337158
0.1370795
0.1397652
0.1419241
0.143648
0.1455297
0.1484871
0.1504171
0.1572769
0.153375
0.1405241
0.1495675
0.1906619
0.1569772
0.1266899
0.1228994
0.1186372
0.1279591
0.1321776
0.1347723
0.1369195
0.1379805
0.1390054
0.1397227
0.1417345
0.1432589
0.1354091
0.1417332
0.1578129
0.1465969
0.1268879
0.1341053
0.1202399
0.1302721
0.1322259
0.1336685
0.1340191
0.1347083
0.1363129
0.1315436
0.1393457
0.1403416
0.1569887
0.140131
0.1331665
0.1349614
0.1358956
0.1353299
0.1350091
0.1370173
0.1428679
0.1286132
0.1349905
0.1354962
0.1361442
0.1377113
0.1463147
0.1264134
0.1287195
0.131788
0.1357508
0.127964
0.1334562
0.134436
0.1349035
0.1354051
0.1273285
0.1303285
0.1263941
0.1315555
0.1352093
0.1279188
0.1300628
0.1124381
0.1274349
0.1305696
0.1214983
0.1351521
0.1387633
0.1403567
0.1409072
0.1406837
0.1409918
0.1425917
0.1445781
0.1336202
0.1192332
0.1167991
0.1300625
0.1414974
0.1177582
0.113932
0.1143251
0.1280208
0.1384509
0.1312257
0.1377624
0.1411157
0.1432669
0.1444531
0.1450025
0.1453093
0.1401386
0.1460154
0.1400183
0.1374569
0.1364981
0.1125419
0.1191363
0.1419967
0.1128815
0.1204398
0.1217708
0.12029
0.1250151
0.1305859
0.1348005
0.1390701
0.1425198
0.1450299
0.1466843
0.1476797
0.1482774
0.1485605
0.1478089
0.1457909
0.1383565
0.1429585
0.138267
0.1181922
0.1122451
0.1396719
0.1139707
0.1140984
0.1229319
0.1241127
0.1226862
0.122577
0.1274007
0.1328742
0.1376865
0.1414881
0.1444091
0.1465559
0.1481018
0.1492744
0.1502164
0.150507
0.1501092
0.147878
0.1394477
0.1426739
0.1328896
0.1254044
0.1263523
0.1368517
0.1124483
0.1214
0.1248635
0.1254008
0.1279073
0.1290838
0.1295928
0.1306218
0.130758
0.1332734
0.1373419
0.140801
0.1436162
0.1459012
0.1478366
0.1496145
0.1511192
0.1521874
0.151731
0.1500611
0.1457961
0.1361941
0.1398784
0.1324014
0.1396915
0.1350843
0.113647
0.1159682
0.1262618
0.1284825
0.1312062
0.1342393
0.1362411
0.1374609
0.1392362
0.1404855
0.1413725
0.1418433
0.1420037
0.142182
0.1431966
0.1457402
0.1481798
0.1506105
0.1528021
0.1543013
0.1544252
0.1525283
0.1482491
0.1390504
0.143521
0.1272469
0.1539659
0.1239004
0.1086589
0.1099466
0.1286201
0.1295057
0.1325368
0.136541
0.1400772
0.1424587
0.1442043
0.1462174
0.1481539
0.1498873
0.1501574
0.1519967
0.1507942
0.150022
0.1473496
0.1471193
0.1502373
0.1530803
0.1558561
0.1575531
0.1573375
0.1550712
0.1504755
0.1404333
0.1473232
0.1265013
0.1536713
0.1173216
0.1025955
0.1159181
0.1281341
0.1326871
0.1370213
0.1416562
0.1453624
0.147932
0.1500802
0.1525604
0.1543382
0.1583427
0.1578208
0.1582945
0.1565429
0.1559169
0.1526088
0.1513371
0.1496607
0.1532466
0.1567375
0.1593422
0.1603457
0.1595856
0.1569016
0.1469993
0.1511321
0.1398295
0.1395804
0.1312485
0.1089445
0.11151
0.1248361
0.1315788
0.1373163
0.1423779
0.1468099
0.1505747
0.15353
0.1554304
0.1597802
0.1606168
0.1632977
0.1645433
0.1644492
0.1629041
0.1599976
0.1563829
0.1538648
0.151679
0.1522457
0.1570129
0.1600478
0.1616833
0.1621931
0.160969
0.1564643
0.1451973
0.1480648
0.1338006
0.1649275
0.1259096
0.1167261
0.1227665
0.1310338
0.1369539
0.1429359
0.1478744
0.1518777
0.155671
0.15866
0.1616007
0.1643593
0.1660049
0.1672014
0.1678754
0.1677176
0.1665197
0.1641745
0.1606632
0.1556344
0.1510634
0.1516645
0.1561522
0.1601706
0.1622613
0.163567
0.1638203
0.1610156
0.1547031
0.1450704
0.1378861
0.1432336
0.1286269
0.1405853
0.1322814
0.1375125
0.1430537
0.1486968
0.1526768
0.1566102
0.1602695
0.1618947
0.1668247
0.1675159
0.1680212
0.1684094
0.1685464
0.1682402
0.1672835
0.1654532
0.1624876
0.1579731
0.1515268
0.1500904
0.1550513
0.1599279
0.1626662
0.1641811
0.1653731
0.1641166
0.1589923
0.1505771
0.155342
0.1410658
0.1388741
0.1507221
0.13962
0.1434717
0.1495529
0.1541343
0.1572096
0.16064
0.1634195
0.1664381
0.1683496
0.1679548
0.1675746
0.1673305
0.1670863
0.1666661
0.1658738
0.1644471
0.1620583
0.1582268
0.1523268
0.1488956
0.1538992
0.1587995
0.162772
0.1650581
0.1670475
0.1670714
0.1624953
0.1549773
0.1597434
0.1572731
0.1841231
0.1508145
0.149134
0.1472463
0.1496262
0.1547651
0.1584805
0.1610176
0.1636511
0.1643047
0.16832
0.1673739
0.1661042
0.1651462
0.1645162
0.1640497
0.1635854
0.162938
0.1618296
0.15992
0.1567433
0.1516446
0.1470755
0.1520582
0.157118
0.1622931
0.1656447
0.1682402
0.1689404
0.1644041
0.1569015
0.151328
0.1549931
0.1790767
0.1663149
0.1523682
0.1533964
0.1527983
0.1551429
0.1585561
0.1609965
0.162919
0.164059
0.1658268
0.1663922
0.1643266
0.1624823
0.1612039
0.1603583
0.159784
0.1593124
0.1587633
0.1578744
0.1563272
0.1536503
0.1492673
0.144262
0.1485339
0.1552116
0.16028
0.1649475
0.1684487
0.1696765
0.1655491
0.1601703
0.1557267
0.147122
0.1553111
0.163202
0.1511535
0.1544995
0.1550828
0.1588282
0.1619769
0.162963
0.1634548
0.162065
0.1646216
0.1621591
0.1593759
0.157168
0.1556938
0.1547122
0.1540971
0.1536245
0.1531415
0.1523746
0.1510811
0.1487438
0.1448812
0.1403417
0.1446437
0.1526844
0.1574393
0.1634858
0.1683739
0.170855
0.1679969
0.1637203
0.1590237
0.1493532
0.155934
0.1593853
0.1479267
0.152284
0.1540428
0.1587281
0.162806
0.163763
0.163545
0.1614843
0.1634508
0.1604524
0.1573027
0.1548818
0.1533031
0.152289
0.1516912
0.1512645
0.1508467
0.1501558
0.1489501
0.1467155
0.1429834
0.1401814
0.1461753
0.1543967
0.1594625
0.1658911
0.1713262
0.1744962
0.1723704
0.1673327
0.1620469
0.1522518
0.1592128
0.1587376
0.1462635
0.1492192
0.1521777
0.1574146
0.1620607
0.1636151
0.1641349
0.1639309
0.1644357
0.1638535
0.1609066
0.1585232
0.1569677
0.1560237
0.155472
0.1550979
0.1546915
0.1539691
0.1526066
0.150134
0.1459951
0.145025
0.1527134
0.1597682
0.1654296
0.1708742
0.1754389
0.1779817
0.1752027
0.1694035
0.1630359
0.1539981
0.1620558
0.1808636
0.1536987
0.1472513
0.1505355
0.1557561
0.1605539
0.1626154
0.1638234
0.1652436
0.1644991
0.1672605
0.1650991
0.1630114
0.1615904
0.1607606
0.1602841
0.1599454
0.1595128
0.1586784
0.1570824
0.1542385
0.1494938
0.1510262
0.1587093
0.1640417
0.1697176
0.1737639
0.1772409
0.1790651
0.1756523
0.169148
0.1615873
0.1621982
0.1925699
0.1502456
0.1572435
0.1503797
0.1535193
0.1581213
0.1609934
0.1625027
0.1646088
0.1659124
0.1674039
0.167849
0.1661863
0.1649554
0.1642051
0.1637364
0.1633212
0.162701
0.1615945
0.1596429
0.1563254
0.1526383
0.1561087
0.1624928
0.1675469
0.1718345
0.1745911
0.1772073
0.178088
0.1743895
0.1639375
0.1729866
0.162081
0.1398293
0.1546539
0.1472446
0.1503916
0.1542611
0.1584814
0.1605262
0.163005
0.165266
0.1651016
0.1684915
0.1675111
0.1666958
0.1660887
0.1655629
0.1649047
0.1638367
0.1621708
0.1596033
0.1556719
0.1544549
0.1604779
0.1653324
0.1703381
0.1732848
0.175092
0.1767114
0.1760433
0.171511
0.1601284
0.1702334
0.1483198
0.1442148
0.1341915
0.1388729
0.145551
0.149993
0.154593
0.1577339
0.1601709
0.162539
0.163878
0.165215
0.1664829
0.1665305
0.166254
0.165731
0.1646741
0.1628799
0.1603281
0.1569732
0.1550159
0.1579099
0.1632251
0.1681303
0.172319
0.1746338
0.1762133
0.1768203
0.1743759
0.1684427
0.1592864
0.150346
0.152649
0.1541622
0.1252575
0.1322867
0.1393788
0.1444739
0.1489053
0.1527836
0.1559104
0.1584245
0.1601531
0.1605771
0.1637174
0.1630409
0.1643445
0.1640505
0.1625351
0.159875
0.1562784
0.1543971
0.1565525
0.1607666
0.1651389
0.1702188
0.1735962
0.1755892
0.1765235
0.1757211
0.1714759
0.1600701
0.1643794
0.1448678
0.1780112
0.1300268
0.1204177
0.1292942
0.1395088
0.1425867
0.1461773
0.1502922
0.1532147
0.1549271
0.1561922
0.1578054
0.1583475
0.1612426
0.1592505
0.158369
0.1551504
0.1539052
0.1543257
0.1567453
0.1622994
0.1664089
0.1704911
0.1735891
0.1751395
0.174963
0.1725957
0.1627237
0.1686366
0.1564355
0.1522683
0.1321892
0.1147085
0.1174995
0.1353649
0.1366555
0.1396969
0.1436454
0.147267
0.1493384
0.1505614
0.1520269
0.153307
0.1542904
0.1533615
0.1540819
0.151496
0.1515666
0.1528423
0.1574443
0.161873
0.1656761
0.1693054
0.1718142
0.1723338
0.1705692
0.1663458
0.1561472
0.1648305
0.1438997
0.1744645
0.1406194
0.1174075
0.1198208
0.1308281
0.1332898
0.1366704
0.1402372
0.1426244
0.1437624
0.1452605
0.1461676
0.1466544
0.1465247
0.1459187
0.145016
0.1471617
0.1519624
0.1560841
0.1600337
0.163522
0.1663061
0.1676148
0.1665206
0.1626795
0.1535391
0.1601802
0.1473006
0.1802342
0.1394123
0.1133167
0.1230759
0.1279026
0.1293243
0.1325278
0.1344122
0.1354321
0.1364922
0.1365575
0.1364825
0.1364569
0.1383759
0.1423307
0.1462496
0.1500029
0.1536368
0.1569823
0.1596022
0.160737
0.1604013
0.1570211
0.147669
0.1531947
0.1559921
0.1724163
0.1409294
0.1138289
0.1148759
0.1194047
0.1275985
0.1268155
0.1270678
0.1268315
0.1265596
0.1306047
0.1348835
0.1384398
0.1415477
0.1443525
0.1470551
0.1497324
0.1519312
0.1533465
0.152625
0.1452153
0.1510254
0.1392723
0.148589
0.1658725
0.1426659
0.1114614
0.1188767
0.123088
0.1224303
0.1183605
0.1217419
0.1260875
0.1305887
0.1343044
0.1370656
0.1392772
0.1410516
0.1427028
0.1442
0.1447968
0.1441872
0.1378974
0.1431948
0.1391902
0.1316236
0.1543004
0.1431062
0.1173536
0.1116962
0.110816
0.1186396
0.1289362
0.1210119
0.1282736
0.1318292
0.1339972
0.1353601
0.1363062
0.1372671
0.1325705
0.14013
0.1337303
0.1303012
0.1322422
0.1164639
0.1415033
0.1328646
0.1190329
0.1053061
0.1188548
0.122858
0.1161781
0.1250854
0.1286278
0.1299583
0.1301621
0.1301054
0.1308984
0.1306234
0.1337694
0.1253028
0.1169228
0.1118451
0.1362956
0.1302804
0.1188024
0.1226766
0.1238858
0.1163972
0.1235109
0.124059
0.1240341
0.1246059
0.1178361
0.122486
0.1151553
0.1194019
0.1284521
0.1284805
0.1232599
0.1231867
0.1225251
0.1241872
0.1284258
0.1127552
0.1184652
0.1126414
0.1191313
0.1206916
0.121273
0.1209416
0.11896
0.1139716
0.1194984
0.1197998
0.1119286
0.1238832
0.1131145
0.1187659
0.1098685
0.1222647
0.1247724
0.1256471
0.1259955
0.1269742
0.1292227
0.1101593
0.1124204
0.1130098
0.1049005
0.1265854
0.1069656
0.1060871
0.1178281
0.1219867
0.1296644
0.1227168
0.130813
0.1339039
0.1353367
0.1356359
0.130954
0.1349263
0.1267235
0.1220023
0.1183822
0.1105269
0.1027558
0.1226621
0.1091368
0.1037009
0.1163167
0.1121733
0.1203661
0.1248971
0.1288088
0.1331878
0.1379672
0.14136
0.1433716
0.1440914
0.1435562
0.1416124
0.1378544
0.1326986
0.123906
0.1246798
0.1061082
0.1123443
0.098849
0.1266335
0.1043355
0.1107883
0.1084061
0.1086614
0.1142208
0.1208341
0.1265129
0.1308287
0.1358254
0.1405606
0.14436
0.1470895
0.1487404
0.149394
0.1489013
0.1471271
0.143257
0.1379925
0.1309754
0.1193826
0.1188583
0.1027645
0.09268204
0.1233453
0.1025246
0.1115022
0.1126815
0.1099816
0.1092628
0.1123746
0.1188146
0.1246869
0.1300741
0.1355108
0.1404268
0.1445872
0.1478727
0.1503082
0.1520041
0.1529142
0.1527912
0.1509737
0.1469546
0.1409834
0.1324462
0.1197154
0.1179029
0.1033159
0.1026489
0.1185036
0.09892009
0.1100728
0.1153366
0.1145759
0.1138488
0.1144299
0.1145033
0.1158022
0.1217014
0.1269879
0.1326389
0.1376971
0.1420865
0.1457675
0.1488154
0.1513633
0.153462
0.1546951
0.1551204
0.1531807
0.1491598
0.1426762
0.1338066
0.1212593
0.1187124
0.1090403
0.1162186
0.1122924
0.09490665
0.1071989
0.1159219
0.1190422
0.1202565
0.1209662
0.1223821
0.1236381
0.1268844
0.1271998
0.1291685
0.1310521
0.1344737
0.1381776
0.1422312
0.1458323
0.1490978
0.1521001
0.154364
0.1562981
0.1565634
0.1554904
0.1516585
0.144891
0.1361216
0.1227428
0.1196608
0.1133818
0.1238157
0.1053273
0.1041436
0.1141259
0.1205126
0.1242456
0.1268577
0.1289038
0.1310901
0.1334815
0.1359726
0.1385227
0.1409335
0.1431123
0.1448102
0.1459221
0.1463132
0.1457829
0.146132
0.1492998
0.1529196
0.156133
0.1581777
0.1590946
0.1581875
0.1543513
0.1474977
0.1378816
0.1233005
0.1220521
0.1161937
0.1132288
0.1010902
0.1103035
0.1179786
0.1250365
0.1299206
0.1332612
0.1363159
0.1397171
0.1428968
0.1455206
0.148351
0.1510908
0.1535968
0.1549488
0.157354
0.1574535
0.1571373
0.1536653
0.1503819
0.1507676
0.1549431
0.1586788
0.1610557
0.1619457
0.1608645
0.156512
0.1487377
0.1371428
0.1234253
0.1206346
0.1432096
0.1081935
0.1048038
0.1070148
0.1147656
0.1223894
0.1298214
0.135352
0.1393717
0.143787
0.1479733
0.1511048
0.1539932
0.1569912
0.1592162
0.1629532
0.1630949
0.1641145
0.163873
0.1643597
0.1617294
0.1588578
0.1525373
0.1532736
0.1579065
0.161641
0.1636636
0.1640646
0.1620725
0.1562566
0.146599
0.1336084
0.1246705
0.1304356
0.1369219
0.1039763
0.1070136
0.1105354
0.1201478
0.1284708
0.1355232
0.1409599
0.1462584
0.151332
0.1551945
0.1586271
0.1607616
0.1646406
0.1656674
0.1680637
0.1697748
0.1704865
0.1700343
0.1683373
0.1655556
0.1633074
0.1573639
0.1523566
0.1564052
0.1608694
0.1641442
0.165759
0.1653995
0.1619896
0.1540574
0.1423076
0.1292299
0.1278841
0.1240224
0.1138248
0.1143194
0.1181167
0.1275273
0.135607
0.1418744
0.1462017
0.1534396
0.157725
0.1617117
0.1641982
0.1661483
0.1687379
0.1709246
0.1726258
0.1737699
0.1741502
0.1735734
0.1718767
0.1689692
0.1646498
0.1589125
0.1532899
0.1538315
0.1594304
0.1634028
0.1663736
0.167213
0.1659699
0.160349
0.1503242
0.1361483
0.1284207
0.1358881
0.1549253
0.124662
0.1281589
0.1275704
0.1346538
0.1422255
0.1479661
0.1537435
0.1592046
0.1632355
0.1670058
0.1672823
0.1705942
0.1722563
0.1735446
0.174459
0.1749726
0.1749851
0.1743073
0.1727174
0.1700027
0.1659003
0.1601525
0.1528454
0.1510644
0.1575162
0.1621576
0.1657753
0.1679737
0.1678015
0.1641083
0.1559175
0.1426243
0.1325807
0.1280114
0.1482631
0.1441338
0.1537337
0.1381346
0.1387747
0.141777
0.1485961
0.1530926
0.1602806
0.1639896
0.1675614
0.1694414
0.1707483
0.172421
0.1731021
0.1734939
0.1736793
0.1736625
0.1733788
0.1726454
0.1712144
0.1688209
0.1651418
0.1597893
0.1525509
0.1497874
0.1549187
0.1608064
0.1652862
0.1689085
0.1695612
0.1674585
0.1605745
0.1490613
0.1388144
0.1337897
0.122324
0.1446224
0.1579373
0.1464606
0.1491542
0.1488714
0.1537559
0.1576103
0.1642395
0.1672859
0.1701005
0.1692116
0.1714782
0.171647
0.1714062
0.1710676
0.1707054
0.1703205
0.1698499
0.1691116
0.1678481
0.165778
0.1625546
0.1577345
0.1509892
0.1479476
0.1517195
0.1587318
0.1642365
0.1688771
0.170658
0.1698574
0.1641703
0.153883
0.1422816
0.1373887
0.1228151
0.1512062
0.15038
0.1528428
0.1547323
0.1547007
0.1571256
0.1598784
0.1659765
0.1684203
0.1688695
0.1689114
0.1693619
0.168503
0.1675256
0.166663
0.1659312
0.1653102
0.1647254
0.1639902
0.1628483
0.161023
0.1581659
0.1538267
0.1475994
0.1440978
0.1480529
0.1547617
0.1616352
0.1671961
0.1699639
0.1704354
0.1663782
0.1587959
0.1471529
0.1336452
0.1309846
0.1502394
0.1489563
0.1530808
0.1564972
0.157913
0.1599769
0.1610942
0.1655065
0.1667344
0.1645985
0.165763
0.1645533
0.1629197
0.1614084
0.1601844
0.1592125
0.1584488
0.1578033
0.1570826
0.1560375
0.1544041
0.1518421
0.1479165
0.1421969
0.139055
0.1437352
0.1499631
0.157962
0.1643569
0.1680083
0.1695886
0.1676971
0.162321
0.1505285
0.1371335
0.1331307
0.1456232
0.1446381
0.1502874
0.154894
0.1575542
0.1607299
0.1615317
0.165027
0.1654556
0.1626251
0.1632607
0.1615299
0.1594968
0.1577064
0.1562952
0.1552029
0.1543656
0.1536766
0.1529362
0.1518965
0.1503
0.1478157
0.1440226
0.1385095
0.1371157
0.1431261
0.1496127
0.1580293
0.1649603
0.169284
0.1716133
0.1707262
0.1657399
0.1534978
0.139905
0.135886
0.1414354
0.1419174
0.1469909
0.1521975
0.1561219
0.1601039
0.1616447
0.165955
0.1667811
0.1657454
0.164583
0.1640116
0.1622423
0.1606127
0.1593147
0.1583126
0.1575386
0.156878
0.1561248
0.1550191
0.1532886
0.1505938
0.1465082
0.1409799
0.1409596
0.1480707
0.1552903
0.1630029
0.169628
0.1737128
0.1756366
0.1734878
0.1671719
0.1541088
0.1401045
0.1347008
0.1359601
0.1525255
0.1434992
0.1487538
0.1543439
0.1589109
0.1609958
0.1659681
0.1673941
0.1686755
0.1662962
0.16747
0.1664656
0.1653365
0.1643951
0.16367
0.16311
0.1626048
0.1619444
0.1608568
0.1590459
0.1561497
0.1517283
0.1471048
0.1483696
0.1545825
0.1621015
0.1683201
0.1738656
0.1767503
0.1771841
0.1731851
0.1648723
0.1494743
0.1493602
0.1277284
0.1409623
0.1541804
0.1407981