/*--------------------------------*- C++ -*----------------------------------*\
  =========                 |
  \\      /  F ield         | OpenFOAM: The Open Source CFD Toolbox
   \\    /   O peration     | Website:  https://openfoam.org
    \\  /    A nd           | Version:  6
     \\/     M anipulation  |
\*---------------------------------------------------------------------------*/
FoamFile
{
    version     2.0;
    format      ascii;
    class       volScalarField;
    location    "50";
    object      p;
}
// * * * * * * * * * * * * * * * * * * * * * * * * * * * * * * * * * * * * * //

dimensions      [1 -1 -2 0 0 0 0];

internalField   nonuniform List<scalar> 
238185
(
308957.7
308807
308808.9
308939.6
309260.3
309220.4
309104.3
308993
309010.2
309146.9
309207.5
309224.4
309248.7
309330.6
309333.9
309307.5
309353
309377.7
309386
309375.5
309325.2
309338.2
309275.1
309160.8
309391.4
309290.4
309362.8
309536.4
309669.9
309770.4
309818.6
309806.5
309743.1
309639.7
309484.9
309307.6
309214.7
309194.8
309549.5
309474
309671.6
309892.6
310065.6
310185.2
310236.7
310211.9
310122.3
309976.7
309769.2
309540.1
309329.5
309320
309782.1
309682.7
309759.4
309999
310235.2
310414.4
310528.8
310576
310544.9
310450.2
310291.1
310064.7
309798.1
309543
309426.7
309413
309793.2
309744.5
309986.1
310265.7
310504.2
310678
310794.8
310842.3
310799.3
310690
310528.4
310298.3
310008
309702.8
309430.4
309393.9
309823.1
309741.4
309856.9
310152
310451
310679.9
310864.9
310981.2
311026.7
310980.5
310864
310681.7
310460
310155.9
309816.7
309499.4
309342.6
309303.2
309691.5
309645.9
309909.8
310242.7
310547.7
310765.8
310972
311065.6
311113.3
311060.1
310961.3
310752.3
310539.7
310230
309872.3
309518.4
309224.5
309160.1
309709.9
309653.8
309915
310245.1
310546.7
310761.7
310965.6
311056.8
311103.1
311048.6
310949.5
310739.8
310528.4
310217.8
309861.2
309505.7
309214.1
309168.2
309889.3
309771.1
309871.5
310158.8
310449.2
310670.2
310848
310958.7
311000.7
310951
310832.4
310649.8
310430.6
310126.5
309789.7
309471.5
309324.6
309332.9
309865.9
309773.5
309997.5
310263
310489.7
310651.8
310759.8
310800.2
310752.2
310640.9
310479.1
310250.5
309963.3
309660.9
309393.8
309387.7
309882.4
309725
309774.9
309995.7
310216.5
310380.4
310480.7
310512.4
310479.3
310382.2
310222.3
309996.2
309733.7
309483.7
309379.4
309411.9
309628.8
309498.5
309670.6
309872.1
310026.6
310124.8
310142.7
310127.2
310035.5
309888.2
309680.9
309453.4
309255.9
309284.3
309486.5
309320.4
309365.5
309514.8
309626.9
309701.3
309709
309706
309635.6
309525.8
309372.6
309200
309124.3
309171.6
309310.4
309355.7
309317.5
309263.3
309276.9
309256.1
309266.1
309245.3
309190.7
309206.7
309179.3
309103.6
309282.4
309206.3
309031.1
308871.3
308883
309008.8
309095.1
309134.5
308922.3
308726.4
308718.4
308844.9
304828
304951
305207.7
305409.6
305546
305612.7
305610.7
305536.8
305409.3
305417
304866.4
305099.6
305238.7
305402.6
305624.5
305782.3
305876.2
305926.9
305933.2
305877.3
305773.9
305736.6
305661.1
305566.5
305238.7
305262.1
305494.9
305766.8
305997.3
306203.7
306297.8
306300.7
306337
306402.5
306397.9
306279.4
306156.2
305961.1
305834.9
305845.8
305454.8
305523.1
305761.6
306074.3
306364.3
306532.2
306529.7
306533.4
306344.8
306369.4
306625.2
306657.3
306699.4
306619.4
306391.4
306177.5
306038.1
306027.6
305548.9
305684.6
305951.6
306316.5
306577.6
306670.3
306757.9
306555.2
306348.2
305951.2
305958
306402.5
306602.2
306851.8
306797.2
306732.2
306564.5
306301.9
306128.5
306080.9
305523.7
305726.3
306060.9
306455.5
306663.8
306770
306666.2
306528.5
306154.5
306067.7
306013.2
306004.3
306050.5
306127
306541
306664.3
306810.2
306743.2
306628.5
306329.9
306117.2
306076.4
305835.5
306077.5
306498
306838.8
306899.6
306566.2
306246.9
306227.6
306240.4
306257.8
306260.2
306240.7
306203.2
306156.9
306131.3
306142.7
306508.5
306843.9
306849.8
306596.7
306302.5
306218.5
305920.2
306128.2
306480.8
306914.6
307071.8
306876.5
306346.9
306305.9
306381.9
306472.8
306537.5
306559
306531.1
306458
306348
306218.5
306120.6
306168.9
306740.3
306924
306856.3
306537.1
306325.1
306291.4
306137.6
306378.3
306798.3
307158.9
307221.6
306844.2
306433.8
306477.3
306605.1
306725.9
306805.5
306830.6
306796
306706.5
306568.1
306392.9
306223
306162.5
306611.7
306989.9
306978.8
306708.2
306420.3
306335.1
306487.1
306670.6
307077.2
307242.4
307057.2
306539.8
306515.9
306643.9
306803.5
306937.3
307023.1
307048.9
307008.1
306907.2
306754.9
306559.1
306346
306187.9
306211.8
306773.7
306944.1
306864.5
306579.6
306522.5
306757.6
306876.9
307197
307254.3
306917.3
306520
306593.6
306768.3
306944.4
307086.6
307175.8
307201.6
307157.2
307049
306885.5
306678.6
306439.4
306219.4
306127.7
306563.7
306918.5
306913.9
306683.8
306663.7
306925.8
307000.8
307232.2
307071.9
306543.4
306494.1
306634.5
306832.3
307015.1
307161.7
307249.4
307273
307228.2
307118.7
306949.7
306737.9
306487.8
306239.1
306076.5
306131.4
306705.5
306882.8
306726.7
306742
306963.2
307028.8
307251.7
307080.4
306549.4
306496
306633.2
306827.8
307007.8
307152
307237.7
307259.6
307213.7
307103.6
306934.4
306722.7
306473
306224.9
306062.4
306118.2
306697.9
306882.5
306734.8
306768.8
306867.6
306956.1
307251.9
307278
306931.4
306521.6
306586.8
306752.9
306921.4
307057.1
307141.3
307163.2
307116.3
307007
306843.8
306638.2
306401
306183.5
306093.3
306530.2
306899.5
306907.7
306702.3
306731.7
306657.1
306786.2
307159.3
307295.6
307085.8
306546.8
306505.9
306619.7
306767.3
306890.8
306968.2
306987.7
306943.5
306841.4
306689.5
306496.1
306287.2
306132.4
306161
306734.9
306931.9
306862.5
306604
306616.3
306353.4
306523
306907.7
307228.8
307248
306852.9
306419.2
306444.6
306556.4
306662.9
306729.7
306744.6
306706.1
306615.2
306477.5
306305.6
306141.7
306087
306544.8
306944.8
306958.7
306712.9
306449.7
306443.3
306194.5
306305.2
306619.6
307005
307119.7
306891.9
306334.2
306268.9
306324.4
306396.7
306442.7
306448.3
306416.3
306342.5
306233.3
306107.8
306015.3
306073.3
306663.3
306874.3
306834.2
306552.8
306364.8
306424.6
306052.6
306240.9
306605.4
306903.8
306917.1
306555.7
306208.5
306165.6
306155.8
306149.6
306131.4
306105.7
306065.6
306018.4
305994.2
306009.8
306383.2
306750.1
306784.5
306571.6
306328.9
306284.5
305766.4
305904.5
306183.5
306540.6
306706.6
306767.2
306632.6
306469.4
306069.3
305953.7
305873.9
305854.5
305893.7
305964.1
306367.9
306506.1
306669.3
306632.9
306550.4
306300.1
306155.1
306180.1
305750.6
305823.4
306057
306385.1
306605.9
306661.1
306710.4
306476.9
306240
305813.3
305801.9
306224.4
306421.3
306668.4
306624.9
306583.2
306438.7
306211.3
306104.8
306191
305636.6
305656.4
305855.8
306129.1
306383.4
306519.5
306478.1
306440.8
306219.3
306225.1
306459.5
306480.2
306518.1
306441.9
306228.4
306043.6
305962.2
306073.8
305388.6
305375.7
305573.8
305812.5
306009.4
306176.9
306238.1
306196.4
306213.6
306257.6
306233
306102.1
305980.2
305792.3
305708.3
305835.6
305021.4
305209.6
305308.7
305440
305631.2
305758.8
305807.3
305840.5
305820.1
305739.1
305618.1
305584.6
305530.8
305480.8
304916.3
305011.8
305246
305421.7
305509.4
305562.8
305533.8
305434.4
305284.8
305283.8
300909.7
300990.3
301224.5
301418.9
301544.8
301601.6
301593.9
301740.4
300604.3
300854.7
301288.2
301423.6
301572.3
301786.5
301956.8
302062.4
302104.4
302096.7
302140.8
302194
302015.2
301980.8
301113
301154.4
301463.6
301771.4
301987.8
302227.5
302437.4
302592
302679.9
302703.3
302675.2
302611.5
302565.3
302454.6
302328.6
302451.1
300793.2
301229.3
301567
301791.5
301964.3
302207.4
302248.1
302446.8
302621.1
302747.2
302817.1
302831.8
302800
302748.1
302867.6
302806.2
302786.2
302745.1
302581.6
302339.5
301024.1
301280.4
301729.5
302027.8
302241.3
302242
302250.7
302066.4
302161.3
302258.2
302333.3
302384.6
302412.1
302420.5
302441
302778.2
302882.1
303036.9
302997.8
302868.9
302614.2
302527.7
301159.6
301459.2
301921.6
302262.1
302456.9
302303
302109.6
302163.5
302218
302252.6
302271.8
302288.2
302321
302371.9
302427
302472.3
302515.2
302560.8
302910.2
303179
303159.9
303014
302750
302678.6
301728.3
302078.8
302440.6
302666
302510.3
302261.6
302302.9
302351.1
302370.1
302337
302279.2
302227.1
302240
302328.6
302420.2
302498.9
302545
302568
302634.4
303030
303303.5
303270.1
303129.8
303038.3
301897.8
302241.9
302555.2
302795.4
302675.8
302425.1
302430.5
302462.4
302464.4
302428.1
302345.9
302238.9
302146.8
302135.8
302223.8
302328.8
302438.5
302505.8
302548.9
302596.3
302701.9
303105.4
303360.1
303343.1
303300.5
303309.2
301750.6
302153.6
302630.9
302918.2
302787
302576
302582.1
302564.9
302527.1
302474.7
302396.8
302305.2
302224.8
302164.2
302138.6
302155.5
302202.6
302292.4
302372.9
302460
302543.7
302646.8
302762.4
303147.4
303440.9
303418.5
303242.9
303205.1
302125.4
302599.9
302962.1
303023.1
302718.6
302749.1
302746.9
302660.2
302528.5
302434.8
302383.8
302354.2
302329.7
302300.9
302266.9
302230.8
302197.8
302187.7
302215.3
302324.1
302487.9
302632.5
302737
302855.9
303360.6
303513
303451.6
303358.1
302638.8
303013.4
303303.1
303146.7
302894.9
302917
302869.2
302715.5
302545.6
302472.8
302473.9
302495.6
302507.2
302494.2
302452.5
302385.1
302300.3
302216.4
302169.3
302228.1
302421.3
302601.1
302734.4
302846.1
303302.7
303632.3
303660
303658.6
302600.2
302962.8
303362.4
303432.3
303050.4
303035
303021
302912.8
302732.7
302595.5
302572.7
302615.5
302667.8
302698.1
302691.5
302643.5
302557.2
302441
302311.9
302206
302191.3
302333.4
302541
302706.2
302833.7
303011.6
303599.1
303790.2
303698.5
303755.3
302828.6
303224.2
303685.1
303692.2
303215.6
303141
303062.7
302897.2
302716.6
302644.5
302677.9
302753.4
302824.5
302865
302861.3
302808.7
302710.6
302575.8
302419.3
302271.2
302186.5
302239.8
302442.4
302637.4
302812.6
303034.7
303721.1
303953.2
303761.9
303704.4
303137.9
303491.3
303936.9
303900.7
303354.4
303199.4
303042.2
302850.5
302704.5
302689.9
302761.5
302858
302940.4
302986.6
302984.1
302928.6
302823.1
302676.4
302502.3
302325.4
302190.8
302169.4
302323.1
302555
302783.6
303068.5
303822.4
304085.6
303899.8
303853.3
303334.8
303661.5
304093
304026.6
303441.2
303237.4
303016.7
302799
302691.2
302715.6
302808
302914.7
303001.9
303050.1
303047.3
302990.7
302881.8
302729.8
302547.1
302356.2
302196.3
302130.2
302230.8
302486.7
302761.4
303086.2
303878.8
304159.7
303982.1
303952.5
303375.3
303695.8
304122.8
304050.6
303460.7
303252.3
303026.4
302805.9
302694.2
302715.2
302804.7
302909.1
302994.5
303041.2
303037.3
302979.9
302870.6
302718.4
302535.8
302345.3
302186.1
302120.1
302221
302477.5
302755.4
303084.7
303884.9
304174.4
304007.4
304000.9
303263.8
303595.9
304027.5
303974
303411.5
303240.2
303065.7
302864
302706.4
302682.7
302746.5
302836.7
302914
302956.3
302951
302893.8
302787.5
302640.8
302467.6
302292.2
302159.8
302139.2
302294.1
302529.3
302766.3
303065.3
303842.4
304127.9
303968.1
303972.9
303046.3
303396.6
303829.8
303804.9
303300.3
303199
303098.6
302915.5
302718.2
302630.3
302650.6
302715.6
302778.4
302812.3
302803.9
302748.8
302649.7
302515.1
302360.2
302214.6
302133
302189.5
302397.1
302602.7
302791.6
303036.3
303761.2
304023.6
303865.9
303875.2
302913.5
303202.7
303549.9
303575.3
303159.1
303109.6
303066
302930.6
302731.9
302572.9
302532.4
302560.6
302600.8
302621.2
302607.5
302555.9
302468.4
302353
302226.9
302125.8
302114.8
302262.4
302480.2
302662.9
302813.3
303022.5
303660.3
303885.3
303829.6
303974.6
302951.6
303240.2
303470.9
303280.4
302984.4
302971.9
302893.7
302714.3
302519.5
302423.5
302405.4
302410.4
302407.6
302384
302337.1
302268.4
302184.7
302104.9
302064.1
302127.9
302329.7
302526.6
302685.6
302829.8
303325.8
303710.4
303780.1
303830.7
302470.4
302853.8
303161.8
303175.4
302826.1
302818.5
302782.6
302663
302505.4
302384.1
302309.7
302257.8
302213.8
302169.9
302127.8
302088.8
302057
302050.2
302081.8
302195.4
302371.6
302540.3
302680.7
302841.4
303390.8
303613.6
303597.8
303580.4
302111.5
302426.9
302847.6
303088.3
302915.2
302662.5
302634.8
302585.6
302514.2
302433
302329.7
302210.3
302104.6
302023.3
301985.7
301996.1
302040.6
302125.8
302208
302301.6
302403.4
302537.4
302697.3
303134.1
303480.5
303538.7
303424.2
303508.8
302192.7
302467
302750.9
302946.1
302784.7
302499.6
302473.3
302473.5
302445.6
302376.8
302264.6
302130
302011.5
301981.3
302051.6
302146.4
302246.4
302312.6
302366.8
302435.9
302575.6
303025.5
303348.9
303405.3
303451.3
303577
301953.2
302282.8
302618.8
302810.8
302620.2
302333.3
302341.2
302358
302346.6
302281.7
302189
302106.8
302094.4
302157.2
302228.2
302294.2
302337.1
302369.9
302457.8
302885.1
303213.3
303262.4
303213.2
303240
301409.5
301682.4
302121
302438.5
302597.6
302407.9
302179.1
302199.1
302222.6
302224.5
302208.7
302190.4
302194
302216
302245.2
302272.9
302308.1
302357
302717.5
303027.7
303076.6
302998.7
302845.5
302928.7
301268.6
301495.3
301912.1
302191.8
302379.3
302343.4
302319.7
302100.4
302164.6
302228.6
302267.3
302289.3
302287.6
302268.3
302266.7
302587.3
302689.9
302853
302859.7
302783.6
302613.7
302664.1
301013.8
301430.1
301733.6
301941.9
302083.9
302299.3
302309.6
302482.4
302626.6
302712.5
302754.3
302741
302681.3
302606
302703.7
302632.1
302622.2
302623.3
302515.5
302358.9
301288.5
301306.5
301582.9
301863.8
302049.8
302264.6
302445.7
302557
302625.6
302623
302565.7
302477.2
302408.2
302292.5
302178
302317.9
300742.7
300965.5
301359.1
301469.5
301594.9
301784.2
301917.6
302004.9
302014.4
301973.6
301998.8
302028.1
301835.6
301777.9
300916.3
300972.8
301184.7
301354.9
301451.4
301460.4
301420.2
301535.1
297240.5
297251.9
297441.4
297607.7
297717.4
297989.1
296617.9
296917.9
297417.9
297851.4
297845.5
297928.5
298100.2
298242.8
298338.9
298496.3
298742.7
298640.8
298401.3
298333.4
296481.7
297027.2
297304.5
297568.5
297882.9
298159.1
298138.7
298286.4
298442.2
298567.9
298658.3
298737.8
298973.8
298971.4
298899.7
298851.1
298785.8
298516.7
297010.5
297247.2
297564.4
297833
297938.3
298144.4
298213.2
298047.3
298162
298290.4
298395.3
298476.1
298567.7
298950.6
299092.2
299106.6
299218.1
299181.4
299079.6
299022.1
297407.3
297594.6
297836.7
298105.6
297966.9
297804.7
297909.7
298019.1
298130.6
298261.2
298377.8
298462.1
298515.7
298559.6
298627.4
298700.8
298801.3
299185.8
299515.1
299482.5
299416.4
299418.6
297626.3
297797.9
298066.5
298157.9
298180.2
297898.3
297907
297973.1
298054.8
298159.6
298270.8
298363.5
298427
298463.3
298486.8
298526.3
298604.2
298715.8
298897.4
299399
299565.3
299656.9
299608.3
299636.3
297749.7
297990
298214.7
298157.1
298007.1
298017.3
298010.8
298019.8
298043.6
298078.3
298136.5
298199.5
298253.7
298296.2
298328.9
298358.7
298406.3
298500.2
298615.7
298773.8
298963.9
299146.3
299516.4
299743.4
299765.4
299785.2
297677.5
298143.7
298466.8
298353.5
298153.2
298160.9
298159
298128.7
298115.3
298124.9
298141.5
298158.5
298172.8
298186.1
298206.8
298238.4
298277.4
298328.1
298398.4
298495.6
298650.8
298835.2
299014.1
299214.9
299634.2
299935.2
299924.6
299775
297489.6
298142.8
298602.2
298738
298382.7
298345.3
298336.8
298293.9
298246.3
298232
298232.6
298227
298204.7
298190.6
298185.7
298184.4
298197
298220.4
298274.6
298331.8
298404.1
298524.5
298710.5
298911.1
299110.9
299368.4
299951.8
300097.9
299946.8
299635
298152.8
298626.8
299014.5
298905.8
298565.3
298513.4
298464.5
298405.2
298364.5
298343.9
298321.5
298302.4
298268.6
298219.6
298187.1
298167.3
298170.2
298190.4
298226.1
298258.5
298324
298418
298570.1
298778.3
299002.5
299271.7
299893.7
300238
300180.1
300071.3
298075.4
298644.8
299067.3
299022.8
298775
298704.4
298632.4
298571.5
298520.5
298471.5
298439.9
298406.9
298360.9
298315.9
298250.1
298194.7
298160
298150.5
298161.3
298175.6
298201.5
298254.5
298326.4
298457.6
298635.3
298867.5
299143
299472
300018.9
300320.3
300261.4
300080
298543.2
299077.6
299302.9
298982
298914.9
298833.8
298748.8
298692.2
298637.1
298577.6
298524.1
298468.2
298409.4
298361.9
298316.9
298270.5
298224.3
298182
298147.7
298131.7
298146.4
298195.2
298270.4
298381.7
298540.6
298753
299042
299358.7
299718.7
300341.8
300456.5
300290.7
299190.4
299524.7
299595.5
299183
299076
298962.4
298872.7
298809.6
298733.1
298659.7
298588.7
298514.7
298478.9
298457.5
298432.3
298393.1
298337.9
298270.3
298197.7
298134.5
298104.2
298140.8
298221.8
298319.9
298477
298677
298964.1
299310
299707.8
300437.2
300686
300703.2
299694.4
299884.1
299763.6
299394.6
299247.1
299087
298980.2
298898.5
298811.6
298720.9
298637.9
298587.9
298577.3
298577.5
298566.3
298531.6
298469.9
298384.7
298284.3
298184.7
298112.4
298104.2
298171.7
298278.4
298419
298617.3
298901.1
299289.6
299716
300420.5
300834.7
301019.3
299549.9
299903.3
299981.6
299669.2
299572.8
299415.2
299216.3
299072.1
298954.7
298856.3
298765.3
298684.7
298664.8
298677.4
298693.6
298691.9
298659.8
298593.7
298496.7
298377.2
298250.8
298143.1
298089.9
298130.5
298229.7
298358.2
298572
298876.5
299298.2
299724
300130.8
300732.4
300917.6
300818
299667.4
300065.7
300179.6
299825
299739.7
299564.1
299326.2
299139.6
299000.3
298880
298777.5
298723.9
298727.8
298757.1
298783.9
298788.1
298757.5
298688.5
298584
298452.2
298307.7
298174.6
298087.3
298087
298177.8
298325.1
298539.2
298872.2
299325.6
299760.3
300149.3
300796.7
300919.6
300714
299855
300225.3
300316.9
299941
299851.8
299661.3
299397.2
299182.2
299033.5
298901.3
298786.5
298751.2
298768.7
298806.9
298839.1
298845.9
298815.9
298745.7
298637.6
298499.6
298345.6
298198.9
298092.3
298066.2
298154
298313.4
298522
298873.6
299346.1
299788.8
300180
300852.2
300992.8
300798.3
299897
300260.8
300348.1
299970.1
299878
299684.2
299415.9
299196.8
299044.7
298909.2
298791.6
298753.7
298769.4
298806.3
298837.4
298843.4
298812.8
298742
298633.4
298494.8
298340.4
298193.2
298085.8
298059.1
298146.4
298305.4
298515.8
298870.4
299346.4
299794.1
300192.6
300875.7
301031.8
300862.6
299814.3
300190.5
300284.4
299915.9
299817.9
299629.5
299376.4
299175.6
299024.9
298895.5
298783.9
298723.2
298721.5
298746.8
298770.5
298772.2
298739.9
298669.6
298563.8
298430.7
298285
298151
298062.6
298061.1
298151.9
298300.4
298520.7
298863.9
299329.6
299779.7
300188.6
300863.3
301022.9
300881.1
299824.7
300141.1
300166.7
299823.3
299698.1
299514.5
299290.8
299123.3
298987.3
298874
298768.6
298675.3
298645.3
298650.3
298660.7
298654.4
298619.1
298550.5
298451.3
298329.8
298201.8
298093.2
298040.5
298080.7
298181.6
298316.1
298542.7
298866.6
299311.9
299764.5
300203
300845.1
301092.2
301112.2
300051.2
300142.7
299976.2
299556.9
299371.1
299179.7
299042.6
298936.2
298828.8
298719.5
298618.5
298554
298532.1
298523.3
298505.1
298465.1
298399.8
298311.7
298209
298107.8
298035
298029
298098.1
298209.9
298362.7
298580.7
298892.6
299315.5
299778.6
300526.4
300993.7
301266.4
299598.3
299847.8
299853
299375.9
299220.4
299072.6
298945.9
298853.2
298752
298656
298563
298469.3
298417.6
298383.1
298347.1
298299.8
298239.1
298167.5
298092
298027.7
297998.6
298038.4
298123.7
298232.3
298409.6
298637.6
298960.6
299348.7
299792.6
300579.8
300907.3
301004.8
298968.1
299416.8
299578
299194.4
299079.7
298959.4
298837.1
298748
298664.9
298578.8
298499.9
298419.9
298340
298273.6
298212.7
298153.6
298098.4
298049.8
298011.3
297993.8
298011.2
298063.6
298146.4
298275.4
298463
298712.4
299045
299416.3
299833.7
300528
300723.9
300634.9
298512
298985.2
299353.8
299263.2
298962.8
298850
298743
298648.1
298566.4
298488.8
298428.4
298368.3
298296.2
298226.5
298138
298063.3
298014.5
297995.1
297999.7
298011
298037.3
298093.8
298177.7
298333.8
298548.4
298825.5
299154.4
299552
300169.7
300553.2
300573.8
300481.8
298494.6
298919.2
299268.6
299122.2
298741.6
298652.3
298570.2
298479
298407.4
298356.5
298304.9
298255.6
298192.7
298115
298057.2
298016.8
298005
298014.1
298041.7
298069.4
298139.9
298250.1
298431.1
298678.5
298953.9
299290.4
299992.6
300416.9
300463.2
300449.4
297824.9
298436.4
298869.7
298972.5
298585
298519.1
298478.1
298403.1
298322.5
298275.9
298245.1
298208.3
298154.7
298107.5
298072.2
298044.4
298035.5
298040
298079.5
298128
298204.6
298341.1
298553.1
298792.8
299052.9
299385.4
300052.6
300312.5
300263.1
300097.3
297976.5
298418.9
298725.3
298587.5
298358.8
298338.4
298302.4
298239.4
298193.3
298170.2
298154.7
298139.8
298120.6
298100.9
298090.7
298093.9
298106.9
298136.6
298194.7
298291.7
298454.1
298660.4
298882.9
299146.5
299642.7
300041.4
300167.5
300179.9
298033.7
298265
298472.3
298389
298207.7
298187.7
298150.6
298127.5
298119.4
298122.3
298149.4
298181
298202.5
298212.8
298214.2
298214.7
298237.6
298311.9
298418.5
298575.7
298784.8
299008
299434.2
299734.1
299893
300082.6
297900.7
298061.5
298305.5
298371.9
298365.9
298052.3
298031.4
298068.4
298121.7
298199.1
298280.2
298340.8
298373.8
298379.4
298372.4
298384.7
298439.5
298535.9
298714.9
299228.7
299424.7
299558.9
299610.2
299779.6
297663.7
297830.3
298048
298296.6
298127.5
297932.1
298008.5
298090.6
298176.8
298279.1
298364.6
298420.4
298444.2
298457
298497.8
298551.8
298640.6
299019.9
299345
299331.1
299318.8
299399.8
297240.4
297451.3
297741.5
297984.7
298063.5
298239.5
298275.8
298082.1
298171.6
298273.2
298350.2
298399.3
298460.7
298818.6
298944.8
298943.2
299038.4
298993.6
298912.2
298858.5
296676.9
297174.1
297430.3
297675.8
297959.6
298194.9
298144.9
298274.5
298410.4
298504.9
298555.7
298607.1
298816.9
298788.1
298695.4
298640.8
298560.6
298266
296716.1
297002.1
297476
297849.3
297810.7
297879.5
298036
298135.8
298186.8
298319.6
298529
298404.1
298140.1
298051.6
297154.3
297163.2
297344.6
297445.5
297501.8
297730.4
292885
293239.8
293593
293788.9
294017.5
294207.2
294297.5
294385.5
294395.5
294359.8
292597.4
293050
293546.9
293771.4
294006.8
294246.6
294209.8
294368.9
294527.7
294659.1
294963.5
295056.7
295103.4
295099.3
294885.1
294724.6
293313.7
293324.2
293690.8
293869.1
294147
294346
294371.5
294145.5
294250.2
294390.9
294556.7
295043.5
295289.3
295365.7
295322.9
295372.9
295282.7
295486
292904.8
293511.1
293757.8
293749.4
293854.5
293767.5
293911.9
294030.9
294085.3
294140.5
294246.6
294369.2
294504.5
294681.4
294856.8
294990.5
295089.1
295418.2
295541.9
295763.2
295740.8
295387.5
293304.7
293638.1
293946.4
293859.6
293692.2
293729.9
293798.3
293898.1
293981.3
294033.8
294107.5
294202.9
294302.9
294407.9
294536.4
294691
294829.3
294960.3
295126.9
295325.1
295723.7
295985.9
295898.6
295726.8
293535
293935
294227.1
294096.9
293834.4
293809.1
293797.9
293816.2
293874.9
293939.9
294003.8
294082.1
294163.5
294239.2
294311.6
294394.3
294502
294627.8
294783.4
294996.6
295240.8
295501.5
295968.7
296265.9
296175
295946.3
293645.2
294126
294467.6
294309.6
293985.4
293924.2
293893.2
293853.6
293849.5
293898.4
293963.6
294015.9
294078
294137.2
294188.5
294235.3
294288.8
294366.4
294461.1
294591.7
294808.5
295078.1
295343.1
295625.9
296152.8
296460.6
296339.7
296069.9
293635.7
294207.7
294625.7
294513.3
294158.6
294042.2
293981.5
293944.1
293932.2
293940.2
293957.8
293992.8
294018.5
294048.9
294077.7
294104.9
294134.3
294173.8
294236
294319.5
294442.1
294619.6
294835.7
295101.7
295399
295732.3
296286.9
296557.9
296381.7
296075.8
294366.5
294704.4
294684.6
294383.9
294239
294135.1
294072.2
294047.5
294045.1
294037.8
294023.3
294016.1
294011.6
294006.7
294004.2
294008.5
294024
294053.3
294102.5
294181.4
294300.2
294454.9
294636.1
294865.1
295164.8
295512.3
295882.6
296411.9
296628.9
296609.4
294480
294859.3
294809.2
294602.5
294498.9
294359.2
294257.3
294208.9
294186.1
294152.9
294115.9
294088
294059.6
294026.9
294006
293987.3
293969.4
293955.7
293962.6
293999.4
294058.4
294152
294294
294477
294685.5
294952.4
295307.8
295706
296067
296521.5
296804.1
296787.8
294133.5
294758.9
295027.4
294783.1
294719.7
294615.6
294485.2
294402.2
294358.7
294305.9
294245.4
294197
294152.4
294118.5
294076.6
294036.5
294000.7
293964.9
293930.7
293918.2
293922.9
293952.3
294026.5
294144.5
294317.7
294532.6
294782.4
295113.6
295533.3
295919.1
296253.7
296728.8
296741.7
296467.1
294718.2
295264.1
295249.6
294945.9
294833.8
294716.3
294619.9
294553.3
294483.7
294405.3
294334.2
294284.9
294236.3
294189.6
294140.9
294074.9
294011.8
293959.3
293922.5
293903.1
293881.6
293887.6
293928.7
294020.5
294171.7
294378.6
294635.6
294945.6
295334.7
295777.1
296185.7
296764.3
296997.2
296791.2
295363.9
295598.6
295283.9
295127.2
294969.1
294837
294753.2
294683.7
294589.4
294502.2
294430.9
294381.1
294322.3
294255.4
294193.6
294131.9
294066.9
294001.7
293941.5
293891.3
293858
293854.4
293874.6
293934.7
294060.2
294247
294499.6
294806.4
295169.9
295641.1
296130.4
296572.3
297120
297219.6
295282.1
295889.1
296043.7
295539.2
295320.9
295129.3
294992.7
294890.1
294792.2
294689.4
294588.9
294522.2
294461.4
294384.1
294325.3
294274.9
294221.6
294157.7
294083.3
294003.6
293925.2
293859.2
293823.5
293838.3
293877.1
293976.1
294148.4
294385.4
294697
295081.9
295556.1
296105.3
296616.2
297321.3
297383.9
296999.3
295803.7
296301
296336.2
295732.8
295487.2
295287
295151.2
295028.1
294892.3
294774.1
294674.8
294599.6
294523.6
294456.7
294411.1
294373
294327.8
294265.4
294184.7
294090.3
293989.5
293894.8
293826.9
293809.7
293838.3
293916.4
294066.2
294293.9
294616.7
295019.9
295487.7
296069.5
296631.5
297431.1
297553.1
297229.3
296252.4
296609.4
296445.6
295868.1
295613.7
295423.3
295280.7
295138.7
294979.6
294839.6
294744.5
294665.8
294582
294530
294498.1
294470.8
294432.2
294371.2
294286.1
294181.2
294063.7
293946
293849.2
293799.1
293816.2
293869.4
293997.2
294222.9
294549.3
294958.5
295423.7
296000.1
296593.5
297379.8
297652.8
297430.4
296561.3
296644.5
296245.4
295965.7
295732.3
295547.9
295395.3
295231.5
295047
294902
294796
294701.7
294629.9
294591
294570.2
294550.9
294516.8
294456.8
294368.8
294257
294128
293993.9
293875.6
293799.7
293790
293841.9
293958.1
294174.8
294508.3
294923.8
295386.4
295951.9
296536.3
297032.1
297540.9
297564.2
296786.8
296788.8
296326.4
296054.7
295822
295635.7
295474.4
295295
295093.8
294952.8
294840.3
294731.6
294668.4
294637.8
294623.5
294608.8
294577.2
294517.7
294428.2
294312.6
294177.2
294033.9
293903.3
293811.7
293785.1
293843.2
293950
294156.7
294495
294914.9
295377.9
295942.3
296530.6
297025.7
297602.2
297693.7
296828.1
296827
296363.8
296089.4
295853.3
295663.6
295499.1
295315.3
295110.5
294966.9
294852.1
294742.1
294677.9
294646.9
294632.4
294617.5
294585.7
294525.9
294436
294319.5
294182.7
294037.8
293905.3
293811.4
293782.5
293838.9
293944.4
294150.6
294489.5
294910.9
295377.3
295948.4
296546.6
297053.5
297645.1
297762.8
296713.5
296777.7
296369.4
296074.1
295825.6
295626.6
295460.5
295281.9
295085.6
294932.6
294820
294720.6
294645
294603.9
294581.7
294561.4
294526.2
294465.2
294375.7
294261.3
294128.7
293990.4
293867.4
293786.2
293771.7
293820.8
293935.4
294153.2
294491.7
294915.7
295391.5
295978.1
296590.4
297117.4
297665.7
297753.1
296536.2
296850
296667.6
296050.6
295765.1
295544.8
295377.1
295211.2
295032.2
294877.3
294770.3
294681.6
294589.7
294531.8
294495.8
294465.4
294423.9
294360.4
294272.3
294163.1
294040.1
293916.3
293813.2
293756.9
293769.6
293820.2
293949.5
294182.3
294521.9
294949.7
295439.9
296051.7
296689
297525.4
297863.4
297756.1
296186.9
296641.3
296637.1
295973.9
295683.6
295439
295268.6
295115.4
294953.9
294815.4
294699.9
294610.7
294522.5
294445.8
294392.9
294349.2
294299.3
294232.8
294147.8
294047.9
293940.4
293838.3
293763
293739.3
293765.1
293842.3
293997.6
294238.6
294582.9
295014.7
295519.3
296149.1
296768.3
297638.8
297848.4
297613.9
295743.5
296295.7
296389.4
295818.5
295546.3
295303.1
295126.6
294990.5
294862.6
294735.5
294614.5
294529.6
294452.8
294361
294290.8
294231.1
294170.1
294099.6
294019.1
293932.5
293846.4
293772.3
293729.4
293739.3
293776
293878
294062.2
294320.2
294662.5
295085.7
295608.3
296218
296800.4
297588.2
297725.8
297432.7
295838.5
295972.6
295580.3
295364.1
295157.3
294985.6
294868
294768.1
294647
294536
294442.1
294372
294294.4
294210.8
294134.5
294060.3
293984.5
293909.7
293840.1
293780.7
293738.9
293728.6
293746.2
293805.1
293938.6
294144.6
294427.1
294774.6
295188.4
295721.2
296280.8
296798.4
297426.3
297622.5
295197
295651.3
295563.7
295196.8
295042.9
294887.1
294756.8
294660
294562.4
294457.6
294360.9
294286.4
294214.5
294145.3
294076.6
293991.8
293911.7
293844
293793.6
293762.3
293732.4
293732.1
293770.5
293862.9
294027.9
294261.3
294557.8
294920.2
295374.4
295890.3
296377.1
297040.9
297348.9
297260.6
294578.9
295132.5
295342.2
295049.9
294949.4
294814.2
294652.6
294539
294466.9
294386
294297.2
294220.9
294149.2
294087.9
294020.2
293954.6
293896
293838.5
293785.3
293756.1
293750.2
293772.4
293841.7
293964.2
294155
294401.7
294698.2
295092.7
295588.4
296056.5
296480
297047.9
297177.7
297033.7
294827.2
295177.2
295100.9
294860.7
294727.2
294559
294429.6
294352.2
294299.6
294236.3
294169.1
294111.7
294053.7
293991.8
293940.7
293893.6
293847.9
293810.1
293795.5
293816
293862.3
293949.8
294096.7
294298.3
294540.8
294860.2
295287
295767.8
296223
296773.5
297169.2
297316.9
294691.1
295009.9
294968
294641.4
294471
294341.4
294250.2
294194.3
294160.8
294122.9
294078.2
294040.6
294005.6
293969.7
293936.6
293909.2
293894.8
293897.2
293923.3
293983.6
294093.3
294249.1
294445.7
294710.1
295066.1
295485.7
295942.8
296571.5
296898.5
297050.6
293977.6
294530.7
294929.5
294799.4
294418.2
294275
294185.8
294117.3
294074.9
294052.7
294041.1
294047.9
294044
294043.5
294041.7
294036.4
294032.8
294041.6
294076.5
294137.5
294244.8
294418.8
294645.4
294944.3
295291.3
295688.8
296329.8
296696.9
296674.8
296547.4
293970.2
294437
294765.4
294587.8
294233.9
294143.6
294081.3
294010.9
293978.5
294000.1
294040.2
294066.5
294099.2
294127.9
294148
294162.1
294183.4
294231.9
294303.2
294416.6
294626.6
294900.9
295188.6
295506.3
296085.4
296460.6
296474
296389.6
293840.9
294229.3
294508.4
294353.8
294057.5
294001.6
293956.9
293946.8
293980.9
294022
294062.1
294114.8
294168.2
294213.2
294252.9
294303.4
294382.8
294487.3
294626.4
294828.7
295071.8
295344.7
295835.9
296159.9
296155.7
296064.7
293583.6
293909
294198
294080.9
293875.5
293879.6
293922
293996.9
294053.7
294081.7
294132.5
294202.8
294272.2
294343.3
294440.1
294568.8
294687.8
294801.4
294955.1
295150.4
295557.2
295817.7
295769.7
295655.2
293165.5
293744.4
293962.5
293921.7
293987.8
293875.4
293994.7
294083
294108
294142.6
294225.8
294316.1
294415
294560.8
294713.6
294826.6
294907.5
295225.2
295343.5
295555.7
295518.2
295182.3