/*--------------------------------*- C++ -*----------------------------------*\
  =========                 |
  \\      /  F ield         | OpenFOAM: The Open Source CFD Toolbox
   \\    /   O peration     | Website:  https://openfoam.org
    \\  /    A nd           | Version:  6
     \\/     M anipulation  |
\*---------------------------------------------------------------------------*/
FoamFile
{
    version     2.0;
    format      ascii;
    class       volScalarField;
    location    "50";
    object      p_rgh;
}
// * * * * * * * * * * * * * * * * * * * * * * * * * * * * * * * * * * * * * //

dimensions      [1 -1 -2 0 0 0 0];

internalField   nonuniform List<scalar> 
238185
(
124226.3
124242.8
124245.7
124209.9
124300.6
124316
124310.2
124332
124349.6
124355
124306.6
124268
124429.2
124423.8
124393.6
124380.9
124369.9
124370.8
124379.3
124393.8
124400.7
124401.1
124372.4
124343.9
124574.8
124519
124495.2
124472
124443.5
124427.6
124413.7
124402.2
124401.1
124413.9
124422.2
124442.1
124444.6
124379.4
124647.7
124608.5
124573.9
124541.6
124507
124482.8
124459.4
124434.9
124420.3
124418.1
124418.9
124443.2
124464.6
124419.2
124828.6
124746.9
124697.6
124648.9
124604.5
124561.4
124526.9
124499
124467.9
124448.5
124438
124433.9
124448.2
124481.8
124491.6
124459.5
124895.8
124822
124761.7
124707.8
124651.2
124600.4
124564.8
124530.7
124487.7
124460
124450.6
124445.2
124450.3
124478.9
124507.7
124494.7
125100.3
124953.9
124877.6
124811.4
124749.8
124678.2
124635
124591.3
124554.3
124508
124474
124451.6
124458.4
124454.6
124475.9
124519.8
124553.5
124578.1
125134.5
124989.6
124905.5
124839.7
124771.3
124688.8
124660.3
124593
124563.2
124509.8
124488.7
124440.5
124462.7
124453.3
124468.9
124514.3
124567.6
124601.9
125152
124997.6
124911
124841.8
124770.2
124684.7
124653.8
124584.2
124553.1
124498.4
124476.8
124427.9
124451.1
124441.1
124457.8
124501.5
124557.9
124610.4
125164.7
124982.9
124892.1
124818.1
124748.1
124668.5
124617.9
124568.7
124528
124478.3
124442.3
124419.6
124428.4
124424.7
124448.4
124491.7
124536.4
124608.4
124966.9
124850.9
124773.6
124705.5
124636.8
124574
124529.6
124488.3
124440.3
124410.7
124401.2
124397.4
124405
124435.7
124470.5
124489.5
124928.2
124788.7
124712.4
124645.6
124585.9
124527.1
124478.5
124436
124403
124380.3
124369.1
124365.7
124383.5
124421.2
124443.2
124458
124726.5
124632.8
124573.5
124521.7
124468.3
124423.2
124372.6
124357.1
124334
124330
124330.6
124356.4
124390.8
124382.2
124671.7
124551.7
124500.1
124452
124401.5
124359.4
124312.3
124309.5
124294.2
124300.6
124309.5
124334.3
124355.5
124356.3
124495.5
124453.3
124380
124338.5
124295.7
124256.9
124266.9
124264.4
124266.7
124269.1
124276.3
124288.8
124326.4
124305.2
124240.9
124219.3
124230.6
124218.5
124194.7
124178.7
124195.6
124168.1
124160
124117.9
123826.7
123869.3
123914.6
123961.6
124020.5
124088
124165
124247.1
124331.4
124420.2
123870.4
123909.8
123913.7
123951.2
123991.8
124032.5
124077.3
124129.3
124186.8
124248.2
124325.4
124415.7
124474.6
124573.7
124017.2
123987
123994.1
123996.4
124024.7
124057.4
124099.9
124126.2
124164
124207.4
124253.5
124308.8
124389.3
124464.6
124565.4
124631.2
124150.8
124113.9
124099.9
124097.9
124095.8
124122.5
124127.6
124177.8
124202.7
124228.5
124271.9
124258.3
124293.5
124355.4
124420.8
124521.9
124634.3
124729.5
124328.6
124272.9
124232.6
124217.6
124221.7
124201.3
124238.1
124241.6
124229.5
124216.1
124223.7
124286.7
124292.6
124335.9
124332.7
124381.1
124469.8
124587.8
124724.3
124868.7
124531
124455.5
124399.3
124355.6
124345.5
124350.9
124336.1
124308.6
124277.1
124253.2
124241.2
124232.9
124237.8
124252.3
124324.7
124338.7
124394.7
124427.9
124533.5
124674.6
124852.7
125088.5
124651.5
124582.1
124524.5
124484.9
124483.1
124429.1
124386.9
124349.4
124323.4
124297.6
124275.9
124256.8
124244
124241.3
124255.2
124285.1
124373.4
124429.4
124499.7
124627.2
124811.6
125038.2
124926.7
124812.1
124717.2
124651.5
124607.9
124551.8
124489.1
124446
124405.8
124371
124339
124308.9
124281.2
124259.9
124246.6
124243.2
124261.6
124312.1
124417.1
124462.8
124595.1
124775.7
125011.1
125300.8
125065
124937.6
124833.5
124756.9
124709.2
124630
124558.7
124502.4
124454.3
124410.9
124372
124335.4
124300.9
124273.1
124253.2
124242.1
124248.2
124287.6
124397.8
124477.8
124576.5
124744.1
124978.9
125262.6
125204.4
125050.6
124940.5
124848.8
124752.1
124667.9
124602.1
124543.6
124489
124440.4
124396.7
124354.4
124313.5
124280.8
124257.7
124244.2
124245.3
124273.6
124338.9
124466.1
124549.3
124727.2
124956.5
125238.5
125319.2
125139.2
125010.4
124908.1
124806.7
124710.6
124636.4
124571.4
124511.5
124460.4
124412.6
124367.4
124323
124285.5
124258.9
124245.2
124241.8
124261.3
124316.9
124450.6
124570.3
124725.2
124943.6
125225.3
125408
125210.6
125066.4
124937.6
124814.4
124726.2
124652.8
124583.5
124520.4
124467.3
124415.3
124368.6
124323.6
124284.3
124254.8
124242.7
124238.2
124256.3
124307.5
124400.9
124570
124716.3
124936.3
125225.1
125444
125236.1
125083.7
124944.8
124820
124728
124651.4
124578.9
124513
124457.5
124403.5
124355.3
124309.2
124269.2
124239.5
124227.3
124223.3
124242
124293.4
124388.1
124562.1
124714.6
124942.6
125250.2
125425.9
125213.9
125063
124930
124819.1
124711.8
124629.5
124556
124488.4
124430.8
124378
124329
124282
124243.5
124217.1
124204.5
124203.2
124225
124282.6
124418.1
124551.7
124718.8
124960.9
125290.2
125371.4
125163.2
125023
124901.2
124778.7
124674.5
124592.2
124519.5
124452.8
124393.8
124341.9
124293.4
124249
124214.9
124192.3
124181.1
124186
124217.4
124287.9
124428.7
124537.6
124725.4
124982.3
125331
125280.1
125081.3
124943.7
124826.4
124735.4
124638.6
124544.1
124470
124405.9
124348.2
124296.7
124250.6
124212.2
124182.2
124162.7
124154.8
124166.5
124211.3
124330
124431.9
124556.5
124748.4
125009.2
125370.4
125201.6
124989.2
124856.8
124742.8
124658.1
124567.7
124477.3
124410.1
124349.4
124295.9
124245.8
124202.4
124170.4
124145.6
124132.4
124132.6
124156.3
124216.2
124338.8
124411.8
124573.4
124790.7
125050.3
125433.2
124871.2
124746.7
124633.9
124554.4
124503.4
124421.7
124351.4
124289.7
124240.8
124191.8
124152.6
124127
124108
124103.5
124118.1
124152.4
124249.2
124336.3
124435.3
124603.5
124835.9
125102.9
124778.6
124636.1
124526.2
124447.4
124393.3
124353
124307.8
124253.5
124195
124142.7
124107.9
124088.6
124082.9
124090.3
124152.2
124181.1
124255.5
124320.4
124458.4
124646.3
124887.8
125190.9
124534.5
124418.7
124344
124289.8
124254
124197
124195.7
124168.1
124126.4
124084.9
124073.5
124111
124112.9
124153.7
124161.8
124233.3
124345.6
124500.2
124703.3
124977.2
124337.6
124248.6
124195.9
124155.5
124118.2
124112.9
124079.9
124090.5
124082.9
124088.9
124109
124082.8
124113.6
124178.6
124256.5
124385.7
124557.2
124778
124169.6
124105.1
124077.2
124045.8
124039.7
124035.3
124046.2
124031
124048.7
124065.5
124091
124133.6
124214.8
124296.7
124439.3
124619
124027.9
124023.2
123989.1
123993.8
124004
124012.9
124016.2
124050.2
124075.6
124112.2
124171.6
124265.1
124347.1
124492.2
123918.5
123931.8
123952.9
123971.7
123985.2
124040.1
124087.2
124145
124207.5
124287
123821.5
123883
123982.1
124094.9
124219.1
124354.2
124484.5
124655.4
123598.5
123617.9
123710.6
123752.3
123812.6
123894.7
123988.5
124093.3
124210.2
124333.8
124467.8
124618.2
124783.9
124979.7
123647
123623.7
123646.7
123699.6
123742.5
123797.7
123866.4
123944.2
124032
124132.1
124244.6
124364.5
124493.4
124640.5
124803.9
124993.4
123708.7
123692
123685.8
123688.1
123692.5
123749.7
123790.6
123840
123894.9
123957.2
124027.6
124106.8
124194.7
124292.4
124412.9
124537.1
124687.2
124870.6
125051.8
125263.3
123887.1
123814.8
123781.4
123768.2
123791.4
123803.7
123812.1
123818.9
123846.4
123883.6
123927.6
123979.7
124039.6
124108.1
124196.3
124344.2
124448.6
124591.4
124743.7
124929.1
125156.6
125396.6
124075.6
123994.1
123935.7
123905.5
123909.8
123887.5
123866.9
123862.5
123874.1
123890.3
123914.1
123938.2
123971.9
124016.2
124066.8
124130.9
124217.8
124322.3
124499.7
124638.4
124810.2
125033.8
125292.3
125603.2
124192.8
124132.5
124083.5
124064
124020.5
123976
123958.9
123948.6
123950.8
123948.5
123957.2
123963.3
123977.2
124008.5
124034.3
124083
124146.6
124228.9
124354.3
124546
124707.5
124920.3
125191.9
125511
124437.6
124363.9
124296.6
124249.6
124184.7
124120.4
124086.5
124064.9
124041.7
124034.1
124021.9
124007.5
123993.3
123982.9
123994.3
124007.9
124047.7
124087.1
124155.8
124256.9
124402.6
124621.7
124822.1
125091.7
125429.6
125854.9
124747
124628.9
124530.3
124470.5
124374.8
124291.5
124238.3
124199.7
124166.1
124135.8
124107.8
124083.4
124055.7
124030.1
124005
123987.9
123982.9
124006
124037.3
124102.1
124182
124307.8
124483.6
124741.3
124997.8
125324
125723.6
126207.6
124896.8
124788.6
124693.6
124591
124480.8
124408.4
124351.8
124301.1
124250.1
124211.1
124171.9
124137.5
124101.6
124066.5
124032.7
124003.4
123982.2
123977.3
123993.4
124047.3
124130.7
124240.6
124400
124622
124931.6
125250.7
125647.2
126132.3
125072.7
124946
124850.4
124717.2
124600.9
124520.3
124451.7
124381.2
124324
124275.1
124228.6
124184.8
124141.2
124097.8
124056.1
124019.3
123989.7
123971.3
123971.8
124006.8
124087.2
124184.9
124339.1
124553.8
124875.3
125185.4
125600
126093.7
125530.1
125301.5
125120.9
124981
124812.3
124699.6
124609.6
124526.1
124449.5
124387.2
124328.9
124275.2
124224.1
124174.1
124124.3
124076.2
124032.8
123996.7
123970.8
123961.2
123981.7
124048.9
124153.2
124293.9
124498
124773.4
125151.1
125555.4
126039.8
126679.9
125733.7
125469.9
125259.5
125093.4
124911.4
124788.6
124683.5
124581.9
124501.1
124432
124369.3
124310.5
124254.5
124199.9
124145.5
124092.7
124045
124004.8
123975
123960.8
123971.8
124021.7
124123.7
124255.6
124458.3
124728.5
125123.4
125532.8
126011.9
126607
125897.5
125602.1
125371
125182.8
124990.3
124852.4
124730
124627.9
124541.9
124466.2
124398.1
124335.1
124275.7
124217.9
124160.6
124104.9
124053.7
124010.5
123977.8
123959.7
123964.1
124003.2
124096.3
124239.2
124433.5
124702.3
125105.1
125523.5
126016.2
126618
126012.5
125697.5
125451.2
125244.2
125044.3
124896.6
124761.8
124653.1
124563
124485.2
124414
124348.6
124286.7
124226.8
124167.9
124111
124057.8
124013.2
123979.3
123959.8
123962.8
123998.3
124081.1
124228.3
124418
124688
125097
125520.1
126021.7
126635.7
126058.9
125734.8
125482
125267.9
125062.7
124910.5
124770.9
124659.6
124565.8
124484.7
124410.7
124343
124279.2
124217.9
124157.9
124100.2
124046.5
124001.8
123967.9
123948.8
123952.6
123988.1
124071.3
124219
124411.4
124685.6
125102.1
125534.1
126047.1
126685.3
126033.6
125714
125464.8
125255.5
125045.4
124891.6
124752.3
124640.4
124543.4
124458.8
124383
124313.7
124249.3
124187.6
124127.6
124070.1
124018
123974.9
123942.8
123926.2
123932.8
123973
124067.6
124213.5
124415.8
124698
125122.7
125563.9
126084.9
126741.3
125955.1
125649.6
125409.6
125206.5
124995
124846.4
124718.9
124599.4
124502.6
124418
124342.3
124272.9
124208.6
124147.4
124088.4
124033.1
123984.2
123944.1
123915.8
123904
123918
123971.2
124078.8
124221.1
124437.2
124729.9
125160.7
125600.3
126117.1
126783.8
125841.3
125546.3
125315.5
125127
124921.4
124775
124655
124544.3
124449.2
124365.1
124289.2
124220.9
124157.7
124097.9
124041.3
123989.6
123944.6
123909
123885.8
123880.7
123904.8
123977.4
124092.1
124250.7
124477.4
124784.1
125209.2
125647
126172.6
126905.1
125386.4
125179.8
125022.8
124851.7
124691.9
124576.7
124478.3
124381.6
124299.6
124227.5
124161.6
124101.1
124043.3
123990.2
123943.2
123903.7
123874.6
123859.9
123866.5
123906.4
123995.1
124110
124290.4
124537.1
124897.8
125260.2
125716.5
126268
125241.4
125047
124899
124745.8
124590.9
124480.7
124391.4
124307.3
124230.2
124163.4
124100.5
124043.6
123988.3
123939.1
123897
123863.1
123842.2
123840.1
123860
123919.1
124014.9
124149
124344.1
124606.6
124962.4
125349.3
125790.5
126356
125110.3
124903.3
124752.1
124645.3
124506.9
124382.3
124296.3
124224.8
124157.5
124098.4
124044.6
123991.9
123939.1
123893.5
123855.9
123830.6
123822
123840.1
123873
123944.6
124043
124199.8
124419
124726
125038.4
125444.6
125905.1
126512.1
124730.2
124590.7
124496.8
124404
124299.3
124199.5
124133.1
124079.8
124027.2
123987.1
123944.9
123903.2
123862.9
123832.7
123824.8
123826.9
123856.7
123894.9
123974.3
124097.3
124277.5
124543
124809.5
125154
125581.3
126123.8
124421.2
124339.6
124265.4
124212.5
124132
124050.3
124000.1
123958.8
123930.6
123897
123871.6
123848
123835.8
123839.9
123844.2
123879.5
123939.4
124030.7
124177
124400.1
124618.7
124914.2
125273.8
125712.5
124330.6
124219.9
124137.2
124082.8
124053.4
123996.2
123939.6
123901.5
123881.7
123865.7
123855.3
123846.2
123850.2
123863.1
123887.1
123933.2
124011.9
124119.4
124308.5
124486.6
124725
125020
125387.9
125852.4
124130.3
124029.4
123967.1
123934.5
123929.7
123907.4
123885.9
123855.9
123852.2
123856.1
123865.8
123888.4
123916.5
123957.3
124023.3
124153.6
124257
124409.2
124607
124842.7
125153.1
125532.4
123931.4
123897.7
123855.5
123839.6
123813
123843.3
123851.3
123873.1
123897.1
123923.6
123966.2
124014.6
124075.5
124150.6
124249.3
124364.7
124524.4
124747.3
124985.7
125281.7
123824.9
123778.6
123770
123794.4
123803.8
123831.1
123869.2
123910.5
123979.1
124047.5
124132.8
124230.1
124336.9
124478.8
124652.3
124855.8
123734.9
123731.4
123788
123804.5
123836.3
123888.4
123948.7
124034.6
124115.1
124209.7
124326.8
124451.6
124601.7
124774.7
123839.2
123872.7
123940.9
124024
124118.2
124210.9
124314
124452.3
123970.8
124050.8
124194.5
124356.8
124516.2
124728.6
123529.1
123562.9
123649.9
123790.8
123844.5
123936.4
124062.4
124202.5
124343.9
124500.2
124691
124874.3
125046.9
125253
123446
123481.2
123488.7
123517.8
123585.9
123687
123756.7
123849
123959.5
124083.6
124217.3
124356.7
124506.6
124677.4
124850.4
125038.5
125248
125487.8
123502.4
123443.5
123448.9
123479.5
123511.6
123566.3
123630.7
123677.9
123752.3
123842.3
123946.6
124064.8
124197.4
124367.4
124515.2
124684
124867.5
125071
125284.8
125522.5
123572.3
123518.1
123474.9
123497.7
123501.2
123507.2
123541.6
123580.2
123627
123687.2
123758.8
123843.1
123941.4
124055.6
124188.3
124333.9
124507.2
124725.8
124913.4
125127.6
125348.6
125591.7
123715.2
123644.9
123603.7
123567.8
123556.5
123528.6
123528.4
123552
123580.1
123616.6
123661.9
123715.7
123779.5
123854.9
123944.5
124052.6
124184.9
124340
124532.2
124782.5
124981.7
125200.6
125462.4
125730.8
123915.6
123838.1
123777.5
123705.1
123641.3
123606.3
123590.7
123586.6
123593.3
123607.9
123628.5
123655.9
123690.3
123733.2
123786.3
123852
123937.5
124052.2
124185.7
124357.3
124557.9
124786.8
125071.6
125311.9
125619.6
125958.9
124171.2
124069.4
124003.2
123901.1
123803.2
123743
123701.8
123674
123660.8
123655.8
123659.4
123666.6
123677.8
123692.4
123713.5
123744.5
123786.9
123847.6
123931.5
124043.9
124199.3
124382.5
124601.5
124870.8
125189.4
125479.6
125858.4
126276.2
124454.2
124342.7
124241.8
124148.5
124017.9
123927.6
123861.3
123808.9
123774
123752.8
123738.8
123731.4
123725.6
123720.4
123717.3
123716.5
123725.2
123742.8
123780.9
123840.3
123927.5
124055.4
124229.2
124439.9
124698.8
125010.6
125370.2
125747
126155.3
126607.1
124614.9
124514.7
124409.3
124286.5
124156.4
124057.8
123979.7
123923.5
123884.2
123855.2
123831.7
123811.3
123793.5
123773.8
123755.7
123736.4
123722.8
123717.2
123734.2
123770.5
123837.4
123940.2
124091.7
124297.6
124551.5
124868.2
125280.6
125639.9
126077.4
126542.1
125000.6
124834.6
124715.2
124561.8
124409.3
124287.4
124180.6
124100.9
124041
123995
123955.5
123922.2
123890
123860.9
123827
123792.2
123758
123728.7
123708.3
123704
123718.9
123769
123851.2
123980.2
124167.5
124418.7
124729.3
125111
125562.7
125976.6
126461.8
127009.6
125194.5
125029.3
124880.9
124690.1
124541.3
124406.4
124299.2
124216.8
124151.2
124094.9
124046.8
124005.4
123961.9
123918.9
123873.5
123826.9
123781.1
123739.6
123706.2
123686.1
123685.6
123716.7
123785.6
123896.2
124065.9
124304.5
124615.8
124988.6
125431.1
125923.5
126415.5
126949.6
125427.2
125236.2
125026.7
124821.8
124661.5
124520.2
124410.8
124322.1
124248.7
124182.2
124127.9
124074.7
124022.1
123969.6
123915.7
123860.2
123805.2
123754.3
123710.6
123678.7
123665
123680.6
123737.8
123833.5
123988
124213.9
124521.2
124897.4
125349.5
125869.3
126398
126944.6
125651.8
125428.7
125192.3
124963.5
124780.5
124626.1
124507.4
124411.5
124328
124255.8
124193.9
124132.6
124072.9
124013.8
123953.6
123891.8
123830.2
123772.1
123720.8
123680.3
123657
123659.6
123701.7
123788.8
123928
124140.7
124437.4
124822.6
125286.5
125849.6
126374
126969.1
126306.9
125923.8
125615.1
125309.6
125077.1
124881.6
124719.2
124591.2
124486.1
124393.2
124316.7
124246.1
124179.4
124114.7
124051
123986.5
123920.3
123854.2
123791.2
123734.3
123687.4
123656.5
123649.6
123679.4
123756
123883.1
124085.2
124374.6
124762.2
125228.6
125770.7
126360.2
126926.6
127560.6
126479.5
126082.2
125748.2
125422
125173.5
124965.1
124793.9
124656.3
124540.9
124443.3
124361
124285.2
124214
124145.8
124079
124011.7
123942.7
123873.6
123807.2
123746.5
123695.1
123659
123646.1
123667.1
123732.9
123856.3
124048.7
124334.1
124723.1
125193.7
125747.2
126366.5
126933.8
127520.1
126609.7
126189.6
125837.9
125499.5
125241.1
125023.3
124844.6
124699.8
124578
124477.8
124390.3
124312
124238.5
124168.5
124100.1
124031.3
123961
123890.6
123822.4
123759.6
123705.8
123666.7
123650.4
123666.4
123726.1
123846.4
124032
124314.9
124704.2
125176.7
125739.3
126376.6
126961.4
127556.2
126659.2
126231.9
125874.2
125531.1
125268.3
125046.3
124863
124714.1
124588.9
124485.5
124395.2
124314.4
124239.1
124167.7
124098.3
124028.7
123957.8
123886.8
123818.1
123754.8
123700.4
123660.9
123643.7
123659.2
123718.5
123838.3
124025.6
124311.3
124703.9
125181.7
125752.3
126401.7
127003.2
127625
126632.5
126214.4
125860.4
125517.8
125254.5
125031.1
124843.7
124691.7
124565.1
124458.4
124367.2
124284.4
124207.8
124135.5
124065.6
123995.9
123925.2
123854.7
123786.9
123724.9
123672.3
123635.3
123621.2
123641.1
123707.1
123831.5
124029.9
124325.1
124725.9
125212.3
125787.9
126437.5
127045.3
127697.6
126574.8
126157.8
125801.2
125467.8
125206.2
124982.6
124794
124642.7
124518.8
124410.9
124320.2
124237.1
124160.3
124088.1
124018.5
123949.5
123880
123811.3
123746
123686.9
123638.4
123606.6
123600.1
123629.6
123708.1
123841.2
124055.8
124364.2
124774.5
125268.1
125844.7
126479
127110.4
127863.4
126001.6
125683.9
125408.4
125130.3
124907.6
124720.3
124571
124450.3
124346.3
124255.6
124175.7
124099.8
124028.7
123960.6
123893.4
123826.4
123761
123699.7
123645.8
123603.5
123579.6
123584.3
123628
123720.3
123871.8
124104
124428.4
124846.8
125347.8
125956.7
126536.8
127218.4
125836.9
125557.9
125285.2
125019
124809.9
124632.7
124486.2
124368
124270
124180.7
124104.3
124031.2
123962.6
123896.9
123832.3
123768.8
123708.1
123652.5
123605.5
123572.1
123559.5
123578.2
123639.5
123745.9
123920.7
124174.2
124517.1
124934.3
125433.2
126013.3
126618.5
127240.1
125625.6
125374.3
125158.2
124905.9
124710.3
124535.3
124390.7
124275.9
124182.6
124099.5
124025.9
123960.1
123895.2
123833.1
123771.8
123712.6
123657.4
123608.8
123570.6
123548.5
123550.7
123585.3
123661.8
123790.2
123988.5
124263.6
124618.7
125045
125545.3
126110.1
126679.6
127290.6
125437.1
125181.8
125007.3
124802.9
124600.2
124436.8
124295
124181.5
124091.2
124016.2
123947.7
123887.3
123828.7
123774.6
123718
123664
123615.1
123575.1
123547.8
123540.1
123555.2
123608.8
123703
123857
124080.7
124376.1
124741
125191
125714.5
126207.2
126769.4
127412.5
124960.1
124811.6
124663.9
124502.5
124335.8
124200
124089.5
124001
123930.4
123871.2
123818.6
123768
123721.1
123672.8
123629.2
123588.8
123559.8
123542.3
123550.6
123581.9
123653.5
123772.5
123952.9
124198.1
124502.4
124886.8
125379.4
125819.7
126358.6
126918.4
124793.1
124638.7
124513.8
124386.6
124223
124104.3
124005.3
123920.4
123852.6
123799.3
123754.3
123715.6
123678.7
123640.6
123607.3
123579.5
123565.8
123563.8
123586.6
123637
123728.1
123871.8
124071.4
124321.7
124641
125027
125472
125961.5
126472.3
127072.6
124470.2
124347.1
124266.3
124136.4
124009.8
123921.6
123847.4
123787
123741.2
123703.6
123675
123650.5
123628.4
123610.1
123600
123601.8
123617.6
123657
123728.3
123840.3
124002.8
124207.1
124469.2
124801.9
125197.3
125586.6
126101.8
126683.3
124198.4
124112.5
124033.7
123934.6
123843.2
123778.5
123731.7
123696.1
123671.6
123653.6
123642.7
123638.5
123640.6
123651.1
123672.3
123708.5
123769.3
123864.2
123988.7
124159.3
124378.3
124647.1
124985.3
125301.9
125747.5
126255.9
123986.2
123906.3
123842.5
123783.9
123744.9
123684
123654.2
123648.8
123647.1
123655.1
123669.9
123693.2
123726.5
123770
123829.4
123910.8
124020.2
124160.3
124349.1
124608.8
124839.6
125101.3
125461
125873
123823.5
123754.2
123689.8
123689.7
123662.3
123636.4
123642.3
123652.7
123672.1
123702.6
123745.1
123800.6
123867.4
123951.4
124058.2
124184.5
124345.7
124557.4
124740.1
124975.6
125248.1
125566.5
123726.7
123649.1
123629.7
123630.5
123636.2
123664
123698.2
123715
123760.4
123822.7
123898.6
123985.2
124089.9
124235.6
124367
124519.2
124687.6
124882.3
125113.4
125352.2
123636.7
123635.5
123621.1
123623
123660.8
123729.8
123770.6
123837.5
123921
124013.4
124114.3
124228.7
124349.9
124492.7
124646.2
124828.2
125019
125232.4
123639
123650
123701.5
123792.6
123822.1
123891.5
123989.4
124086.5
124193.8
124327.7
124476.6
124635.4
124785.3
124967.4
123901
123971.1
124087.4
124185.3
124304.5
124474.2
123664
123744
123887.7
124001.8
124162.4
124345.5
124510.5
124690.6
124900.7
125133.5
123387.5
123436.6
123536.8
123578.8
123661.2
123786.5
123896.2
124035.8
124192.1
124349.4
124514.7
124714.6
124908.2
125091.8
125278.4
125512.6
123387.2
123345
123388.7
123445.5
123509.2
123595.9
123703
123793.8
123917
124056.9
124206.6
124382.3
124545
124728.1
124902.8
125080.3
125304.8
125555.6
123321
123337
123333.2
123325.1
123363.6
123392.7
123448.9
123524.3
123601.9
123686.2
123791.5
123913.8
124050.4
124201.2
124354.3
124530.1
124717.6
124934.3
125123.4
125339
125566.5
125809.3
123449.3
123369.6
123350.2
123321.3
123307
123326.6
123353.6
123393
123445.8
123499.8
123565.9
123648.6
123748.6
123866.4
124003.6
124156.9
124326.2
124518.8
124727.4
124944.9
125191.4
125393.7
125634.5
125879.4
123583.5
123498.5
123444.3
123389
123325
123311.5
123317.5
123332
123354.6
123384.2
123419.6
123466.9
123527.5
123603.2
123696.5
123810.3
123946.8
124108.7
124301.5
124519.6
124747.3
124997.3
125267.5
125488.9
125743.5
126000.6
123792.5
123690.6
123614.4
123524.7
123426.9
123368.8
123344.8
123333.3
123333.6
123342.5
123358.5
123379.2
123409.4
123449
123500.5
123567.3
123653.1
123762.8
123903.6
124076.7
124290.4
124533
124791.7
125072.2
125374.5
125612.3
125908.5
126223.6
124053.9
123941.5
123843.4
123729.4
123596.3
123499.8
123435.8
123397.5
123375.2
123366.9
123364.4
123369.4
123376.9
123389.3
123407.6
123435.3
123475.9
123533.9
123614.9
123725.2
123870.9
124061.7
124290.8
124558.6
124860.1
125174
125508.6
125781.9
126122.5
126501.5
124192.3
124108.5
123977.5
123826.5
123696.2
123596
123524.8
123475.9
123446.1
123430.1
123418
123409.8
123403.8
123399.2
123397.9
123402.4
123417.4
123446.9
123498.4
123578.8
123695.8
123856
124063.2
124318.8
124628.1
124972.9
125329.8
125711.3
126040.6
126444.6
124546.2
124431.1
124271.7
124095.2
123945.5
123814.3
123710.2
123631.2
123576
123540.5
123513.9
123492.1
123472.6
123453.7
123433.3
123413.3
123395.9
123386.9
123390.4
123414.2
123464.9
123553
123685.1
123867
124106.1
124405.9
124765.2
125156.1
125565.3
125991.2
126386.6
126870.2
124916.9
124776.9
124606.1
124401.4
124225.8
124071.3
123941.9
123832.6
123749.2
123690.3
123646.3
123611.1
123579.8
123548.3
123516
123481.8
123447.3
123412.2
123380.7
123359.5
123357.7
123381.4
123442.8
123548.1
123705.5
123923
124210.4
124570.3
124990.7
125429
125878.9
126316.8
126771.8
127266.6
125109.6
124972.8
124768.8
124548
124359.1
124201.4
124067.4
123957.3
123873
123807.2
123755.8
123712.1
123670.5
123627.8
123585.1
123537.4
123485.7
123433.9
123387.1
123350.5
123326
123324.4
123360.7
123443.2
123575.7
123770.8
124038.6
124390
124819.5
125303.9
125792.6
126290.8
126709.5
127185.7
125365.2
125184.9
124916.5
124690
124492.5
124328.5
124189.4
124080.2
123991
123919.3
123860
123809.5
123759.2
123705.9
123650.5
123591.4
123528
123463.4
123402.9
123351
123312
123295.2
123308.9
123367.1
123477.3
123649.6
123897.7
124235.6
124658.5
125163.6
125694.3
126209.3
126711
127222.5
126066.5
125701.2
125412.1
125085.9
124826.8
124618.9
124445.6
124304.5
124193.1
124099.3
124021.7
123956.8
123899.9
123838.7
123776.3
123712.4
123645.1
123573.1
123499.3
123428.6
123364.9
123312.8
123281.1
123279.9
123317.8
123406.3
123557
123785.8
124106.5
124528.9
125042.2
125608.4
126163.2
126695.4
127205.1
127792.3
126312
125963.1
125600.6
125241.6
124965.5
124743.3
124559.3
124413.4
124294.4
124195.3
124111.7
124042.7
123977.3
123909.2
123840
123770.1
123697
123619
123538.6
123460.5
123388.1
123325.5
123281
123265
123284.5
123352.6
123483.1
123692.9
123999.7
124418.5
124938
125542.4
126135
126692.8
127219.9
127747.1
126568.3
126172.5
125798.9
125402
125094.1
124852
124658.9
124507.2
124381.8
124276.5
124188.6
124115.7
124043.1
123970
123896.2
123822.2
123745.2
123663
123578.1
123494.8
123415.9
123344.9
123289.7
123260.5
123266
123315.6
123426.9
123619.3
123913.1
124324.3
124844.5
125473.3
126119.3
126723.3
127208.1
127740.5
126792.3
126346.6
125907.2
125523.9
125203.3
124945.6
124742.1
124582.8
124450.7
124339.7
124249.1
124170.2
124093.9
124017.5
123940.9
123864.4
123785
123700.2
123612.4
123525.4
123441.8
123364.7
123301.7
123262.8
123257.1
123294.5
123390.9
123570.4
123853.1
124256.8
124775.3
125416.1
126089.2
126689.2
127238.7
127784.6
126935.7
126460.6
126001.1
125609.9
125279.6
125012.6
124801.7
124635.7
124498.9
124385.3
124293.6
124211.2
124133.6
124056
123978.4
123901.1
123820.6
123734.6
123645.2
123556.1
123469.4
123388.4
123320.5
123275.6
123262.7
123294.2
123381.6
123552.6
123828.5
124227.7
124745.5
125393.3
126082.1
126699.7
127275.3
127840.8
126984
126503.8
126041.7
125647
125312.3
125041.2
124826.7
124656
124515.4
124399.3
124305.4
124221.6
124143.1
124065
123987.3
123909.8
123829.1
123742.8
123652.9
123562.9
123474.9
123392.2
123322.4
123275.1
123260.1
123289.9
123376
123546.5
123822.9
124223.6
124744.9
125399.7
126099.1
126729.4
127321.7
127917.2
126946.1
126482.5
126034.2
125635.8
125299.4
125026.1
124808.3
124633.5
124489.4
124370.5
124273.3
124189.3
124109.4
124030.6
123952.7
123875.2
123794.7
123708.8
123619.3
123529.8
123442.4
123361
123293.4
123249.3
123238.9
123273.4
123368.3
123548.7
123836.2
124248.4
124780.4
125443.4
126146
126779.1
127368.8
127983.5
126843.1
126406.7
126019
125585
125247.7
124976.1
124757.1
124580.9
124435.4
124315.1
124215.4
124132.5
124051.7
123972.7
123894.9
123817.6
123737.8
123653
123565
123477.2
123392.6
123315.4
123254
123218.4
123219.7
123266.8
123379.5
123579
123885.7
124315.2
124860.6
125526.2
126218.1
126875
127418.8
128060.2
126699.4
126306.2
125901.6
125482.6
125164.2
124898.5
124679.7
124503
124358
124238.5
124138.7
124055.6
123977.9
123899.9
123823.4
123747.7
123669.8
123587.5
123502.6
123418.8
123339.4
123269.2
123217.4
123194.9
123211.5
123279
123415.1
123638
123965.9
124412.9
124969.3
125622.3
126272.4
126899.5
127508.2
128121.3
126539
126117.4
125762.7
125367.3
125054.5
124796.3
124583.1
124407.9
124266.5
124148.3
124050.2
123966.9
123894
123818.1
123744
123670.6
123595.5
123516.8
123436.4
123358.4
123286.6
123226.2
123187.2
123181.1
123216.9
123308.5
123471.2
123720.9
124072
124532.1
125093.9
125721
126345.4
126956.3
127542.5
128225.3
125840.4
125562.1
125217.2
124930.5
124684.3
124480.9
124307.8
124168.3
124052.2
123956.7
123874.7
123803.7
123734.4
123664.2
123594
123522.2
123447.7
123373
123302.6
123241.1
123193.4
123169.7
123180.6
123237.6
123355.9
123547.5
123825.4
124203.7
124676.5
125243.3
125844
126433.4
127017.3
127629.2
125589
125360.4
125086.9
124803.6
124571.2
124375.4
124207.9
124067.7
123955.6
123863.4
123786.2
123717.3
123652.1
123586.7
123523.8
123456.9
123388
123320.6
123259.4
123210.6
123177.2
123169.2
123202.6
123285.7
123432.1
123653.6
123960.8
124364.6
124859.1
125417.1
125982.5
126564.8
127063.3
127657.6
125377.4
125161.8
124927.8
124672.7
124458.2
124271.9
124112.1
123972.8
123860.9
123773.8
123701.4
123638.2
123579.8
123520.7
123462.5
123402.6
123345
123287.8
123236.7
123198.3
123185.5
123201.7
123257.9
123367.6
123542.7
123792.2
124126.2
124549.3
125045.9
125566.7
126104.5
126635.2
127204.3
127825.2
124908.6
124757.7
124565.8
124356.1
124176.5
124016.5
123884.8
123777
123691.8
123626.3
123569.7
123518.4
123469.3
123421
123370.4
123321.8
123276.1
123242.5
123224.1
123231.2
123269
123350.6
123487.2
123687.7
123961
124314
124744.8
125218.3
125721.8
126245
126749.7
127391
124520.1
124415.1
124261
124085.1
123928.9
123803
123704.1
123624.4
123563.7
123517.3
123474.9
123436.3
123399.5
123363.8
123331.5
123304
123288.9
123291.2
123319.3
123380.9
123488.5
123649.7
123871.9
124162.1
124528.3
124946.3
125389.7
125871.8
126310.9
126882.7
124389.5
124261.1
124146.1
124012.5
123854.1
123731.3
123640.6
123572.1
123519.3
123481.1
123449.4
123425.8
123403.1
123384.6
123371.9
123366.9
123374.3
123401.4
123455
123542.9
123673.1
123860.1
124099.3
124399.1
124748.9
125128.4
125549.7
125921.7
126415.1
126973.2
124109.2
123998.8
123909.3
123798.7
123673.6
123588.5
123534.2
123491.8
123463.9
123445.4
123435.7
123429.7
123429.9
123439.3
123459.4
123492.9
123546.5
123627.2
123744.9
123900.8
124107
124353.5
124635
124949.5
125301.7
125611.5
126044.6
126542.3
123884.3
123791.2
123721.2
123641.2
123547.8
123504.7
123477.3
123463.7
123461.8
123467.4
123477.9
123498.5
123530.8
123575.5
123635.6
123717.5
123826.1
123966.8
124143
124349.5
124575.7
124837.5
125127.9
125377.7
125723.4
126117.1
123725.9
123639.8
123597.4
123538.7
123491.7
123478.1
123478.1
123493.2
123520.9
123549.6
123590.3
123646
123714.5
123799.1
123905.6
124033.2
124183
124358.2
124553.8
124767.8
125020.5
125222.6
125503
125800.8
123579.3
123569.3
123534.2
123499.8
123505.3
123502.7
123531.5
123579.6
123629.7
123689.1
123766.3
123855.2
123958.5
124079.9
124209.5
124364.1
124534.2
124738
124922.5
125134.2
125347.4
125597.8
123568.7
123503.6
123516.5
123541.6
123576.5