/*--------------------------------*- C++ -*----------------------------------*\
  =========                 |
  \\      /  F ield         | OpenFOAM: The Open Source CFD Toolbox
   \\    /   O peration     | Website:  https://openfoam.org
    \\  /    A nd           | Version:  6
     \\/     M anipulation  |
\*---------------------------------------------------------------------------*/
FoamFile
{
    version     2.0;
    format      ascii;
    class       volScalarField;
    location    "50";
    object      T;
}
// * * * * * * * * * * * * * * * * * * * * * * * * * * * * * * * * * * * * * //

dimensions      [0 0 0 1 0 0 0];

internalField   nonuniform List<scalar> 
238185
(
924.6336
924.6353
924.6432
924.6511
924.6576
924.6603
924.6651
924.6787
924.6914
924.7062
924.7204
924.7276
924.6863
924.6887
924.691
924.7033
924.7127
924.7241
924.7358
924.7472
924.7582
924.7686
924.7777
924.7822
924.7206
924.7214
924.7315
924.7381
924.7466
924.7551
924.7638
924.7721
924.7798
924.7866
924.7924
924.7975
924.8021
924.8056
924.7607
924.7659
924.7709
924.7763
924.782
924.7876
924.7929
924.7976
924.8019
924.8055
924.8086
924.8112
924.8135
924.8159
924.7903
924.7899
924.796
924.7989
924.8018
924.8048
924.8076
924.8101
924.8123
924.8143
924.816
924.8174
924.8186
924.8197
924.8209
924.8226
924.809
924.8104
924.8114
924.8126
924.8138
924.8149
924.816
924.8169
924.8177
924.8184
924.8189
924.8194
924.8198
924.8202
924.8205
924.8211
924.8137
924.8138
924.8148
924.8153
924.8158
924.8162
924.8167
924.817
924.8174
924.8177
924.818
924.8182
924.8185
924.8187
924.8189
924.8191
924.8197
924.8216
924.8128
924.813
924.8134
924.8137
924.8141
924.8145
924.8148
924.8151
924.8154
924.8157
924.816
924.8163
924.8165
924.8168
924.817
924.8173
924.8178
924.8189
924.8107
924.8109
924.8113
924.8117
924.8122
924.8126
924.813
924.8134
924.8138
924.8141
924.8145
924.8148
924.8151
924.8154
924.8157
924.8161
924.8167
924.8179
924.8075
924.8075
924.8087
924.8093
924.8099
924.8105
924.8111
924.8117
924.8123
924.8128
924.8133
924.8138
924.8142
924.8146
924.815
924.8155
924.8164
924.8187
924.8022
924.8032
924.804
924.805
924.806
924.8071
924.8081
924.8091
924.81
924.811
924.8118
924.8127
924.8134
924.8142
924.815
924.8162
924.7906
924.7905
924.7936
924.795
924.7966
924.7982
924.7999
924.8015
924.8032
924.8048
924.8063
924.8078
924.8092
924.8107
924.8123
924.8144
924.776
924.7781
924.78
924.7821
924.7844
924.7867
924.7891
924.7915
924.7938
924.796
924.7982
924.8002
924.8024
924.8048
924.7574
924.7575
924.7617
924.764
924.7669
924.7699
924.7731
924.7763
924.7794
924.7825
924.7855
924.7886
924.7916
924.7945
924.7411
924.7415
924.7422
924.7472
924.7503
924.7542
924.7582
924.7623
924.7667
924.7711
924.7764
924.7791
924.7266
924.7268
924.7275
924.733
924.7372
924.7424
924.7491
924.7526
924.7123
924.7118
924.7144
924.7185
924.5063
924.5092
924.5181
924.5278
924.5377
924.5475
924.5572
924.5667
924.5755
924.5828
924.506
924.5093
924.5163
924.5242
924.5335
924.5436
924.5542
924.5654
924.5772
924.5896
924.6032
924.6183
924.635
924.6441
924.5154
924.5183
924.5264
924.5349
924.5447
924.5558
924.5669
924.5789
924.5922
924.607
924.6222
924.6386
924.6551
924.6719
924.6883
924.702
924.5302
924.5328
924.5417
924.551
924.5617
924.5726
924.5849
924.6019
924.6118
924.6265
924.6428
924.6626
924.6801
924.6969
924.7135
924.7288
924.7437
924.7547
924.5562
924.5573
924.5676
924.5777
924.5883
924.6007
924.6187
924.6257
924.6379
924.6564
924.6734
924.6905
924.7033
924.7184
924.7366
924.7504
924.7628
924.774
924.784
924.7919
924.5989
924.5971
924.6083
924.6185
924.6294
924.6462
924.6494
924.6597
924.6748
924.6892
924.7047
924.7195
924.7337
924.7464
924.7588
924.767
924.7767
924.7884
924.7958
924.8027
924.8085
924.8129
924.6567
924.6626
924.6711
924.6814
924.6946
924.6928
924.7023
924.7129
924.7248
924.7368
924.7485
924.7594
924.7694
924.7783
924.7861
924.7927
924.7994
924.804
924.8103
924.8147
924.8185
924.8217
924.7178
924.7141
924.7255
924.7318
924.7378
924.7428
924.7444
924.7506
924.7584
924.7666
924.7746
924.782
924.7888
924.7947
924.7998
924.8042
924.808
924.8114
924.8151
924.8188
924.8217
924.8245
924.8268
924.8295
924.7691
924.77
924.7724
924.7755
924.7797
924.7778
924.7821
924.7859
924.7904
924.795
924.7992
924.8031
924.8064
924.8094
924.8119
924.814
924.8159
924.8176
924.8198
924.8218
924.8245
924.8267
924.8286
924.8306
924.8004
924.8007
924.8017
924.8026
924.803
924.8024
924.8035
924.8052
924.8071
924.809
924.8107
924.8122
924.8135
924.8146
924.8156
924.8164
924.8171
924.8178
924.8189
924.8209
924.8234
924.8254
924.8273
924.8293
924.8094
924.8097
924.8102
924.8107
924.8104
924.8103
924.8106
924.8111
924.8117
924.8123
924.8128
924.8133
924.8137
924.8141
924.8145
924.8148
924.8152
924.8156
924.8164
924.8182
924.8206
924.8225
924.825
924.8273
924.8095
924.8098
924.8101
924.8105
924.8098
924.8095
924.8095
924.8097
924.81
924.8102
924.8105
924.8108
924.8111
924.8113
924.8116
924.8119
924.8123
924.8127
924.8135
924.8153
924.8183
924.8211
924.824
924.8267
924.8068
924.8071
924.8075
924.808
924.807
924.8067
924.8067
924.807
924.8073
924.8077
924.8081
924.8085
924.8089
924.8092
924.8096
924.81
924.8105
924.8109
924.8119
924.814
924.8174
924.8205
924.8236
924.8266
924.8026
924.803
924.8036
924.8042
924.8038
924.8037
924.8039
924.8045
924.8051
924.8058
924.8065
924.8072
924.8078
924.8084
924.809
924.8096
924.8102
924.8108
924.8122
924.8147
924.8178
924.8206
924.8236
924.8265
924.7955
924.796
924.7969
924.7976
924.7978
924.7973
924.7977
924.7987
924.8
924.8013
924.8026
924.8039
924.8052
924.8064
924.8076
924.8087
924.8098
924.811
924.8129
924.8158
924.8191
924.8218
924.8245
924.827
924.7801
924.7808
924.7818
924.7831
924.7848
924.784
924.7855
924.787
924.7889
924.7911
924.7933
924.7955
924.7977
924.7998
924.8019
924.8039
924.8058
924.808
924.811
924.8137
924.8174
924.8204
924.823
924.8255
924.7585
924.7578
924.7628
924.7649
924.7669
924.7679
924.7677
924.7696
924.7723
924.7753
924.7785
924.7817
924.7849
924.7879
924.7909
924.7937
924.7966
924.7999
924.8039
924.8082
924.8117
924.8151
924.8181
924.8213
924.733
924.7358
924.7389
924.7424
924.7468
924.7452
924.7481
924.7515
924.7555
924.7598
924.7641
924.7684
924.7725
924.7765
924.7804
924.7845
924.7893
924.7932
924.7988
924.8031
924.807
924.8105
924.7018
924.701
924.708
924.7129
924.7178
924.7243
924.7238
924.7272
924.7326
924.7379
924.7436
924.7491
924.7545
924.7597
924.7656
924.7697
924.7754
924.7825
924.7877
924.793
924.7977
924.802
924.6714
924.6703
924.6778
924.6839
924.6899
924.6964
924.7059
924.7073
924.7125
924.7202
924.7273
924.7345
924.7396
924.7465
924.7553
924.762
924.7684
924.7747
924.7808
924.7868
924.6424
924.6422
924.6503
924.6573
924.6649
924.6723
924.68
924.6906
924.6942
924.7015
924.7099
924.7204
924.7286
924.7366
924.7444
924.7516
924.7589
924.7661
924.6172
924.6179
924.6262
924.6334
924.642
924.6512
924.6598
924.6685
924.6774
924.6871
924.6965
924.706
924.7149
924.7237
924.7318
924.74
924.5974
924.599
924.603
924.6121
924.6213
924.6306
924.6405
924.6505
924.6606
924.6706
924.6806
924.6907
924.702
924.7082
924.5844
924.5851
924.5934
924.6037
924.6145
924.625
924.6354
924.6449
924.6534
924.6605
924.4746
924.4781
924.4885
924.4993
924.5093
924.5181
924.5254
924.5307
924.4527
924.4551
924.4667
924.4782
924.4872
924.4976
924.508
924.5176
924.5264
924.5346
924.5426
924.5508
924.5564
924.5614
924.4577
924.4603
924.4676
924.477
924.487
924.4968
924.5071
924.5172
924.5267
924.5358
924.5445
924.5532
924.562
924.5704
924.5798
924.5888
924.4546
924.4577
924.4646
924.4709
924.4786
924.4894
924.4979
924.5076
924.5177
924.5278
924.5377
924.5475
924.5575
924.568
924.5795
924.5928
924.6069
924.6222
924.6387
924.6486
924.4603
924.463
924.4697
924.4764
924.4859
924.4924
924.5003
924.5113
924.5215
924.532
924.5428
924.554
924.5658
924.5786
924.5924
924.6076
924.6217
924.6385
924.6592
924.6768
924.6945
924.7085
924.4685
924.4711
924.478
924.485
924.495
924.4996
924.5085
924.518
924.5288
924.5398
924.5515
924.5642
924.5779
924.5925
924.6082
924.6248
924.6424
924.6605
924.6798
924.6961
924.7166
924.7326
924.7474
924.7575
924.4857
924.4916
924.4987
924.5091
924.5127
924.5212
924.5308
924.5415
924.5531
924.5658
924.5795
924.594
924.6103
924.6277
924.6455
924.6636
924.6819
924.7001
924.7181
924.7354
924.7487
924.7652
924.777
924.787
924.5147
924.5128
924.5219
924.5325
924.5346
924.5431
924.5524
924.5629
924.5751
924.5883
924.6016
924.6169
924.6335
924.6509
924.6689
924.6866
924.7039
924.7203
924.7361
924.7511
924.7653
924.7784
924.7877
924.7994
924.8072
924.8135
924.5603
924.554
924.5629
924.573
924.5712
924.5791
924.588
924.5979
924.6087
924.6197
924.6332
924.6481
924.6637
924.6797
924.6956
924.7112
924.7264
924.7406
924.7532
924.7652
924.7764
924.7869
924.7967
924.8058
924.8121
924.819
924.8235
924.8265
924.6244
924.6242
924.6288
924.6314
924.6319
924.6386
924.6469
924.6551
924.6625
924.6731
924.6855
924.6988
924.7122
924.7252
924.7377
924.7493
924.7601
924.7699
924.7786
924.7864
924.7938
924.8011
924.8081
924.8147
924.8211
924.8262
924.8297
924.8324
924.6902
924.6919
924.6966
924.6919
924.6971
924.7018
924.7071
924.7125
924.7177
924.7256
924.7349
924.7445
924.754
924.7629
924.771
924.7783
924.7848
924.7905
924.7956
924.8
924.8047
924.8097
924.8148
924.8201
924.8254
924.8292
924.8327
924.835
924.7543
924.7477
924.7534
924.7558
924.7518
924.7525
924.7546
924.7568
924.7587
924.7624
924.7671
924.7727
924.7783
924.7836
924.7884
924.7927
924.7963
924.7995
924.8022
924.8046
924.8069
924.8096
924.813
924.8169
924.8212
924.8258
924.8305
924.8339
924.8363
924.8379
924.7927
924.7922
924.7925
924.793
924.7897
924.789
924.789
924.7891
924.7892
924.7904
924.7924
924.7947
924.7971
924.7992
924.801
924.8025
924.8038
924.8047
924.8055
924.8063
924.8072
924.8085
924.811
924.8145
924.8187
924.8236
924.8292
924.8333
924.8364
924.8384
924.8048
924.8051
924.8055
924.806
924.8045
924.8038
924.8032
924.8024
924.8018
924.8016
924.8018
924.8022
924.8026
924.8029
924.8031
924.8032
924.8031
924.803
924.8029
924.8028
924.803
924.8037
924.8059
924.8096
924.8144
924.8203
924.8271
924.8322
924.8361
924.8385
924.8057
924.806
924.8065
924.8069
924.8058
924.8052
924.8044
924.8032
924.8021
924.8013
924.8009
924.8005
924.8002
924.7999
924.7996
924.7993
924.7989
924.7987
924.7984
924.7984
924.7987
924.7995
924.8019
924.8064
924.812
924.8188
924.8264
924.8321
924.8363
924.8389
924.8027
924.8029
924.8033
924.8037
924.8024
924.8017
924.8007
924.7992
924.7978
924.7969
924.7963
924.796
924.7957
924.7955
924.7952
924.795
924.7948
924.7947
924.7946
924.7947
924.7951
924.7963
924.7993
924.8045
924.8107
924.8181
924.8264
924.8324
924.8369
924.8397
924.7978
924.7981
924.7985
924.7991
924.7977
924.797
924.7963
924.7952
924.7941
924.7934
924.7932
924.7933
924.7934
924.7936
924.7938
924.7939
924.794
924.7941
924.7942
924.7945
924.795
924.7964
924.7997
924.8047
924.8109
924.8181
924.8263
924.8324
924.8369
924.8398
924.7888
924.7889
924.7895
924.7903
924.7885
924.788
924.7875
924.787
924.7861
924.7859
924.7863
924.7872
924.7883
924.7894
924.7906
924.7917
924.7928
924.7939
924.795
924.7962
924.7974
924.7998
924.8036
924.8084
924.814
924.8203
924.827
924.8319
924.8355
924.8378
924.7696
924.7682
924.7717
924.7731
924.7709
924.7706
924.7709
924.7709
924.7707
924.7709
924.772
924.7737
924.7758
924.7781
924.7804
924.7827
924.785
924.7873
924.7897
924.7921
924.7948
924.7986
924.8034
924.8087
924.8143
924.8201
924.8257
924.8297
924.8324
924.8341
924.7448
924.746
924.7479
924.746
924.7468
924.7476
924.7485
924.7491
924.7495
924.7512
924.7538
924.757
924.7604
924.7639
924.7674
924.7709
924.7745
924.7781
924.7817
924.7859
924.7913
924.7972
924.8036
924.8101
924.8165
924.8209
924.8254
924.8282
924.7151
924.716
924.718
924.718
924.7159
924.7173
924.7195
924.7215
924.7229
924.7258
924.7296
924.734
924.7387
924.7435
924.7483
924.7531
924.758
924.7629
924.7679
924.7739
924.7806
924.7878
924.7953
924.8027
924.8098
924.8154
924.8194
924.8223
924.6725
924.6697
924.6768
924.6828
924.6794
924.6817
924.685
924.6887
924.6927
924.6968
924.7023
924.7081
924.7143
924.7206
924.727
924.7336
924.7399
924.7463
924.7531
924.7608
924.7689
924.7776
924.7864
924.7951
924.8014
924.8079
924.8123
924.8152
924.6329
924.6297
924.6388
924.6462
924.644
924.6476
924.6524
924.6583
924.6655
924.6729
924.6798
924.6877
924.6958
924.7042
924.7127
924.7205
924.729
924.7376
924.7468
924.7563
924.7663
924.7765
924.7841
924.7928
924.7989
924.8044
924.5923
924.5964
924.6029
924.6132
924.6127
924.6175
924.6241
924.6323
924.6411
924.6505
924.6601
924.6696
924.6801
924.6902
924.7
924.7102
924.7205
924.7311
924.7421
924.7535
924.7624
924.773
924.7807
924.7874
924.5597
924.5591
924.5668
924.574
924.5851
924.5862
924.5925
924.601
924.6105
924.6207
924.6313
924.6427
924.6544
924.6659
924.6775
924.6892
924.701
924.7128
924.7253
924.7353
924.7478
924.757
924.7652
924.7717
924.5368
924.5376
924.5447
924.551
924.5619
924.565
924.5729
924.5823
924.5927
924.6041
924.6156
924.6276
924.64
924.6528
924.6659
924.6794
924.69
924.7023
924.7167
924.7275
924.7372
924.7466
924.5226
924.5247
924.5277
924.5347
924.5424
924.5534
924.559
924.5684
924.5792
924.5906
924.6024
924.6143
924.6265
924.639
924.652
924.6667
924.6793
924.6917
924.705
924.7134
924.5153
924.5171
924.5244
924.5318
924.5401
924.5488
924.5592
924.5702
924.5813
924.5926
924.604
924.6157
924.628
924.6391
924.6505
924.6618
924.506
924.5077
924.5164
924.5259
924.5327
924.5422
924.5524
924.5627
924.5729
924.5832
924.5941
924.6067
924.615
924.6229
924.5179
924.5194
924.5281
924.5379
924.5476
924.5565
924.5642
924.5703
924.4591
924.4627
924.4742
924.4855
924.4952
924.5024
924.4187
924.4206
924.4333
924.4468
924.4602
924.471
924.483
924.4944
924.5049
924.5144
924.5239
924.53
924.5355
924.5397
924.4092
924.4114
924.4204
924.4282
924.4402
924.455
924.4675
924.4795
924.4918
924.5033
924.5137
924.5229
924.5311
924.538
924.5442
924.5504
924.5559
924.5598
924.4121
924.4142
924.4198
924.429
924.4375
924.4492
924.4608
924.475
924.488
924.5006
924.5123
924.5229
924.5323
924.5406
924.5472
924.5538
924.5606
924.5676
924.5743
924.5809
924.4151
924.417
924.4229
924.4317
924.4368
924.4465
924.4582
924.4707
924.4843
924.4973
924.5097
924.5212
924.5318
924.5416
924.5507
924.5593
924.5681
924.577
924.5855
924.5964
924.6082
924.62
924.4199
924.4217
924.4292
924.4337
924.4404
924.4486
924.4588
924.4703
924.4828
924.4956
924.5081
924.5201
924.5314
924.5422
924.5528
924.5634
924.5746
924.5865
924.5995
924.6136
924.6264
924.6426
924.6627
924.6785
924.4276
924.4292
924.4374
924.4405
924.4466
924.4542
924.4632
924.4733
924.4848
924.4971
924.5095
924.5216
924.5334
924.5451
924.5568
924.5689
924.5817
924.5956
924.6108
924.6279
924.6462
924.6654
924.6854
924.7014
924.721
924.7368
924.4392
924.441
924.4493
924.4515
924.4568
924.4636
924.4717
924.4804
924.4907
924.5021
924.5142
924.5264
924.5387
924.5512
924.5642
924.5778
924.592
924.6072
924.6235
924.6412
924.6605
924.6808
924.7018
924.7226
924.7417
924.7551
924.7698
924.7813
924.4569
924.4557
924.4616
924.4693
924.4721
924.478
924.4852
924.4926
924.5018
924.5123
924.5239
924.5361
924.5488
924.5618
924.5757
924.5903
924.6059
924.6222
924.6394
924.6568
924.6749
924.6939
924.7136
924.7334
924.7527
924.7705
924.7855
924.796
924.8031
924.8088
924.4889
924.4889
924.4952
924.4946
924.5005
924.5066
924.5127
924.5209
924.5305
924.5413
924.5533
924.5661
924.5796
924.5939
924.609
924.6245
924.6407
924.6573
924.6747
924.6918
924.7082
924.7247
924.7416
924.7586
924.7751
924.7906
924.8038
924.8109
924.8183
924.8223
924.5438
924.5298
924.5385
924.534
924.5379
924.5421
924.5457
924.5524
924.5608
924.5704
924.5812
924.5933
924.6066
924.6208
924.6354
924.6503
924.6651
924.6799
924.6948
924.7097
924.7243
924.738
924.7502
924.7632
924.7766
924.79
924.8028
924.814
924.8224
924.8263
924.8295
924.8313
924.6126
924.6021
924.603
924.597
924.5972
924.5984
924.6008
924.6065
924.614
924.6225
924.6321
924.6435
924.6558
924.6688
924.6817
924.6945
924.7068
924.7186
924.73
924.7409
924.7515
924.7615
924.7699
924.7786
924.7885
924.799
924.8098
924.8197
924.8277
924.8326
924.8345
924.8356
924.6886
924.6849
924.6732
924.6672
924.6652
924.6633
924.6652
924.669
924.6742
924.6804
924.6878
924.6965
924.706
924.7159
924.7255
924.7347
924.7432
924.7511
924.7584
924.7651
924.7715
924.7778
924.7832
924.7886
924.7957
924.804
924.8132
924.8222
924.8299
924.835
924.8369
924.8378
924.7422
924.7418
924.7359
924.7334
924.7301
924.7264
924.7258
924.7271
924.7295
924.7328
924.7371
924.7424
924.7483
924.7542
924.7599
924.765
924.7696
924.7737
924.7772
924.7804
924.7834
924.7867
924.7896
924.7931
924.798
924.8047
924.813
924.8221
924.8301
924.8359
924.8382
924.8391
924.7866
924.7835
924.7862
924.7822
924.779
924.7758
924.772
924.7702
924.7695
924.7696
924.7703
924.7716
924.7736
924.776
924.7783
924.7804
924.7821
924.7835
924.7844
924.785
924.7854
924.7859
924.7867
924.7877
924.79
924.7932
924.7993
924.8076
924.8176
924.8271
924.8345
924.8386
924.8396
924.8399
924.8007
924.8008
924.8013
924.7996
924.7984
924.7968
924.7943
924.7924
924.7909
924.7897
924.7887
924.788
924.7877
924.7875
924.7872
924.7868
924.7862
924.7853
924.7841
924.7829
924.7816
924.7805
924.7799
924.78
924.7815
924.7849
924.7909
924.8003
924.8121
924.8236
924.8331
924.8387
924.8398
924.8403
924.8022
924.8025
924.803
924.802
924.8013
924.8004
924.7986
924.7968
924.795
924.7931
924.7911
924.7893
924.7877
924.7862
924.7847
924.7832
924.7815
924.7798
924.7779
924.7762
924.7745
924.7732
924.7726
924.7729
924.7748
924.7796
924.7861
924.7968
924.8098
924.8224
924.8328
924.8391
924.8404
924.8409
924.799
924.7992
924.7996
924.7983
924.7975
924.7962
924.7941
924.792
924.7899
924.7875
924.7851
924.7829
924.7809
924.7792
924.7775
924.7758
924.7742
924.7725
924.7708
924.7692
924.7678
924.7669
924.7668
924.7673
924.7698
924.7756
924.783
924.7948
924.8089
924.8223
924.8334
924.84
924.8414
924.842
924.7934
924.7936
924.7941
924.7925
924.7914
924.7901
924.7878
924.7857
924.7837
924.7817
924.7796
924.7778
924.7763
924.7752
924.7742
924.7732
924.7722
924.7711
924.77
924.7689
924.7679
924.7673
924.7674
924.7677
924.7705
924.7755
924.7833
924.795
924.8091
924.8226
924.8337
924.8401
924.8413
924.8419
924.7818
924.7808
924.7837
924.7816
924.7801
924.7783
924.7755
924.7734
924.7717
924.7702
924.7687
924.7675
924.767
924.767
924.7672
924.7676
924.7681
924.7686
924.7691
924.7696
924.7702
924.7712
924.7728
924.7746
924.7786
924.7835
924.7917
924.8021
924.8141
924.8251
924.8336
924.8381
924.8391
924.8394
924.7619
924.7624
924.7607
924.7594
924.7572
924.754
924.7519
924.7506
924.7495
924.7487
924.7482
924.7485
924.7494
924.7509
924.7527
924.7546
924.7567
924.7589
924.7612
924.7639
924.7669
924.7704
924.7746
924.7799
924.7868
924.7957
924.806
924.8167
924.8258
924.8321
924.8343
924.8359
924.7382
924.7382
924.7344
924.7303
924.7276
924.7246
924.7226
924.7217
924.7213
924.7214
924.7218
924.7229
924.7249
924.7274
924.7304
924.7336
924.737
924.7407
924.7446
924.749
924.7539
924.7587
924.7651
924.7719
924.7812
924.7917
924.803
924.8136
924.8224
924.8279
924.8299
924.8309
924.7019
924.6993
924.7002
924.6945
924.6918
924.6893
924.6868
924.6865
924.6872
924.6885
924.6903
924.693
924.6964
924.7003
924.7045
924.7089
924.7137
924.7189
924.7246
924.7307
924.7369
924.7437
924.7513
924.7605
924.7719
924.7843
924.7971
924.8084
924.8173
924.8226
924.8247
924.826
924.6538
924.6465
924.6537
924.6498
924.6495
924.6487
924.6471
924.6476
924.6495
924.6523
924.6559
924.6605
924.6657
924.6713
924.677
924.683
924.6894
924.6964
924.7041
924.712
924.7192
924.7277
924.7372
924.7491
924.7625
924.7768
924.7906
924.8026
924.8112
924.8151
924.8182
924.8201
924.6077
924.6077
924.6095
924.6052
924.6066
924.6079
924.6088
924.6115
924.6156
924.621
924.6274
924.6343
924.6417
924.6492
924.6571
924.6652
924.6742
924.6838
924.6928
924.7016
924.7122
924.7244
924.7383
924.7536
924.7689
924.7835
924.796
924.8027
924.8086
924.8121
924.5625
924.556
924.5617
924.5682
924.5669
924.5698
924.5737
924.5769
924.5815
924.5879
924.5957
924.6042
924.6131
924.6223
924.632
924.642
924.6527
924.6632
924.6736
924.6849
924.6974
924.7115
924.7272
924.7435
924.7595
924.7741
924.7862
924.7938
924.7989
924.8033
924.5269
924.5247
924.5341
924.5332
924.5367
924.5413
924.5469
924.5518
924.5586
924.567
924.5765
924.5866
924.5972
924.6083
924.6197
924.6315
924.6431
924.6552
924.6681
924.6822
924.6979
924.7144
924.7312
924.7473
924.7616
924.7705
924.7795
924.7873
924.5003
924.5002
924.5094
924.5106
924.5148
924.5206
924.5269
924.5337
924.5425
924.5523
924.563
924.5744
924.5865
924.5984
924.6106
924.6233
924.6366
924.6509
924.6659
924.6823
924.6989
924.7152
924.7307
924.7409
924.7528
924.7634
924.4837
924.4845
924.4927
924.4949
924.5011
924.5066
924.5138
924.5226
924.5324
924.5435
924.555
924.5669
924.579
924.5915
924.6044
924.618
924.6326
924.648
924.6642
924.6804
924.6921
924.705
924.7185
924.7311
924.4733
924.4747
924.4806
924.4889
924.4918
924.498
924.5063
924.5161
924.5273
924.5388
924.5507
924.5627
924.5748
924.5871
924.5998
924.6129
924.6269
924.6416
924.6533
924.6679
924.68
924.6931
924.4671
924.4687
924.4739
924.4816
924.4859
924.4944
924.5031
924.5146
924.5256
924.5371
924.5486
924.56
924.5715
924.5832
924.5928
924.6036
924.6151
924.628
924.638
924.6501
924.4621
924.4639
924.4697
924.475
924.4841
924.4961
924.5049
924.5146
924.5253
924.5359
924.5462
924.5562
924.5663
924.5763
924.5855
924.5953
924.6058
924.6138
924.4643
924.4655
924.475
924.4857
924.4966
924.5044
924.5144
924.5246
924.5343
924.544
924.5546
924.5619
924.569
924.5752
924.4933
924.4948
924.504
924.5133
924.5214
924.5275
924.4144
924.4165
924.4284
924.4421
924.4564
924.4703
924.4831
924.4944
924.5033
924.5099
924.3833
924.3846
924.3971
924.4109
924.4212
924.4364
924.4503
924.4646
924.4785
924.4911
924.5024
924.5121
924.5202
924.5275
924.533
924.5374
924.382
924.3839
924.3905
924.4012
924.4139
924.4269
924.4404
924.4568
924.4726
924.4875
924.5007
924.5121
924.5204
924.5278
924.5343
924.5401
924.5456
924.5494
924.3714
924.3727
924.3823
924.3848
924.3911
924.4023
924.4157
924.4307
924.447
924.4645
924.4815
924.4972
924.5109
924.5222
924.5311
924.5385
924.5446
924.5499
924.5544
924.5595
924.5645
924.5684
924.3737
924.3753
924.3816
924.384
924.3864
924.3942
924.4063
924.4207
924.4368
924.4543
924.4723
924.4895
924.5052
924.5192
924.5313
924.5413
924.5496
924.5565
924.5624
924.5677
924.573
924.5784
924.5866
924.5954
924.3771
924.3785
924.3851
924.3868
924.3892
924.3939
924.402
924.4147
924.4298
924.4464
924.4639
924.4813
924.4977
924.5126
924.526
924.538
924.5489
924.5589
924.5684
924.5771
924.5854
924.5938
924.6034
924.6134
924.6287
924.6449
924.3832
924.3846
924.392
924.3936
924.3956
924.3992
924.4059
924.4156
924.4285
924.4437
924.4603
924.4768
924.4929
924.5078
924.5214
924.5338
924.5454
924.5566
924.5682
924.5802
924.5932
924.6068
924.6209
924.6363
924.6531
924.6679
924.6882
924.7074
924.3934
924.3947
924.4029
924.4045
924.4068
924.4094
924.4144
924.4223
924.4327
924.4457
924.4604
924.4761
924.4915
924.5065
924.5202
924.5328
924.5447
924.5563
924.5683
924.5815
924.5958
924.6124
924.6306
924.6504
924.6709
924.6913
924.7111
924.7256
924.7432
924.7574
924.4126
924.4184
924.4195
924.4223
924.4244
924.4282
924.4342
924.4426
924.4532
924.4659
924.4797
924.4941
924.5084
924.5222
924.5353
924.5479
924.5604
924.5732
924.5864
924.6007
924.6168
924.6355
924.6561
924.6787
924.7025
924.7255
924.7461
924.7635
924.7741
924.7857
924.4397
924.4371
924.4386
924.4412
924.4445
924.447
924.4516
924.4582
924.4668
924.4772
924.4892
924.5022
924.5158
924.5293
924.5428
924.5561
924.5692
924.5823
924.5959
924.6104
924.6262
924.6426
924.6612
924.6823
924.705
924.7288
924.7526
924.7732
924.789
924.8007
924.8076
924.8141
924.4914
924.4728
924.4712
924.4693
924.4709
924.4724
924.476
924.4809
924.4876
924.4961
924.5063
924.5179
924.5304
924.5436
924.557
924.5701
924.5836
924.5971
924.6111
924.6251
924.6397
924.6548
924.671
924.6876
924.7061
924.727
924.7489
924.7709
924.7911
924.8058
924.8151
924.821
924.8242
924.8274
924.5322
924.5226
924.5143
924.5132
924.5109
924.5122
924.515
924.5193
924.5259
924.5341
924.5439
924.555
924.5672
924.5796
924.5926
924.6057
924.6189
924.6319
924.6449
924.658
924.6714
924.6846
924.6984
924.7119
924.7264
924.7432
924.7623
924.782
924.8009
924.8162
924.8248
924.8291
924.8311
924.8333
924.6028
924.5984
924.5809
924.5745
924.5686
924.567
924.5678
924.5708
924.5762
924.5834
924.5919
924.6018
924.6127
924.6243
924.6362
924.6479
924.6594
924.6704
924.681
924.6913
924.7014
924.7114
924.7219
924.7322
924.7424
924.7549
924.7701
924.7879
924.8052
924.8209
924.8306
924.8341
924.8358
924.8369
924.7075
924.6839
924.6765
924.6595
924.6458
924.6376
924.6335
924.6318
924.6329
924.6362
924.6412
924.6474
924.6554
924.664
924.6731
924.6824
924.6913
924.6997
924.7074
924.7145
924.7211
924.7274
924.7336
924.7402
924.7474
924.7539
924.7627
924.7746
924.7899
924.8063
924.8218
924.8326
924.8366
924.838
924.8387
924.8392
924.752
924.7456
924.7349
924.725
924.7143
924.7067
924.7011
924.6973
924.696
924.6968
924.699
924.7025
924.7071
924.7124
924.718
924.7236
924.7287
924.7333
924.7373
924.7406
924.7434
924.746
924.7485
924.7515
924.7555
924.759
924.7648
924.7741
924.7874
924.804
924.8196
924.8322
924.8379
924.8394
924.84
924.8405
924.7826
924.7812
924.778
924.773
924.7657
924.759
924.7538
924.7495
924.7467
924.7454
924.7449
924.7459
924.7472
924.749
924.7509
924.7527
924.7541
924.755
924.7553
924.755
924.7543
924.7533
924.7524
924.752
924.7527
924.7535
924.7567
924.7641
924.7766
924.7942
924.8121
924.8286
924.8379
924.8398
924.8402
924.8406
924.7971
924.7973
924.7956
924.7933
924.7899
924.7864
924.7829
924.7794
924.7764
924.7739
924.7721
924.7706
924.7693
924.7682
924.7671
924.7657
924.764
924.7618
924.7591
924.7559
924.7524
924.7487
924.7452
924.7424
924.741
924.7403
924.7422
924.7492
924.7625
924.7821
924.8032
924.8242
924.8376
924.8399
924.8404
924.8407
924.7991
924.7995
924.7985
924.7972
924.7951
924.7931
924.7907
924.7879
924.785
924.7819
924.7792
924.7762
924.7732
924.7703
924.7672
924.7639
924.7603
924.7564
924.7521
924.7476
924.7429
924.7384
924.7343
924.7312
924.73
924.7299
924.7326
924.7409
924.7557
924.777
924.7997
924.8225
924.8373
924.8405
924.841
924.8413
924.7958
924.7961
924.7947
924.7931
924.7907
924.7883
924.7858
924.7826
924.7792
924.7756
924.7723
924.7686
924.7648
924.7612
924.7575
924.7537
924.7497
924.7455
924.7412
924.7367
924.7322
924.7279
924.7244
924.7221
924.7218
924.7221
924.726
924.7356
924.7518
924.7746
924.7987
924.8227
924.8383
924.8416
924.8422
924.8426
924.7895
924.7899
924.7883
924.7861
924.7831
924.7802
924.7771
924.7736
924.77
924.7664
924.7631
924.7599
924.7567
924.7537
924.7509
924.7481
924.7452
924.7421
924.7387
924.7352
924.7316
924.7281
924.7251
924.7231
924.7229
924.7225
924.7263
924.7358
924.7521
924.7752
924.7997
924.824
924.8392
924.8416
924.8422
924.8426
924.7772
924.7773
924.7762
924.7735
924.7692
924.7652
924.7613
924.7572
924.7534
924.75
924.7468
924.7445
924.7422
924.7403
924.7389
924.7378
924.7368
924.7357
924.7347
924.7336
924.7326
924.7318
924.7316
924.7323
924.734
924.7361
924.7417
924.752
924.7677
924.7884
924.8088
924.8274
924.8378
924.8394
924.8397
924.8407
924.7601
924.7588
924.7552
924.7507
924.7455
924.7403
924.7355
924.7307
924.7267
924.7235
924.7208
924.7187
924.7174
924.7165
924.7161
924.7163
924.7167
924.7174
924.7182
924.7193
924.7207
924.7227
924.7255
924.7295
924.7341
924.7398
924.7487
924.7614
924.778
924.7975
924.8151
924.8288
924.8346
924.8357
924.8362
924.8368
924.7359
924.7283
924.7289
924.7211
924.7137
924.7066
924.7009
924.6961
924.6922
924.6894
924.6874
924.6859
924.6859
924.6861
924.6869
924.6881
924.6897
924.6915
924.6936
924.6961
924.6992
924.7031
924.708
924.7145
924.7208
924.7297
924.742
924.7578
924.7769
924.7965
924.814
924.8258
924.8298
924.8311
924.8318
924.8328
924.6907
924.6901
924.6809
924.6741
924.6661
924.6603
924.6558
924.6524
924.6506
924.6499
924.65
924.6512
924.6531
924.6553
924.658
924.6609
924.6639
924.6673
924.6711
924.6756
924.6812
924.6879
924.6953
924.7035
924.7151
924.7306
924.7498
924.7718
924.7923
924.8101
924.8206
924.8242
924.8261
924.8276
924.6404
924.6371
924.6309
924.6264
924.6203
924.616
924.6126
924.6104
924.6099
924.6107
924.6128
924.6158
924.6199
924.6237
924.6283
924.6328
924.6374
924.6423
924.6477
924.6539
924.6613
924.6694
924.6774
924.6881
924.7025
924.7211
924.7433
924.7665
924.7882
924.8048
924.8135
924.8178
924.82
924.8225
924.6021
924.5888
924.5862
924.5796
924.5761
924.5726
924.5706
924.5698
924.5705
924.5728
924.5764
924.5814
924.5873
924.5937
924.6005
924.6065
924.6132
924.6198
924.6272
924.6345
924.6432
924.6522
924.6625
924.6759
924.6934
924.7147
924.7379
924.7613
924.7826
924.7972
924.8056
924.8112
924.8146
924.8176
924.542
924.5363
924.5346
924.5343
924.5346
924.5328
924.5333
924.5353
924.5386
924.5435
924.5499
924.5575
924.5658
924.5743
924.5828
924.5916
924.5998
924.6084
924.6172
924.627
924.6373
924.65
924.6662
924.6864
924.7088
924.7324
924.7556
924.7748
924.7878
924.7971
924.8028
924.8082
924.4995
924.5026
924.5008
924.5019
924.5013
924.5023
924.5049
924.5091
924.5148
924.5223
924.5312
924.541
924.5512
924.5614
924.5715
924.5815
924.5916
924.6019
924.6124
924.6245
924.6393
924.6576
924.6783
924.7009
924.7242
924.7453
924.7622
924.7753
924.7835
924.7909
924.4692
924.4674
924.4757
924.4757
924.4771
924.4778
924.4802
924.4846
924.4905
924.4986
924.5085
924.5198
924.5316
924.5434
924.555
924.5665
924.5773
924.5883
924.6002
924.6141
924.6296
924.6483
924.6687
924.6903
924.7112
924.7296
924.7457
924.7566
924.7674
924.7771
924.4501
924.4504
924.4581
924.4587
924.4598
924.4615
924.4655
924.471
924.479
924.4894
924.5017
924.5149
924.5281
924.5409
924.5532
924.5651
924.5772
924.5898
924.6038
924.6193
924.6369
924.6558
924.6743
924.6925
924.7094
924.7215
924.7344
924.7486
924.439
924.4399
924.4467
924.4475
924.4486
924.4515
924.4557
924.4629
924.4735
924.4861
924.5
924.5142
924.5282
924.5417
924.5546
924.5672
924.58
924.5934
924.6076
924.6225
924.6379
924.6536
924.6696
924.6808
924.6946
924.711
924.4324
924.4336
924.4395
924.4401
924.4413
924.4447
924.4518
924.4622
924.4746
924.4887
924.5034
924.5181
924.5322