/*--------------------------------*- C++ -*----------------------------------*\
  =========                 |
  \\      /  F ield         | OpenFOAM: The Open Source CFD Toolbox
   \\    /   O peration     | Website:  https://openfoam.org
    \\  /    A nd           | Version:  6
     \\/     M anipulation  |
\*---------------------------------------------------------------------------*/
FoamFile
{
    version     2.0;
    format      ascii;
    class       volScalarField;
    location    "49.8";
    object      alphat;
}
// * * * * * * * * * * * * * * * * * * * * * * * * * * * * * * * * * * * * * //

dimensions      [1 -1 -1 0 0 0 0];

internalField   nonuniform List<scalar> 
140018
(
0.6194706
0.9756109
0.950622
0.5813118
0.6584914
1.083017
1.458945
1.79124
1.751773
1.36867
0.9836475
0.5818819
0.5570265
0.9346757
1.392744
1.824879
1.979402
2.050045
2.021769
1.898236
1.712158
1.28898
0.9129376
0.5350323
0.5218301
1.174297
1.609557
1.767643
1.885755
2.007114
2.06996
2.068072
2.005798
1.897442
1.740885
1.558568
1.144117
0.5228346
0.8893937
1.616158
1.833764
1.906177
1.908358
1.920368
1.979477
2.004706
1.9811
1.931185
1.858043
1.758509
1.570634
0.8730312
0.5182468
1.279277
1.826507
2.001072
2.05749
2.059706
2.035422
2.003655
1.995119
1.992812
1.985486
1.972815
1.949072
1.883415
1.352953
0.5738814
0.9119801
1.70015
1.997638
2.132565
2.185247
2.198454
2.194771
2.185918
2.171449
2.157162
2.150574
2.131036
2.068074
1.970615
1.696507
0.9295515
0.4552421
1.243887
1.846025
2.081285
2.186006
2.224217
2.228239
2.216864
2.196801
2.167745
2.132022
2.095173
2.060188
2.024809
1.969418
1.815249
1.284899
0.5389093
0.7604224
1.557577
1.934241
2.132142
2.225829
2.256713
2.258452
2.243025
2.212556
2.177808
2.146439
2.11985
2.107215
2.103352
2.073652
1.963719
1.681134
0.9201052
0.7483187
1.557084
1.952283
2.157359
2.258353
2.294015
2.299763
2.287716
2.259883
2.226588
2.197483
2.175704
2.169111
2.168591
2.137456
2.022627
1.732432
0.9406981
0.4731022
1.245502
1.892826
2.140181
2.264297
2.313537
2.323758
2.314684
2.294167
2.262709
2.230086
2.209043
2.202064
2.192292
2.142683
1.975379
1.410657
0.5979364
0.9595327
1.78952
2.079044
2.241883
2.311694
2.331368
2.326552
2.310625
2.281771
2.249741
2.225899
2.208757
2.179886
2.091257
1.84666
1.053502
0.6228027
1.472031
1.969377
2.181634
2.282883
2.317897
2.322775
2.313814
2.289591
2.258781
2.226159
2.189224
2.126653
1.968338
1.429679
0.6411016
1.052507
1.822687
2.063616
2.209214
2.268622
2.290375
2.29368
2.276872
2.245776
2.197333
2.129096
2.01571
1.782035
1.020587
0.6297297
1.377086
1.839392
2.033638
2.148123
2.20387
2.230508
2.222263
2.180684
2.100135
1.967815
1.779708
1.309867
0.6102313
0.6228294
1.043765
1.487433
1.877751
2.002103
2.076157
2.07652
1.994686
1.844487
1.426068
1.017717
0.608305
0.6199732
1.045251
1.415181
1.753453
1.758435
1.411048
1.04256
0.6277415
0.5623616
0.9359333
0.9454382
0.5828299
0.5503424
0.9441491
1.055585
1.130354
1.199389
1.272916
1.343751
1.378744
1.330271
0.8191158
0.5847848
1.027034
1.481281
1.835578
1.944845
2.020095
2.077001
2.134486
2.209366
2.28153
2.289502
1.894654
1.393769
0.8075019
0.6704685
1.532876
2.063533
2.328402
2.536859
2.673197
2.79359
2.845422
2.786941
2.657509
2.565837
2.563167
2.502068
2.337488
1.759465
0.8005275
0.6788933
1.594584
2.252727
2.633035
2.946203
3.273254
3.667264
3.545015
3.407537
3.252987
2.79151
3.190221
2.869708
2.708871
2.611655
2.364489
1.718098
0.7598444
0.638909
1.523941
2.231715
2.718853
3.22096
3.778691
3.948276
3.93528
3.885539
3.737405
3.592721
3.093787
3.129712
3.003792
3.21019
2.886295
2.615756
2.292952
1.605296
0.6872463
0.5831877
1.398871
2.08534
2.633974
3.395827
4.036888
4.045689
4.295687
4.294569
4.066366
3.889536
3.7366
3.485656
3.395494
3.218187
3.212807
2.971735
3.021542
2.549886
2.152137
1.452122
0.6177137
1.035893
1.882874
2.408286
3.104645
3.792158
4.473353
5.109994
5.373025
5.33209
4.87638
4.357204
4.070688
3.85724
3.706177
3.495704
3.412871
3.165646
3.241294
2.929038
2.490294
2.035659
1.104597
0.5476945
1.402591
2.097716
2.683498
3.683215
4.026518
4.981818
5.276549
5.351596
5.302218
5.10231
4.587214
4.366699
4.183844
3.99136
3.763651
3.731239
3.669088
3.54666
3.833249
3.128461
2.655752
1.791599
0.7318761
0.946431
1.789342
2.297209
3.054197
2.656793
3.605294
4.516902
4.717054
4.857231
4.989081
5.093943
5.08186
4.837382
4.660621
4.564687
4.607633
5.023308
5.608579
5.352628
4.432008
4.303926
3.234213
2.339387
1.140171
1.041966
1.922754
2.453778
3.432268
2.710627
3.723801
4.065066
4.285822
4.513898
4.792282
5.121861
5.465826
5.756973
5.905694
6.018736
6.174076
6.209662
5.794488
4.915465
3.271567
3.882588
2.734523
1.990498
0.9755934
1.098186
2.01271
2.610471
2.000763
2.625701
3.489143
3.736236
3.865847
3.969514
4.08043
4.204252
4.334212
4.450896
4.530741
4.543941
4.482282
4.374814
4.277005
4.048672
3.16507
2.270823
2.62571
1.921426
0.9703379
1.136578
2.079892
2.679922
2.136674
3.042929
3.465485
3.625372
3.680624
3.692609
3.690055
3.674134
3.656001
3.63772
3.636978
3.669965
3.747241
3.844972
3.879926
3.788698
3.581821
3.162682
2.770579
2.046323
1.043388
1.158262
2.158904
2.689376
2.428211
3.221545
3.61803
3.727909
3.727468
3.680817
3.622646
3.552191
3.490677
3.436618
3.413882
3.434339
3.497516
3.569826
3.607115
3.561564
3.364562
3.102739
2.879958
2.149062
1.104589
1.157408
2.189755
2.671208
3.527152
3.711833
3.950939
4.00067
3.928129
3.810056
3.695952
3.579353
3.494908
3.417812
3.367708
3.359647
3.396822
3.460206
3.514879
3.496068
3.379227
3.173285
2.864089
2.201639
1.14752
1.125142
2.13674
2.593526
3.201662
3.726773
4.247943
4.386258
4.257357
4.047858
3.858429
3.677574
3.576167
3.487801
3.421262
3.3849
3.390302
3.435653
3.487735
3.517342
3.489514
3.496128
2.74516
2.168953
1.14778
1.042926
2.010579
2.521949
2.969372
3.465236
4.191264
4.537905
4.590249
4.364228
4.086524
3.802754
3.681816
3.588731
3.514268
3.451983
3.416375
3.417469
3.429221
3.401276
3.299189
3.110037
2.570581
2.027599
1.066277
0.6463305
1.594846
2.356048
2.810396
3.469005
3.722582
4.141576
4.51368
4.603671
4.347385
3.923983
3.767101
3.670945
3.604724
3.531753
3.451952
3.403602
3.377191
3.385537
3.46298
2.778259
2.311591
1.567769
0.6425406
1.156695
2.125145
2.62641
3.110614
3.25895
3.586554
4.048127
4.429977
4.483503
4.015007
3.808449
3.701421
3.653283
3.589518
3.464677
3.37228
3.211462
3.11997
2.993818
2.499721
2.022466
1.106552
0.6808686
1.556192
2.271115
2.701892
3.233636
3.284754
3.572491
3.890452
4.165481
3.963632
3.765713
3.635147
3.585217
3.596419
3.432541
3.380347
3.138921
3.157046
2.601797
2.164604
1.4823
0.6460201
0.7229392
1.617857
2.295016
2.651723
2.982522
3.3453
3.369811
3.623892
3.588532
3.545358
3.461798
3.393349
3.503423
3.28565
3.439551
2.984615
2.595623
2.213775
1.548227
0.6837637
0.7234335
1.583441
2.178915
2.452023
2.623997
2.833794
3.142006
3.062862
3.152249
3.166964
3.103295
3.386302
3.018144
2.726183
2.471515
2.14402
1.535958
0.687111
0.6810649
1.441303
1.917982
2.116564
2.272507
2.391734
2.556973
2.723301
2.80362
2.750276
2.596855
2.437388
2.22894
1.974286
1.448914
0.6669955
0.6080882
1.013896
1.388198
1.739651
1.838782
1.915655
1.984435
2.037482
2.050007
1.993834
1.873619
1.483577
1.068857
0.6172856
0.5473823
0.8844541
0.9469256
0.977706
1.001863
1.02477
1.039494
1.025288
0.9570441
0.5862307
0.778235
1.331901
1.488922
1.55983
1.584127
1.565453
1.458325
0.8876672
0.6867875
1.268467
1.523832
2.039078
2.630232
2.875186
3.020252
3.101866
3.120319
3.025212
2.463141
1.892933
1.572674
0.8564493
0.7296806
1.624705
2.289051
2.676666
3.030974
3.350095
3.637407
3.872714
4.056814
4.174003
4.180366
4.050894
3.70646
3.169789
2.223979
1.03637
0.5858657
1.098053
1.694703
2.397302
2.966385
2.984655
3.361374
3.655358
3.887126
4.070553
4.223141
4.33662
4.347178
4.253454
4.053376
4.525322
3.60197
2.54309
1.615489
0.8549381
0.5773299
1.354863
2.028025
2.610126
3.080979
3.681445
3.971571
4.260737
4.449356
4.578727
4.652835
4.665657
4.623156
4.502829
4.339618
4.179394
4.574501
3.919401
3.983153
3.071153
2.010472
0.8404661
0.5498529
1.342802
2.057502
2.737498
3.668687
4.427286
4.998173
5.325199
5.502038
5.576846
5.557093
5.446954
5.269008
5.031362
4.738851
4.440462
4.199334
4.439098
4.014024
4.011159
4.002668
2.990423
1.868809
0.7325623
1.008732
2.012933
2.789887
3.901845
4.884942
5.588916
6.0914
6.353143
6.396728
6.315985
6.166586
5.982873
5.713052
5.326042
4.975681
4.595581
4.232974
4.272677
3.985309
3.91979
3.88934
3.704371
2.618607
1.251963
0.6543395
1.675669
2.729823
3.707771
4.636748
5.385547
6.013271
6.472498
6.721232
6.743521
6.503263
6.203123
5.927026
5.628674
5.265239
4.990967
4.651193
4.290953
4.161217
3.902576
3.826902
3.842749
3.756158
3.251293
1.922929
0.7482163
0.531852
1.449796
2.425983
3.150404
4.056508
4.929626
5.751041
6.457285
7.00293
7.292133
7.378481
7.155813
6.590688
6.016919
5.557344
5.180874
4.931332
4.683235
4.402667
4.163246
3.913229
3.860891
4.000523
4.014852
3.313944
3.050643
1.866901
0.7071841
0.9514459
2.0015
3.006244
3.676856
4.449766
5.266438
6.125522
6.856936
7.39447
7.667937
7.751905
7.649652
7.203823
6.382584
5.80562
5.393563
5.120078
4.894875
4.661535
4.412067
4.258532
4.393226
4.753552
4.864222
3.606864
4.307639
3.028295
1.474222
1.14986
2.354877
2.910978
3.61143
4.511195
5.52912
6.3444
6.906205
7.239146
7.248319
7.240575
7.211409
7.103136
6.607604
6.148083
5.80445
5.547439
5.335472
5.198272
5.147369
5.316474
5.966957
6.472844
6.35841
4.66481
2.971519
3.538185
1.745472
0.530774
1.534493
2.638349
3.095863
3.920664
4.834253
5.905446
6.114467
6.224228
6.274719
6.27639
6.405852
6.623113
6.871211
7.060233
6.888647
6.62614
6.455919
6.460363
6.869959
7.571719
7.978672
7.624446
7.015833
5.994699
4.76173
2.732302
3.388929
2.001004
0.6740527
0.8900243
1.916919
2.798891
3.26301
4.094943
5.116694
5.988164
5.410883
5.41969
5.448182
5.565332
5.78677
6.110584
6.531605
7.014628
7.484286
7.834627
8.020359
8.208165
8.253618
7.82132
6.992991
5.704038
5.274855
4.807824
4.12625
2.647143
2.874435
1.920896
0.872076
0.9779267
2.029689
2.896581
3.378573
4.249364
5.371263
5.263981
4.707617
4.89085
4.982656
5.062979
5.138346
5.213955
5.309877
5.433707
5.570237
5.690808
5.764228
5.772891
5.721926
5.676955
5.541284
4.934372
4.295363
4.306822
3.633546
3.027772
2.531875
1.896203
0.9737427
1.01537
2.085167
2.956428
3.424966
4.328516
5.37197
5.064837
4.653343
4.781966
4.890863
4.955203
4.966319
4.913895
4.818159
4.718914
4.648175
4.633679
4.694258
4.825676
4.979913
5.053572
4.965471
4.722725
4.319958
3.829315
3.321898
2.966673
2.807373
2.056321
1.04111
1.032065
2.115875
2.993819
3.416648
4.210005
5.121063
5.059774
4.8125
4.978644
5.078185
5.127408
5.111921
5.010215
4.834643
4.644677
4.489699
4.410725
4.424606
4.512384
4.618998
4.674051
4.618214
4.417005
4.10368
3.780051
3.45731
3.156477
2.953377
2.136199
1.062529
1.028139
2.120198
3.005014
3.369072
3.982616
4.752884
5.119046
5.128319
5.328531
5.466868
5.485325
5.432921
5.283548
5.042658
4.784102
4.561334
4.416669
4.37027
4.409868
4.491799
4.557952
4.551041
4.475486
4.296736
4.040957
3.732526
3.36926
3.064057
2.179654
1.062919
0.9695031
2.056578
2.961711
3.266231
3.736564
4.314638
4.75779
5.067498
5.435111
5.791274
5.941988
5.885143
5.685269
5.37146
5.048941
4.768849
4.563542
4.45325
4.436337
4.483622
4.544879
4.588313
4.549937
4.399108
4.164545
3.859683
3.458879
3.105756
2.15849
1.01353
0.6080568
1.691257
2.846767
3.103396
3.472073
3.866622
4.269298
4.668038
5.133595
5.63891
6.099998
6.312766
6.151377
5.757482
5.360281
5.028685
4.771265
4.597045
4.509056
4.490524
4.499226
4.515779
4.441362
4.278992
4.043932
3.735129
3.335241
2.994041
1.786658
0.6328193
1.331566
2.650932
2.950683
3.233801
3.548212
3.812192
4.080022
4.479071
5.045719
5.679132
6.261282
6.48529
6.129628
5.649531
5.267734
4.973432
4.74951
4.590569
4.486921
4.435021
4.376259
4.254017
4.06984
3.826911
3.488162
3.119033
2.684267
1.360966
1.168336
2.372304
3.427898
3.565357
3.765844
3.916054
4.039648
4.187735
4.496153
5.017112
5.692216
6.267651
6.314598
5.85286
5.42069
5.100705
4.848735
4.639499
4.481067
4.371103
4.245389
4.089093
3.900356
3.689828
3.45878
3.313385
2.292246
1.133549
0.6728459
1.740409
2.825731
3.066869
3.27139
3.462259
3.567058
3.658962
3.871732
4.30421
4.944978
5.591182
5.977637
5.846387
5.428036
5.078966
4.804767
4.597619
4.440128
4.289518
4.124418
3.93863
3.69493
3.382104
3.052211
2.714498
1.665753
0.6353412
0.8224327
2.024981
3.202394
3.327804
3.440931
3.540061
3.599021
3.697925
3.936518
4.335225
4.815185
5.229708
5.403441
5.206351
4.867934
4.606496
4.425094
4.289286
4.142753
3.967867
3.805416
3.56919
3.317206
3.062121
1.931775
0.7757807
1.302433
2.501409
3.333798
3.37464
3.428836
3.464887
3.500249
3.61004
3.822069
4.113866
4.415113
4.630231
4.69374
4.535097
4.294473
4.128886
4.03032
3.920711
3.701483
3.553059
3.353791
3.160524
2.35463
1.214532
0.7057347
1.662624
2.498286
3.201483
3.149295
3.150479
3.158314
3.21583
3.34499
3.529226
3.724967
3.902577
4.043193
4.075238
3.929352
3.76769
3.69078
3.661157
3.337
3.26197
3.129294
2.395994
1.569936
0.6468726
0.7100706
1.610852
2.317552
2.909242
2.797111
2.81415
2.858624
2.941805
3.053577
3.175448
3.306317
3.448229
3.554398
3.523761
3.37138
3.260669
3.387952
2.947186
2.968347
2.300865
1.553944
0.6599461
0.6633346
1.185228
1.787554
2.463319
2.91926
2.724052
2.673888
2.690629
2.755605
2.849772
2.954611
3.044185
3.050673
2.944026
2.846518
3.15145
2.576447
1.853417
1.181815
0.629897
0.7150535
1.497286
1.979464
2.204626
2.38543
2.484942
2.540973
2.581943
2.631254
2.678105
2.669269
2.575855
2.419352
2.154782
1.554581
0.7292419
0.5557289
0.9467519
1.079009
1.385305
1.705395
1.784015
1.824743
1.857333
1.874284
1.827133
1.495634
1.191354
1.045792
0.5877681
0.4898284
0.799103
0.8627279
0.8899588
0.9042856
0.9019078
0.8491895
0.5232548
0.908518
1.52208
1.64002
1.65002
1.556524
0.9525339
0.8152461
1.486248
1.825647
2.17163
2.850592
3.563347
3.741735
3.768896
3.660522
3.016841
2.337522
1.975262
1.596973
0.8655192
0.7410768
1.477124
2.317199
3.279399
3.90705
2.819619
3.492803
4.166047
4.383331
4.444247
4.338224
3.812083
3.374949
4.3405
3.642556
2.560193
1.67962
0.8410082
0.7997648
1.886035
2.983665
2.620903
3.478941
3.811701
3.198093
3.973088
4.667399
4.987409
5.16283
5.162732
4.784078
4.315798
5.099256
4.386207
3.315331
3.621198
2.293235
0.9946557
0.8131031
1.917802
3.057997
2.865076
2.741687
3.531464
3.729999
3.275759
3.997995
4.719019
5.141553
5.465235
5.654302
5.512817
5.320626
6.00972
5.352935
4.129044
4.319092
3.99744
2.559345
1.095854
0.7802327
1.904439
2.125524
3.00186
2.97051
2.95481
3.73551
3.982151
3.48713
4.072065
4.72908
5.137078
5.456775
5.676499
5.699256
5.802589
6.572634
6.148148
5.10264
4.990056
4.627518
3.28903
2.6781
1.089744
0.723283
1.812709
2.109317
2.365914
3.289679
3.529582
3.70587
4.478287
4.858967
4.533287
4.762257
5.10223
5.323937
5.507029
5.651566
5.626742
5.731807
6.499297
6.447343
5.724158
5.604297
5.176737
3.820987
3.176277
2.534475
0.9805508
0.6269712
1.638309
2.04304
2.423075
2.867915
3.901744
4.64569
5.312862
6.128969
6.638342
6.627178
6.542337
6.411289
6.211351
6.010798
5.851086
5.63921
5.577032
6.117268
6.274747
5.789528
5.721573
5.368499
4.17964
3.372816
2.833109
2.152902
0.7861215
0.5197741
1.438213
2.547397
2.453392
3.018339
3.803101
5.108054
6.549354
7.927123
9.016177
9.614368
9.638159
9.24988
8.61353
7.853073
7.108188
6.470598
5.934843
5.571413
5.709585
5.85581
5.603691
5.561985
5.318842
4.380795
3.621604
2.818797
3.256159
1.784417
0.6126494
0.9973606
2.202446
2.71566
3.065887
3.860074
5.10989
6.822498
8.575877
9.82533
10.52072
10.84287
10.85006
10.46801
9.731868
8.792717
7.827517
6.955839
6.240836
5.675921
5.459999
5.439036
5.273468
5.266775
5.203611
4.64125
4.13507
3.396934
3.073098
2.913788
1.303151
0.5302786
1.569469
2.177854
2.91271
3.621289
4.715425
6.222612
7.783609
8.81298
9.451815
9.854427
10.055
10.0712
9.841605
9.255189
8.472911
7.663548
6.906077
6.269729
5.735653
5.376583
5.19355
5.036635
5.109709
5.314689
5.242101
4.978821
4.595829
3.621246
2.456277
2.262275
0.7383903
0.9307467
2.169127
2.480147
3.209228
4.088262
5.384771
6.730461
7.723707
8.571729
9.254196
9.634284
9.764468
9.777504
9.698581
9.377267
8.453139
7.634589
6.954427
6.406351
5.951004
5.574981
5.327807
5.248105
5.560022
6.151216
6.577096
6.292825
6.121
5.174816
3.03712
3.511426
1.491625
1.132648
2.556328
2.86733
3.58266
4.491388
5.636467
6.610305
7.596011
8.6095
9.108217
9.085452
8.891738
8.811661
8.81462
8.840449
8.529274
7.879836
7.314366
6.865288
6.495983
6.222748
6.153929
6.455428
7.320469
8.266908
8.584384
7.681239
6.09929
5.168843
3.182838
3.978965
1.740947
1.337594
2.052074
2.757794
3.558273
4.41391
5.393181
6.431353
7.713973
8.558406
8.211611
7.760488
7.578446
7.656297
7.906958
8.261679
8.639168
8.611599
8.290396
7.966436
7.830104
8.140667
8.833671
9.602606
9.818406
9.307999
8.185282
6.790495
5.151783
4.482348
3.213028
2.33349
1.775517
0.5589116
1.780951
2.194463
2.843118
3.576282
4.386042
5.360286
6.499815
7.881745
7.736513
6.957227
6.6849
6.68516
6.856053
7.156387
7.587941
8.133995
8.719944
9.216317
9.499858
9.731204
9.849941
9.547864
8.853154
7.785462
7.001422
6.348163
5.557051
4.489357
4.057578
3.3129
2.619125
2.100452
0.6678623
0.9268936
2.194884
2.478568
3.042277
3.715455
4.469275
5.4116
6.584157
7.524196
6.751587
6.231306
6.173509
6.22544
6.282892
6.306165
6.330063
6.401375
6.529896
6.693334
6.857957
6.987099
7.044311
7.083186
7.033008
6.577858
5.925248
5.511766
4.662684
3.995441
3.629335
3.208646
2.740878
2.461794
1.049978
1.005565
2.305334
2.618332
3.162126
3.806325
4.507504
5.3714
6.447525
7.037848
6.416569
6.083236
6.131589
6.25187
6.319249
6.250714
6.063719
5.852434
5.705948
5.67551
5.778806
5.994906
6.248347
6.408971
6.35965
6.066694
5.546676
4.899207
4.25525
3.76366
3.545913
3.29515
2.869433
2.479746
1.063539
1.026625
2.344939
2.665703
3.194275
3.814886
4.483774
5.249288
6.121074
6.603151
6.405681
6.297414
6.369354
6.530134
6.646301
6.584992
6.325259
5.98355
5.700894
5.562307
5.589255
5.744066
5.94302
6.082501
6.07315
5.87033
5.493124
5.035802
4.644766
4.282729
3.916833
3.48907
2.940508
2.421177
1.024447
0.9880119
2.312726
2.646266
3.165601
3.762892
4.399331
5.045993
5.735054
6.239739
6.348348
6.506533
6.741862
6.944225
7.115554
7.094263
6.806101
6.370107
5.969837
5.718571
5.648608
5.730983
5.893976
6.048405
6.11287
6.037304
5.897438
5.659443
5.335784
4.917544
4.391131
3.758982
3.007223
2.342161
0.9586905
0.6227347
1.943802
2.370778
2.939359
3.552843
4.178189
4.739631
5.287012
5.736572
6.010898
6.325088
6.79119
7.27
7.611505
7.694659
7.428814
6.93249
6.43122
6.066903
5.883141
5.865766
5.960997
6.091397
6.17429
6.237228
6.189235
6.021585
5.718512
5.242735
4.575346
3.739655
2.780217
1.987222
0.6001838
1.544452
2.070979
2.587753
3.258314
3.901133
4.444599
4.869067
5.238866
5.513144
5.841554
6.365218
7.051905
7.751746
8.183032
8.051802
7.54379
6.967886
6.507724
6.210254
6.066548
6.039039
6.067956
6.109368
6.149533
6.094996
5.926433
5.61098
5.092927
4.337399
3.355988
2.48157
1.601771
1.374172
3.029661
3.219773
3.670355
4.157085
4.604032
4.932817
5.164822
5.340561
5.515156
5.843505
6.423794
7.242036
8.09792
8.447616
8.06228
7.457087
6.93761
6.561535
6.306599
6.137094
6.015275
5.956166
5.914632
5.800092
5.593127
5.273428
4.822842
4.255405
3.601171
3.07146
1.375657
1.175923
2.669298
3.069003
3.589743
4.111188
4.585959
4.947222
5.154287
5.266089
5.338312
5.434635
5.74626
6.410347
7.346531
8.184369
8.299678
7.78145
7.240828
6.83659
6.531243
6.263201
6.014361
5.847491
5.72395
5.531219
5.239143
4.82318
4.284303
3.659932
3.029422
2.6156
1.138974
0.6834663
1.994286
2.466337
2.950584
3.555465
4.095377
4.515086
4.769355
4.843033
4.850624
4.892173
5.085774
5.574883
6.37441
7.293309
7.92219
7.817679
7.316052
6.904321
6.607759
6.313968
6.0083
5.770641
5.594508
5.351645
5.005808
4.525167
3.901645
3.16704
2.49727
1.893527
0.6328589
1.33095
2.843577
3.144853
3.507212
3.960513
4.328317
4.567523
4.650228
4.61443
4.596673
4.662685
4.936412
5.487988
6.252972
6.991021
7.356881
7.104436
6.683389
6.418374
6.194222
5.878228
5.602404
5.380041
5.082222
4.705518
4.242874
3.672681
3.172773
2.657982
1.227148
0.6989345
1.870897
3.214469
3.417952
3.72027
3.990883
4.159698
4.225217
4.181209
4.116367
4.121609
4.287654
4.686543
5.289307
5.947282
6.451294
6.546775
6.215771
5.969529
5.880182
5.577443
5.279675
5.015456
4.616034
4.152552
3.675015
3.18979
3.010761
1.714054
0.6241608
0.8254017
2.092623
2.43054
2.740061
3.054592
3.279273
3.403828
3.427093
3.39794
3.449171
3.634926
3.989566
4.47789
5.010563
5.473544
5.719395
5.58966
5.341099
5.416135
5.137622
4.820116
4.569613
4.090326
3.49451
2.944462
2.389068
1.892599
0.7148183
0.9061298
2.203017
2.428774
2.620171
2.810795
2.939595
2.992979
3.000768
3.052469
3.219125
3.496084
3.847842
4.227858
4.584173
4.842061
4.846555
4.629385
4.863349
4.638961
4.216766
4.067847
3.607863
2.883756
2.472296
2.043383
0.7910985
0.9135722
2.152061
2.287257
2.461881
2.572434
2.677246
2.737608
2.801894
2.923526
3.099174
3.305316
3.538571
3.801648
4.050696
4.124497
3.939023
4.228372
4.087671
3.509001
3.489289
3.170936
2.324264
2.028392
0.8205808
0.8580493
1.92367
2.887127
2.760422
2.735851
2.691323
2.67381
2.69019
2.735793
2.824235
2.974562
3.188192
3.397071
3.43468
3.210943
3.554442
3.472941
2.805273
2.965419
2.879314
1.874494
0.7887595
0.7331552
1.630592
2.385462
2.199614
2.191019
2.250009
2.283498
2.313635
2.392967
2.531639
2.699399
2.833912
2.778197
2.460394
2.941621
2.84303
2.267027
2.525198
1.636144
0.7135555
0.5898213
1.088613
1.601773
2.116817
2.403166
2.000709
1.955193
2.06315
2.194386
2.303708
2.349378
2.167155
1.890406
2.651181
2.350586
1.743731
1.161847
0.5986741
0.5651871
0.9556111
1.109916
1.252463
1.621451
1.971166
2.049243
2.067431
2.019998
1.674937
1.325707
1.184272
1.013077
0.5820769
0.5219475
0.843788
0.8964759
0.9007007
0.8528359
0.5273423
0.8421468
1.537594
1.85203
2.048468
2.135987
2.14999
2.097924
1.92746
1.657292
0.9197162
0.8415154
1.623981
2.106635
2.896102
3.905906
2.905434
3.168531
3.303423
3.323152
3.276894
3.253747
4.181798
3.128994
2.200956
1.663231
0.8681395
1.123615
2.576138
2.36824
3.007649
3.850707
4.668687
4.153407
4.859371
5.09074
5.123297
5.032061
4.737836
5.200058
4.087739
3.158143
2.553011
2.753908
1.190724
0.8073616
1.687149
1.796071
2.98061
3.106193
4.123135
5.043072
5.813087
5.763072
6.47276
6.78147
6.853177
6.770552
6.539383
6.677561
5.649903
4.701797
3.707495
3.710295
2.211663
1.88904
0.905462
0.8048818
2.102836
2.041697
2.266245
3.456641
3.876397
4.893984
5.782553
6.475682
6.689686
7.433368
7.890086
8.117996
8.154861
8.009724
7.998686
7.14126
6.294784
5.350285
5.14293
3.332022
2.947157
2.513952
0.9772829
0.7529565
2.005806
2.1772
2.289974
2.704767
3.681931
4.128987
4.993673
5.760849
6.323903
6.606523
7.409475
8.066332
8.585828
8.944616
9.065959
9.132496
8.447861
7.701376
6.843873
6.564497
4.922547
4.092237
3.495841
2.584978
0.9652644
0.6934733
1.857052
2.096791
2.322719
2.579981
2.977319
3.737636
4.165272
4.911488
5.553431
5.890759
6.142029
6.906809
7.620857
8.300627
8.938735
9.378497
9.802475
9.423181
8.8518
8.101001
7.7662
6.407327
5.511123
4.395846
3.41426
2.466865
0.8883038
0.61185
1.685275
1.985089
2.28929
2.65053
2.964089
3.40995
4.205285
4.630444
5.325984
5.885593
6.015483
6.078403
6.539241
7.049673
7.616492
8.262053
8.881755
9.611511
9.689139
9.441424
8.936185
8.616001
7.460311
6.502453
5.260193
3.925778
3.010319
2.18504
0.7582703
1.179737
1.800265
2.208669
2.712691
3.220201
3.755446
4.418662
5.449129
6.180757
6.995513
7.567453
7.671425
7.499955
7.386758
7.327523
7.389023
7.637756
8.029572
8.666929
9.143097
9.263757
9.079976
8.825661
7.833911
6.784555
5.502948
4.201913
3.255627
2.604564
1.480198
0.7478934
1.456859
2.022005
2.640348
3.337318
4.125835
5.028887
6.198491
7.776937
9.302265
10.60266
11.34159
11.39188
10.88784
10.08435
9.183864
8.381824
7.838949
7.607906
7.762357
8.152772
8.439224
8.497314
8.441588
7.700702
6.653882
5.462524
4.333373
3.657657
2.815211
1.804457
0.8728841
0.5436151
1.701946
1.770204
2.428716
3.212476
4.125294
5.280669
6.703412
8.628616
10.95813
12.96133
14.17127
14.67983
14.60706
13.88732
12.69423
11.26618
9.843106
8.628514
7.755942
7.31064
7.292075
7.456962
7.574429
7.663737
7.266542
6.466909
5.615058
4.78485
4.168788
3.566955
2.19171
2.102339
0.6359896
1.001751
1.674711
2.133159
2.902398
3.841325
5.001122
6.49203
8.413696
10.71384
12.48526
13.18187
13.34444
13.34276
13.26515
13.05765
12.35697
11.25601
10.01906
8.823152
7.821967
7.114667
6.768157
6.709388
6.776711
6.980698
6.990514
6.721894
6.402822
6.023435
5.309223
4.188794
3.128594
1.968513
1.343258
1.257611
1.782224
2.485832
3.368552
4.435683
5.814365
7.517208
9.484389
10.99473
11.61344
11.90703
11.95844
11.88858
11.82829
11.79894
11.66865
10.75668
9.705295
8.708741
7.835084
7.143876
6.682828
6.49208
6.562783
6.969976
7.491778
7.938007
8.027943
7.844361
7.110986
5.503085
4.682923
2.652547
1.902411
0.5340756
1.762272
2.07968
2.841119
3.789983
4.927192
6.404493
8.038578
9.467042
10.24693
10.93102
11.16752
10.83225
10.44228
10.29095
10.32661
10.49793
10.45552
9.708833
8.883398
8.173084
7.601965
7.221313
7.145817
7.503959
8.410032
9.474559
10.05328
9.650336
8.488314
7.278319
5.67758
5.039614
3.0263
2.626044
0.722259
0.9460768
2.35912
2.505177
3.221634
4.158801
5.273253
6.674972
7.976457
8.915936
9.776811
10.62455
9.986149
9.152518
8.793145
8.798816
9.05121
9.481304
10.02532
10.1613
9.803091
9.293104
8.977329
9.132792
9.743283
10.67018
11.30105
11.13151
10.12554
8.704233
7.223266
6.196913
5.205316
4.495713
3.124048
3.278221
1.206213
1.122836
1.801999
2.499514
3.374585
4.338668
5.406754
6.660164
7.69068
8.49792
9.62321
9.767653
8.453282
7.87439
7.764918
7.877257
8.131899
8.540234
9.113321
9.783992
10.40013
10.77533
11.05603
11.28162
11.17928
10.68943
9.783921
8.821986
7.925475
6.99453
6.104894
5.550606
5.046189
4.573932
3.404753
3.274015
1.278286
1.251558
1.747422
2.519838
3.412068
4.358071
5.364847
6.4916
7.391944
8.202702
9.233808
8.689092
7.575029
7.348066
7.390965
7.451631
7.437948
7.390257
7.401888
7.522865
7.745207
8.030343
8.317746
8.531554
8.686213
8.71521
8.351848
7.680998
7.001561
6.00208
5.344568
5.245247
5.011806
4.569811
3.504414
2.72381
1.294232
1.318126
1.777712
2.540317
3.402906
4.29172
5.225168
6.230983
7.088633
7.864002
8.611435
8.20221
7.407271
7.363715
7.551825
7.698417
7.645081
7.392778
7.082998
6.870736
6.8418
7.014327
7.35001
7.746497
8.040985
8.074632
7.772248
7.170062
6.426062
5.752169
5.382754
5.243776
5.065716
4.487906
3.436186
2.30139
1.258219
1.347738
1.807403
2.558273
3.386094
4.205145
5.059157
5.95584
6.797417
7.488344
8.011643
7.910313
7.645484
7.658111
7.924415
8.192172
8.210989
7.911633
7.451666
7.061885
6.885392
6.952591
7.205071
7.525355
7.772805
7.827529
7.636109
7.239034
6.750298
6.288752
5.993027
5.701923
5.284564
4.523963
3.393485
2.124957
1.228593
1.339891
1.806349
2.549848
3.363934
4.128413
4.906565
5.732316
6.538973
7.144464
7.552683
7.617709
7.681955
7.959874
8.366014
8.77379
8.939744
8.681628
8.132317
7.587686
7.250166
7.174808
7.31401
7.562748
7.800351
7.929049
7.900813
7.739348
7.556425
7.303331
6.95633
6.464507
5.761787
4.800451
3.510191
2.117077
1.201741
1.266791
1.761023
2.375158
3.255677
4.029244
4.759257
5.520604
6.255205
6.830407
7.158884
7.266741
7.398086
7.810696
8.478676
9.214079
9.656869
9.570058
9.019893
8.360318
7.865051
7.624388
7.613566
7.749202
7.926871
8.055973
8.087181
8.122966
8.070939
7.901334
7.570548
7.019975
6.175019
4.953716
3.368734
2.128142
1.139472
1.104211
2.76581
2.969098
3.598604
4.211576
4.813936
5.463413
6.118744
6.669081
6.949356
7.01669
7.069125
7.381274
8.045825
8.999719
9.963619
10.29674
9.894517
9.197563
8.586475
8.194876
8.015583
7.985686
8.018089
8.02593
8.007045
8.005824
7.920407
7.721364
7.375844
6.845781
6.083254
5.039978
3.754652
2.695809
0.9975792
0.635606
2.141794
2.676768
3.469561
4.181117
4.801666
5.413114
6.026121
6.554296
6.919106
7.031253
7.01608
7.083654
7.450028
8.240627
9.394496
10.40611
10.48629
9.894159
9.245459
8.765995
8.459697
8.272575
8.140991
7.98995
7.818453
7.688152
7.468684
7.130936
6.652087
6.004221
5.150127
4.086071
2.912367
2.087656
0.5769781
1.61377
2.26576
3.171279
4.020362
4.717475
5.334407
5.923836
6.44428
6.821055
7.025711
7.002111
6.890771
6.930306
7.371423
8.322921
9.563464
10.40089
10.24736
9.671237
9.18136
8.831568
8.556866
8.316857
8.061099
7.767364
7.524948
7.196241
6.736418
6.130432
5.361131
4.409182
3.320783
2.265897
1.560868
1.308476
1.917777
2.631535
3.593764
4.411526
5.085882
5.672124
6.169749
6.521356
6.699985
6.685897
6.51905
6.400234
6.572005
7.214943
8.29224
9.430433
9.990245
9.733396
9.295851
8.970621
8.68266
8.399758
8.102598
7.74968
7.435491
7.038439
6.489605
5.777267
4.900393
3.873333
2.773497
1.934119
1.204659
0.7116449
2.209624
2.672967
3.418889
4.163894
4.806281
5.342155
5.768473
6.043144
6.146913
6.135035
5.984219
5.827255
5.852831
6.242618
7.056003
8.116297
9.016231
9.306617
9.055213
8.79121
8.535769
8.24593
7.93012
7.555648
7.196455
6.749548
6.129003
5.328229
4.382513
3.398832
2.531212
2.048148
0.6289898
1.001783
1.707245
2.352649
3.195524
3.966846
4.567738
4.984032
5.243454
5.34166
5.307492
5.205387
5.086291
5.092337
5.370994
5.992805
6.879839
7.78971
8.380873
8.465506
8.329292
8.126481
7.836451
7.496867
7.116742
6.713584
6.219962
5.526546
4.631212
3.591643
2.576984
1.827162
0.8827403
1.615689
2.163036
2.707788
3.396826
3.972539
4.369647
4.59995
4.684967
4.634207
4.535341
4.428585
4.429431
4.648622
5.136133
5.852545
6.653334
7.297747
7.585727
7.644073
7.52767
7.234623
6.853614
6.500027
6.022185
5.502232
4.766789
3.856586
2.848171
2.038251
1.359271
0.7982347
2.154408
2.45282
2.810324
3.271752
3.650926
3.899941
4.020002
4.014773
3.925286
3.863545
3.882497
4.066439
4.452947
5.023412
5.686598
6.271445
6.611082
6.785897
6.78117
6.509078
6.114277
5.783353
5.159557
4.632776
3.892723
3.063662
2.319278
1.822453
0.6448586
0.8500179
2.207956
2.446754
2.733344
3.093811
3.352522
3.497425
3.523958
3.460107
3.391787
3.4107
3.563569
3.876282
4.332697
4.859959
5.333169
5.630063
5.841633
5.946176
5.788187
5.35256
5.005858
4.170596
3.656638
2.993853
2.413172
1.911445
0.6869995
0.8451552
2.152833
2.284748
2.462772
2.700869
2.872249
2.956032
2.958116
2.931285
2.952606
3.102
3.374277
3.739416
4.126712
4.479154
4.742827