/*--------------------------------*- C++ -*----------------------------------*\
  =========                 |
  \\      /  F ield         | OpenFOAM: The Open Source CFD Toolbox
   \\    /   O peration     | Website:  https://openfoam.org
    \\  /    A nd           | Version:  6
     \\/     M anipulation  |
\*---------------------------------------------------------------------------*/
FoamFile
{
    version     2.0;
    format      ascii;
    class       volScalarField;
    location    "49.8";
    object      alphat;
}
// * * * * * * * * * * * * * * * * * * * * * * * * * * * * * * * * * * * * * //

dimensions      [1 -1 -1 0 0 0 0];

internalField   nonuniform List<scalar> 
140018
(
0.6226827
0.9812355
0.9565333
0.5857188
0.6564717
1.082198
1.462043
1.797244
1.759737
1.37745
0.9898981
0.5864805
0.542386
0.9184137
1.374759
1.808751
1.971955
2.049289
2.026479
1.907536
1.7229
1.298058
0.9173511
0.5368345
0.5149464
1.164005
1.598406
1.75346
1.865199
1.992172
2.063195
2.069083
2.01304
1.906919
1.748486
1.560809
1.140263
0.5181493
0.8860408
1.616327
1.836157
1.909618
1.909741
1.908236
1.971772
2.0021
1.981862
1.930758
1.853872
1.748493
1.551363
0.8589806
0.5219005
1.284191
1.833082
2.009015
2.065555
2.06623
2.038628
2.001299
1.983967
1.979997
1.969092
1.95125
1.920402
1.837839
1.328357
0.5657642
0.9150975
1.705093
2.002948
2.136938
2.187609
2.197931
2.190696
2.178153
2.161201
2.140665
2.130244
2.111429
2.05721
1.962868
1.691503
0.9240547
0.4564109
1.248085
1.853198
2.089035
2.193127
2.229778
2.231579
2.217579
2.194882
2.163675
2.12661
2.088998
2.053317
2.017096
1.959701
1.804811
1.276713
0.5356647
0.7632317
1.565561
1.944687
2.142468
2.235728
2.265694
2.266173
2.24926
2.217088
2.180489
2.147174
2.118493
2.103517
2.097272
2.065921
1.956057
1.675412
0.9183109
0.7536776
1.566019
1.96286
2.166257
2.266632
2.301508
2.306118
2.292858
2.263732
2.229041
2.198461
2.17503
2.166568
2.164269
2.1321
2.017625
1.729272
0.9398165
0.4870613
1.256179
1.903185
2.147
2.270103
2.318992
2.328261
2.318314
2.297
2.264644
2.230976
2.208641
2.200139
2.188917
2.138446
1.971352
1.408286
0.5972519
0.980342
1.800691
2.085725
2.245464
2.315439
2.334303
2.328856
2.312553
2.283257
2.250596
2.225814
2.207438
2.177297
2.087773
1.843153
1.051571
0.6278044
1.485726
1.981009
2.183564
2.285074
2.319458
2.323794
2.314727
2.290492
2.259506
2.226389
2.188603
2.125029
1.965895
1.427371
0.6400289
1.060847
1.836084
2.066968
2.209618
2.268945
2.290198
2.293384
2.276918
2.24607
2.197635
2.129012
2.015035
1.78083
1.019606
0.6328409
1.38126
1.843687
2.033745
2.147313
2.202804
2.228871
2.221217
2.180149
2.100061
1.967762
1.779447
1.30938
0.6098434
0.6246078
1.044455
1.487764
1.876102
2.000803
2.073199
2.074413
1.99311
1.843697
1.425617
1.017441
0.6079881
0.6201475
1.042533
1.414037
1.749645
1.755769
1.40898
1.041554
0.6270399
0.560537
0.9322077
0.9433898
0.5814539
0.5541904
0.9531721
1.067758
1.145764
1.217689
1.292716
1.36243
1.393903
1.341041
0.8246136
0.5870292
1.031557
1.488699
1.844301
1.955857
2.035723
2.100882
2.166458
2.246143
2.317125
2.319058
1.914234
1.405259
0.8130532
0.6707341
1.53557
2.06645
2.333088
2.543085
2.682894
2.805642
2.861004
2.808617
2.686797
2.600901
2.599839
2.535257
2.36407
1.776135
0.8080815
0.6747291
1.58658
2.24362
2.627838
2.947145
3.280365
3.681144
3.563463
3.42801
3.267545
2.827572
3.219877
2.902937
2.743085
2.643317
2.390291
1.736185
0.7680636
0.6326321
1.510027
2.213993
2.704343
3.213656
3.779287
3.975745
3.972419
3.922829
3.767141
3.603575
3.10976
3.140563
3.015885
3.240574
2.91593
2.641402
2.314815
1.6197
0.6933148
0.5778235
1.384986
2.068785
2.61528
3.381492
4.03416
4.049282
4.335584
4.364011
4.125968
3.928773
3.755111
3.484221
3.382016
3.206762
3.216738
2.987842
3.039308
2.562892
2.159273
1.454959
0.6176436
1.02696
1.865984
2.392029
3.080327
3.669605
4.372647
5.05944
5.356345
5.367403
4.952409
4.385967
4.071826
3.835931
3.672491
3.469776
3.394806
3.167133
3.224665
2.911084
2.465257
2.005248
1.085034
0.5421933
1.387633
2.079622
2.668452
3.640838
3.866086
4.842356
5.142261
5.243627
5.237307
5.117669
4.61338
4.359472
4.156095
3.956182
3.731973
3.683278
3.580237
3.41901
3.697501
3.011738
2.557532
1.738443
0.7172593
0.9394316
1.773252
2.280307
3.035628
2.507058
3.463076
4.376891
4.598283
4.756406
4.909313
5.0439
5.0828
4.837176
4.624283
4.500724
4.502339
4.814044
5.259749
5.168686
4.472558
4.284783
3.251853
2.371172
1.159975
1.035346
1.907494
2.440764
3.382608
2.600935
3.632072
3.978243
4.192707
4.406907
4.669096
4.986164
5.327426
5.629041
5.795223
5.891762
6.033046
6.13269
5.873987
5.038908
3.359028
3.934012
2.77108
2.015636
0.9878174
1.092707
2.00028
2.589003
1.926671
2.586689
3.458664
3.703077
3.823175
3.913585
4.010068
4.121147
4.243687
4.361678
4.453498
4.488259
4.453324
4.388731
4.296466
4.058663
3.193724
2.30772
2.642389
1.928779
0.9706752
1.131761
2.075005
2.668273
2.135224
3.064855
3.487942
3.640132
3.685985
3.688395
3.677058
3.654346
3.632521
3.613192
3.613001
3.646553
3.724736
3.827411
3.873238
3.793952
3.596466
3.178745
2.773191
2.049579
1.044913
1.153211
2.161105
2.69768
2.502828
3.313597
3.688596
3.780554
3.76391
3.703449
3.633372
3.553553
3.486168
3.428065
3.402214
3.420155
3.482156
3.555806
3.597045
3.557201
3.365818
3.106286
2.882065
2.151108
1.105553
1.15201
2.190283
2.689244
3.622388
3.917815
4.066022
4.093056
3.996309
3.85697
3.724564
3.593855
3.501552
3.419226
3.364781
3.352724
3.386655
3.44844
3.503768
3.487997
3.375045
3.1725
2.864569
2.203117
1.148731
1.11998
2.134142
2.613634
3.234489
3.764912
4.315284
4.489606
4.355562
4.12206
3.905605
3.702369
3.58975
3.495294
3.424269
3.383693
3.385161
3.427593
3.478275
3.508453
3.482647
3.492732
2.743628
2.168798
1.148244
1.038696
2.005984
2.531135
3.003194
3.430452
4.143031
4.565644
4.670261
4.460194
4.154412
3.837326
3.699248
3.598843
3.520369
3.454722
3.415534
3.413645
3.422925
3.394894
3.294117
3.10592
2.567663
2.025862
1.065744
0.6446314
1.590719
2.356833
2.82501
3.500043
3.728242
4.128975
4.516582
4.666087
4.431254
3.970348
3.786694
3.680872
3.611048
3.536334
3.453849
3.402507
3.373366
3.380683
3.459219
2.774868
2.308567
1.565659
0.641764
1.153964
2.123748
2.631359
3.123966
3.257273
3.564558
4.017625
4.432046
4.535904
4.074341
3.830049
3.709235
3.656829
3.593605
3.466365
3.373442
3.210418
3.118322
2.991682
2.497472
2.020294
1.105167
0.6797743
1.55444
2.271699
2.707515
3.245182
3.284404
3.556537
3.879894
4.169338
4.009002
3.788167
3.640396
3.583363
3.596804
3.431397
3.380407
3.136945
3.154967
2.59974
2.162515
1.480648
0.6451758
0.7227554
1.618732
2.299188
2.660251
2.995009
3.359386
3.373043
3.614458
3.598066
3.553365
3.461905
3.386846
3.50017
3.280794
3.43591
2.981622
2.59265
2.210864
1.545801
0.6825106
0.7239097
1.58557
2.183861
2.459749
2.632836
2.840397
3.141685
3.059273
3.14213
3.160789
3.094406
3.378254
3.012136
2.721645
2.467737
2.140362
1.533231
0.6857242
0.6817169
1.443257
1.921861
2.121173
2.276117
2.391142
2.549837
2.710063
2.788624
2.738486
2.588728
2.430679
2.223728
1.970493
1.445695
0.6656296
0.6090953
1.015981
1.389976
1.741174
1.838122
1.911105
1.975749
2.026371
2.039354
1.985569
1.867067
1.478931
1.066571
0.6157666
0.5482356
0.8852831
0.9465322
0.9754973
0.9977849
1.019363
1.033748
1.020309
0.9530467
0.5841518
0.7817654
1.337145
1.493891
1.563946
1.587263
1.56773
1.459982
0.8885658
0.6917123
1.277977
1.535821
2.054788
2.649791
2.894101
3.036484
3.114517
3.129302
3.031105
2.465874
1.894068
1.573129
0.8570686
0.7346241
1.638062
2.31124
2.706183
3.067485
3.392246
3.680974
3.912699
4.089874
4.19866
4.197146
4.060585
3.71223
3.172531
2.225553
1.037497
0.5880071
1.101874
1.70126
2.412172
2.991404
3.012043
3.394722
3.692193
3.925937
4.111174
4.264305
4.374562
4.379446
4.279175
4.074477
4.534319
3.60776
2.547493
1.618444
0.8572533
0.5773319
1.355445
2.028516
2.612101
3.116703
3.732199
4.018848
4.311401
4.503944
4.634424
4.701387
4.707632
4.663455
4.543024
4.382609
4.220291
4.608005
3.940389
3.99589
3.08176
2.01891
0.8454986
0.54877
1.338563
2.051019
2.731996
3.721364
4.508176
5.088673
5.416023
5.593269
5.663473
5.643639
5.528159
5.336296
5.085173
4.786559
4.491123
4.253766
4.493625
4.054776
4.045858
4.025478
3.010895
1.885824
0.7434111
1.003599
2.002698
2.777655
3.954079
4.964915
5.67889
6.194053
6.467509
6.515126
6.430244
6.27428
6.082268
5.805038
5.400168
5.031273
4.647089
4.292107
4.337247
4.042658
3.966376
3.927782
3.740818
2.652953
1.275988
0.6511984
1.665574
2.714237
3.741525
4.69425
5.451077
6.089074
6.562646
6.830653
6.87761
6.641858
6.329817
6.037849
5.728048
5.344888
5.047371
4.692519
4.337737
4.219295
3.960882
3.869373
3.863856
3.760715
3.274365
1.932435
0.7472349
0.5293636
1.442116
2.412265
3.154919
4.094147
4.970171
5.79566
6.495923
7.039966
7.34049
7.472976
7.302991
6.740556
6.141687
5.654952
5.247996
4.967458
4.695999
4.414978
4.18807
3.939515
3.851132
3.937307
3.949834
3.289981
2.982411
1.821598
0.6920524
0.9459966
1.989873
2.988721
3.684105
4.464035
5.290352
6.130499
6.813994
7.323367
7.591136
7.702384
7.664133
7.310081
6.471943
5.862132
5.421347
5.118707
4.872317
4.634524
4.382339
4.196423
4.246932
4.519363
4.62063
3.465913
4.173541
2.954708
1.447579
1.14266
2.339793
2.898818
3.627292
4.525343
5.545469
6.280978
6.750036
7.049753
7.057152
7.081003
7.105839
7.089339
6.681312
6.172891
5.794289
5.510469
5.279809
5.123026
5.004907
5.055351
5.562145
6.045241
6.075649
4.590744
3.013829
3.550179
1.75851
0.5287217
1.527107
2.624429
3.08089
3.912294
4.834512
5.895851
5.909997
5.997458
6.081054
6.110047
6.25715
6.493566
6.772219
7.010489
6.874833
6.584482
6.370472
6.318133
6.602584
7.097675
7.553224
7.474401
7.081095
6.173327
4.924848
2.819266
3.470695
2.044392
0.6928194
0.8863764
1.908333
2.785117
3.246707
4.076341
5.109446
5.890885
5.205065
5.283139
5.336078
5.45099
5.653278
5.95162
6.351307
6.82545
7.30234
7.670777
7.856181
8.033733
8.150417
7.898391
7.16137
5.852064
5.403743
4.914314
4.216683
2.700064
2.934244
1.942943
0.8704545
0.9740814
2.020763
2.88237
3.357501
4.226301
5.334902
5.127806
4.617623
4.848427
4.950017
5.025954
5.08715
5.141892
5.21695
5.327721
5.463956
5.598285
5.696816
5.73382
5.733409
5.699205
5.562469
4.978417
4.3624
4.396819
3.703733
3.082001
2.519721
1.871156
0.9643712
1.011535
2.076187
2.941943
3.397861
4.290254
5.305128
5.017945
4.668429
4.811005
4.916858
4.976501
4.980759
4.91757
4.80869
4.698842
4.622124
4.605043
4.6642
4.795845
4.957727
5.047814
4.980509
4.75737
4.367295
3.883855
3.356214
2.978472
2.805154
2.054595
1.038733
1.028163
2.106675
2.978891
3.387401
4.151054
5.045607
5.061577
4.898616
5.067989
5.148609
5.184485
5.158182
5.044445
4.854167
4.650651
4.485626
4.399444
4.408142
4.493413
4.601974
4.664043
4.618921
4.428451
4.117845
3.794561
3.467094
3.160435
2.956058
2.138021
1.063828
1.024231
2.110924
2.990009
3.341394
3.929098
4.679675
5.098462
5.211231
5.432782
5.57289
5.576212
5.508994
5.343371
5.083986
4.80858
4.573033
4.41865
4.364438
4.398258
4.477471
4.544613
4.541713
4.469986
4.296339
4.043847
3.736796
3.373953
3.070874
2.185033
1.065738
0.9659702
2.047942
2.947619
3.24227
3.693647
4.24086
4.703786
5.061951
5.463865
5.852336
6.037409
5.985021
5.77019
5.431959
5.087558
4.79194
4.575625
4.456496
4.43215
4.473853
4.532078
4.574192
4.538081
4.390658
4.159455
3.857791
3.46036
3.111484
2.163741
1.01633
0.6061605
1.684674
2.83426
3.083775
3.441099
3.816051
4.200601
4.601198
5.07368
5.603439
6.108519
6.385383
6.251261
5.834909
5.409223
5.058526
4.789506
4.606864
4.51156
4.486432
4.489354
4.503592
4.429082
4.26806
4.035354
3.729463
3.333138
2.995879
1.788923
0.6337715
1.326561
2.640301
2.937309
3.216048
3.52379
3.777521
4.024206
4.400014
4.959718
5.608421
6.235416
6.543665
6.216078
5.706425
5.30023
4.993281
4.761955
4.597386
4.488551
4.430718
4.368974
4.24546
4.061227
3.819495
3.482928
3.115466
2.681366
1.359644
1.164517
2.364168
3.415856
3.553756
3.757918
3.912404
4.032663
4.16157
4.442413
4.940414
5.617746
6.238544
6.367101
5.91406
5.453771
5.11819
4.858789
4.645768
4.483553
4.369727
4.241552
4.083813
3.893974
3.682686
3.451759
3.309009
2.288988
1.131754
0.671141
1.735525
2.817653
3.057024
3.262157
3.457066
3.569105
3.659953
3.851159
4.253013
4.873459
5.531984
5.964129
5.88719
5.461244
5.092962
4.808902
4.597714
4.437745
4.286397
4.119803
3.933939
3.690275
3.377795
3.047733
2.710337
1.663056
0.634212
0.8206917
2.020763
3.196557
3.324811
3.442851
3.547914
3.607577
3.694412
3.912662
4.291632
4.767085
5.198499
5.399959
5.228939
4.877061
4.603595
4.417512
4.281211
4.135452
3.958783
3.79694
3.560923
3.309075
3.05481
1.926973
0.7738079
1.300371
2.498118
3.330702
3.373554
3.431194
3.467412
3.497446
3.595214
3.794335
4.079452
4.384118
4.607315
4.683849
4.535796
4.287414
4.115554
4.017489
3.910973
3.689137
3.542901
3.344502
3.151945
2.347665
1.210492
0.7051138
1.661273
2.496396
3.200102
3.148243
3.149724
3.154628
3.20514
3.326144
3.505014
3.699695
3.876737
4.017759
4.058026
3.91833
3.752891
3.674564
3.651453
3.323574
3.252327
3.121349
2.389219
1.565164
0.6448641
0.7099525
1.611149
2.318786
2.911651
2.798764
2.814884
2.854
2.931335
3.038754
3.15732
3.283682
3.420027
3.528398
3.506703
3.357772
3.242857
3.379631
2.935769
2.960529
2.295114
1.549478
0.6580832
0.6638312
1.186531
1.790356
2.467644
2.924338
2.725691
2.672083
2.68394
2.743125
2.832003
2.933298
3.022195
3.032302
2.929838
2.831416
3.141552
2.568506
1.848113
1.179001
0.6283699
0.7162761
1.499918
1.982706
2.207515
2.386596
2.483149
2.535295
2.572189
2.618198
2.663369
2.655056
2.563072
2.407488
2.14693
1.550177
0.727389
0.5568686
0.9486507
1.080742
1.385697
1.704038
1.7804
1.818704
1.849212
1.864947
1.817943
1.488334
1.185344
1.041491
0.5863147
0.4902555
0.7989485
0.8614674
0.8875444
0.9009155
0.8979641
0.8453202
0.5210223
0.90933
1.523192
1.641194
1.651363
1.558103
0.9537801
0.8166322
1.488663
1.82845
2.174636
2.854142
3.567077
3.744887
3.771695
3.663282
3.019203
2.339024
1.9768
1.598396
0.8667524
0.7434511
1.482084
2.324586
3.289435
3.917955
2.832213
3.506228
4.178825
4.39316
4.450603
4.341312
3.813598
3.375749
4.341602
3.64344
2.561431
1.68028
0.8415215
0.8037078
1.89538
2.998978
2.64016
3.50348
3.840663
3.228491
4.010049
4.704475
5.019812
5.187516
5.177749
4.791586
4.318819
5.094832
4.380998
3.312664
3.621225
2.293466
0.9951854
0.8172621
1.928471
3.076763
2.883155
2.767959
3.564029
3.766822
3.32298
4.054519
4.780296
5.203835
5.523187
5.700856
5.546203
5.340541
6.010193
5.348445
4.124486
4.31795
3.997704
2.560827
1.097447
0.7828556
1.911843
2.136435
3.01197
2.978444
2.976966
3.762292
4.003374
3.518442
4.119272
4.788653
5.201727
5.522413
5.746871
5.77275
5.862272
6.607026
6.163448
5.108331
4.995502
4.632616
3.296083
2.683771
1.093287
0.724032
1.814581
2.108217
2.369875
3.296365
3.531621
3.71588
4.506281
4.88455
4.54857
4.79116
5.146592
5.378191
5.569003
5.720861
5.70743
5.809875
6.578423
6.505715
5.763722
5.636209
5.203349
3.843927
3.194735
2.545413
0.9858787
0.6268214
1.635593
2.040629
2.409571
2.860454
3.920489
4.67422
5.357605
6.199362
6.714672
6.690829
6.599591
6.466789
6.264961
6.064182
5.908783
5.708503
5.659804
6.213368
6.360901
5.866921
5.791469
5.427944
4.23047
3.403577
2.841129
2.163908
0.7904241
0.518736
1.433497
2.538021
2.430086
2.99501
3.79949
5.146632
6.62645
8.038402
9.155281
9.769344
9.793229
9.393282
8.738663
7.955267
7.187739
6.53412
5.994077
5.643036
5.801838
5.955029
5.698172
5.650165
5.387818
4.429689
3.635678
2.802542
3.258137
1.782395
0.6099484
0.9930489
2.191433
2.698877
3.032161
3.838901
5.114502
6.866943
8.639203
9.885165
10.58309
10.93158
10.98385
10.63758
9.908616
8.954129
7.958893
7.05275
6.309459
5.736199
5.534374
5.527656
5.364078
5.344391
5.247269
4.639913
4.076257
3.333882
3.085906
2.87935
1.286919
0.5287276
1.560275
2.165345
2.897001
3.592221
4.704837
6.227379
7.796163
8.81927
9.456272
9.862339
10.08157
10.1469
9.994016
9.449914
8.65827
7.819564
7.02097
6.3409
5.776544
5.415593
5.242919
5.084335
5.117551
5.250539
5.104073
4.803874
4.421226
3.547734
2.434715
2.232818
0.7303958
0.9274145
2.157242
2.458384
3.183196
4.061078
5.366278
6.720056
7.719018
8.569246
9.220623
9.558418
9.666738
9.703108
9.698317
9.50453
8.606522
7.754366
7.038157
6.446915
5.954539
5.56316
5.304243
5.183167
5.395459
5.861552
6.201944
5.96449
5.875412
5.027
2.984469
3.493809
1.494406
1.127746
2.542684
2.839072
3.546642
4.460182
5.604676
6.58935
7.593511
8.573618
8.963903
8.867356
8.664443
8.615507
8.677025
8.803895
8.634425
7.960259
7.348661
6.855885
6.450526
6.142131
5.992091
6.146455
6.822106
7.69477
8.143666
7.484354
6.082591
5.212546
3.211645
4.027153
1.766414
1.331346
2.04446
2.744657
3.535286
4.397903
5.3729
6.412313
7.707907
8.408066
7.960164
7.538605
7.385337
7.478877
7.743627
8.125056
8.552017
8.589273
8.257916
7.8836
7.675514
7.842591
8.307089
9.030255
9.472565
9.28048
8.373947
7.023912
5.323938
4.603343
3.276341
2.272011
1.796074
0.5575018
1.773915
2.182144
2.824315
3.548214
4.360296
5.327826
6.472025
7.825992
7.520189
6.795666
6.565687
6.570807
6.721809
6.989842
7.390847
7.919494
8.506302
9.018877
9.311866
9.529994
9.703803
9.566977
9.003337
7.966675
7.174654
6.511588
5.705049
4.598049
4.156102
3.395421
2.560552
2.112838
0.6698291
0.9243316
2.187075
2.462898
3.018024
3.680182
4.429605
5.365243
6.532898
7.399645
6.634923
6.185807
6.149221
6.204661
6.252146
6.252438
6.247695
6.297149
6.418763
6.591701
6.777907
6.933132
7.044722
7.102884
7.063058
6.636057
6.028246
5.656756
4.785506
4.057877
3.660493
3.210744
2.704634
2.465114
1.056118
1.002794
2.297475
2.603917
3.139037
3.771977
4.46171
5.314362
6.363496
6.935681
6.417571
6.118135
6.165974
6.286363
6.352824
6.276828
6.073575
5.843963
5.683971
5.645346
5.743287
5.957455
6.219645
6.401541
6.382697
6.120835
5.62311
4.979849
4.312841
3.770631
3.531947
3.283285
2.861523
2.488931
1.071364
1.023841
2.337047
2.652322
3.172739
3.782389
4.438964
5.189833
6.031725
6.532439
6.438785
6.385908
6.445961
6.595458
6.707108
6.640688
6.368143
6.007433
5.707233
5.55538
5.572803
5.722587
5.923569
6.073466
6.081269
5.896733
5.531413
5.066358
4.663173
4.287362
3.913532
3.487059
2.945071
2.431482
1.03027
0.9853962
2.305012
2.633248
3.144326
3.730731
4.355706
4.984288
5.655179
6.168844
6.353915
6.565918
6.826499
7.032597
7.198636
7.17315
6.875068
6.419976
5.998929
5.730592
5.647323
5.720251
5.878995
6.035268
6.106432
6.03822
5.904809
5.671235
5.348324
4.928326
4.399833
3.767578
3.015448
2.350088
0.962025
0.6212577
1.937586
2.359468
2.919891
3.522841
4.138248
4.693643
5.228069
5.671024
5.96938
6.310586
6.799464
7.314437
7.691943
7.783142
7.514392
7.001034
6.477357
6.094098
5.895474
5.866106
5.952483
6.078016
6.159975
6.223204
6.179801
6.016958
5.718224
5.245855
4.580366
3.744913
2.784591
1.993693
0.6018295
1.539514
2.061125
2.571372
3.231704
3.865308
4.407089
4.822213
5.189873
5.463576
5.783186
6.304467
7.006082
7.747419
8.238474
8.13582
7.620411
7.02297
6.543689
6.232352
6.07729
6.039615
6.060217
6.092695
6.13141
6.077559
5.911227
5.599643
5.087242
4.338436
3.36243
2.486629
1.60554
1.370219
3.019453
3.202879
3.644199
4.122869
4.569401
4.907204
5.138395
5.323135
5.489552
5.791264
6.345808
7.158811
8.051957
8.484038
8.131996
7.512428
6.974126
6.586182
6.323261
6.145734
6.015242
5.945364
5.900486
5.78385
5.575602
5.255392
4.805573
4.240801
3.591804
3.07025
1.375446
1.172919
2.661143
3.054987
3.567402
4.080986
4.553408
4.923673
5.147568
5.263071
5.338295
5.418336
5.691881
6.314651
7.238317
8.120087
8.325721
7.828639
7.271132
6.855052
6.545065
6.273086
6.01705
5.840133
5.713838
5.519374
5.226463
4.810158
4.271515
3.648223
3.020374
2.611492
1.137216
0.6820415
1.989082
2.456678
2.935977
3.534251
4.070443
4.494024
4.761326
4.849832
4.859456
4.893865
5.057011
5.499861
6.262017
7.17942
7.862264
7.835338
7.337848
6.911616
6.610563
6.317165
6.005312
5.760378
5.580035
5.335629
4.990036
4.511371
3.891199
3.160668
2.492008
1.889662
0.6316506
1.327991
2.836944
3.135466
3.495244
3.946382
4.315806
4.560896
4.655562
4.625676
4.603015
4.64851
4.885725
5.396783
6.139047
6.889869
7.312148
7.111259
6.681618
6.407891
6.185644
5.865491
5.583871
5.358029
5.057725
4.680394
4.220129
3.654902
3.160971
2.649772
1.223498
0.6978448
1.867556
3.208658
3.410167
3.711228
3.979393
4.150544
4.221261
4.1821
4.112864
4.105435
4.246296
4.612866
5.190834
5.845905
6.374281
6.517997
6.208027
5.949409
5.861759
5.556753
5.253516
4.990731
4.589742
4.125068
3.650272
3.169562
2.99977
1.708016
0.6222742
0.824427
2.090208
2.426767
2.73598
3.051602
3.278628
3.406962
3.433554
3.400146
3.438187
3.602144
3.930724
4.398549
4.924507
5.397176
5.667827
5.56848
5.316009
5.391363
5.114271
4.791173
4.546328
4.068607
3.472236
2.928221
2.378054
1.885368
0.7121841
0.9055834
2.202165
2.428135
2.622082
2.815259
2.946827
3.002074
3.007305
3.04695
3.195532
3.452921
3.789822
4.162917
4.521794
4.788069
4.810968
4.601444
4.832059
4.619158
4.189345
4.047191
3.592266
2.866217
2.460338
2.036719
0.788614
0.9137428
2.153154
2.289095
2.46806
2.5817
2.688343
2.74595
2.801199
2.908858
3.071701
3.268549
3.494377
3.751473
3.997972
4.083233
3.91045
4.194543
4.071403
3.489412
3.472029
3.161759
2.313046
2.022154
0.8184755
0.8588236
1.926155
2.891384
2.766221
2.740081
2.693077
2.670911
2.680694
2.719652
2.801285
2.942926
3.148281
3.355202
3.399993
3.186504
3.525322
3.455292
2.794753
2.95189
2.870908
1.869401
0.7874455
0.7342383
1.633719
2.390514
2.203669
2.19505
2.251812
2.28038
2.305562
2.378485
2.510144
2.672758
2.805801
2.754264
2.44309
2.920042
2.828615
2.25957
2.51744
1.632301
0.7122756
0.5910843
1.091418
1.606577
2.122947
2.408828
2.003806
1.954641
2.056967
2.183372
2.289752
2.334354
2.15421
1.879732
2.638432
2.340706
1.737765
1.158319
0.5975387
0.5670761
0.9586627
1.112915
1.254827
1.62231
1.96996
2.045914
2.06224
2.013532
1.668881
1.320188
1.179359
1.009176
0.5802619
0.5223652
0.8438331
0.8957636
0.8992446
0.8509033
0.5260088
0.8423699
1.538074
1.852764
2.049561
2.137478
2.152015
2.100551
1.930522
1.660414
0.9218488
0.8416799
1.624439
2.10736
2.897185
3.907333
2.907571
3.170365
3.305065
3.325073
3.279572
3.257572
4.187657
3.134092
2.204815
1.667112
0.870473
1.124562
2.577989
2.372452
3.012451
3.856193
4.674848
4.159393
4.864135
5.092622
5.122954
5.031054
4.737965
5.198151
4.086348
3.156613
2.551858
2.757853
1.192327
0.8086358
1.690013
1.801884
2.990861
3.119118
4.140813
5.062868
5.834477
5.783786
6.489273
6.789161
6.85116
6.761254
6.527816
6.662286
5.63575
4.68796
3.696565
3.702473
2.20497
1.88922
0.9061435
0.8073897
2.108574
2.051283
2.279966
3.480294
3.907739
4.935082
5.829512
6.528045
6.745346
7.484113
7.926186
8.133318
8.148231
7.987661
7.966675
7.109512
6.264241
5.325461
5.12305
3.317732
2.942206
2.515053
0.9783521
0.7558935
2.013415
2.186107
2.302972
2.726234
3.714671
4.175252
5.054752
5.83263
6.406788
6.700351
7.506265
8.156098
8.65476
8.979607
9.064596
9.10133
8.407157
7.656984
6.807237
6.536576
4.904226
4.087448
3.497305
2.588531
0.9672797
0.6957014
1.863387
2.100735
2.326449
2.585731
2.991375
3.758495
4.200947
4.963851
5.617263
5.968454
6.238838
7.017836
7.738892
8.416061
9.025873
9.438911
9.819208
9.411167
8.82004
8.0664
7.739806
6.395073
5.517466
4.407263
3.425078
2.472524
0.8901464
0.6129227
1.688348
1.983588
2.282188
2.636392
2.945481
3.401415
4.197324
4.637571
5.354204
5.926854
6.063464
6.144642
6.627934
7.156168
7.736439
8.385853
8.995856
9.703635
9.736582
9.468513
8.943469
8.620213
7.477176
6.539702
5.301001
3.952489
3.021381
2.187372
0.757566
1.180077
1.801167
2.196157
2.686778
3.181535
3.708496
4.383633
5.426638
6.184105
7.029395
7.618643
7.724079
7.555076
7.451133
7.403885
7.480071
7.745631
8.150065
8.793096
9.251679
9.358045
9.145153
8.890437
7.908186
6.875517
5.583983
4.242504
3.262854
2.615633
1.477613
0.7460589
1.446173
2.009387
2.611258
3.292341
4.070683
4.968246
6.167064
7.794032
9.366791
10.70444
11.46236
11.51387
10.9998
10.18338
9.270818
8.462115
7.922433
7.704009
7.877868
8.27984
8.569086
8.618729
8.555075
7.814587
6.768613
5.541424
4.357992
3.64953
2.82358
1.811918
0.8682994
0.5431261
1.695576
1.745949
2.399002
3.168067
4.069542
5.218429
6.65337
8.622659
10.99816
13.01181
14.2165
14.74325
14.71236
14.02608
12.84266
11.40544
9.962227
8.727336
7.843658
7.403684
7.401665
7.580762
7.702713
7.781566
7.368057
6.535918
5.610562
4.732674
4.130673
3.533266
2.179182
2.089362
0.6303698
1.000165
1.667751
2.103293
2.86024
3.786247
4.942303
6.429415
8.368687
10.68676
12.4379
13.10621
13.26726
13.29334
13.28092
13.17474
12.54154
11.44658
10.18899
8.958349
7.920082
7.188735
6.840193
6.789177
6.855901
7.029178
6.985031
6.630673
6.220931
5.814281
5.161428
4.108774
3.093629
1.953537
1.34191
1.254354
1.772353
2.454946
3.320847
4.375426
5.750327
7.451097
9.420716
10.9248
11.54322
11.82441
11.84046
11.7527
11.7195
11.77789
11.80221
10.95263
9.871507
8.836382
7.915409
7.18186
6.696926
6.487703
6.519711
6.844511
7.243189
7.561332
7.632229
7.524454
6.898784
5.38526
4.64963
2.655586
1.921442
0.5335579
1.75646
2.064759
2.809296
3.741667
4.866808
6.338501
7.966167
9.391828
10.18624
10.87338
11.01665
10.58951
10.18634
10.06428
10.16103
10.44018
10.57863
9.849553
8.970429
8.203378
7.580708
7.151099
6.993972
7.213562
7.931987
8.883028
9.540043
9.354092
8.383971
7.271038
5.679659
5.06232
3.047508
2.664345
0.7336701
0.9446019
2.351598
2.485296
3.18824
4.112162
5.215984
6.608524
7.904094
8.847856
9.732104
10.50668
9.723623
8.910803
8.582697
8.603061
8.864936
9.317293
9.914033
10.13657
9.792658
9.230622
8.826312
8.833934
9.221942
10.03838
10.78875
10.93887
10.21942
8.917776
7.415336
6.31972
5.259081
4.453924
3.127085
3.320202
1.224833
1.120534
1.797914
2.487357
3.348734
4.300423
5.358092
6.599247
7.622092
8.431913
9.562899
9.562956
8.275347
7.753731
7.657376
7.752132
7.970436
8.340088
8.887118
9.551872
10.18204
10.56978
10.82882
11.07667
11.10446
10.76188
9.958658
9.019884
8.119895
7.173875
6.244413
5.644115
5.095783
4.534705
3.411017
3.341885
1.297606
1.248975
1.742272
2.50827
3.391117
4.327904
5.325168
6.438187
7.325308
8.125275
9.110686
8.561796
7.52775
7.332052
7.385183
7.440633
7.404742
7.323214
7.304048
7.409054
7.633268
7.933788
8.244072
8.514263
8.700212
8.753948
8.428956
7.806311
7.171517
6.185087
5.401946
5.258296
5.048681
4.541959
3.532801
2.795419
1.30967
1.315557
1.772391
2.529388
3.384881
4.266626
5.190883
6.183581
7.023452
7.772611
8.485657
8.176764
7.450461
7.405091
7.595108
7.744574
7.687711
7.419364
7.086451
6.853872
6.810749
6.973507
7.304883
7.711066
8.032539
8.108258
7.850885
7.279573
6.537164
5.823983
5.399034
5.216214
5.060428
4.489643
3.475166
2.345723
1.269358
1.345126
1.802241
2.547811
3.369064
4.181086
5.024579
5.905402
6.730593
7.397327
7.909668
7.88989
7.722767
7.740366
7.992823
8.25968
8.281178
7.974018
7.493581
7.080468
6.884562
6.937522
7.18257
7.505843
7.768657
7.848603
7.683463
7.301715
6.811971
6.322321
6.004395
5.704208
5.287734
4.538359
3.420144
2.145981
1.23442
1.337289
1.801298
2.539424
3.34633
4.102287
4.867744
5.676095
6.470173
7.063712
7.468014
7.583856
7.703831
8.017849
8.441258
8.849424
9.025489
8.769833
8.205019
7.635375
7.274294
7.180212
7.306671
7.550468
7.791712
7.930614
7.915204
7.759564
7.580162
7.327212
6.979319
6.487167
5.781908
4.819863
3.527676
2.127147
1.204258
1.26431
1.755784
2.365169
3.237557
4.000721
4.716078
5.459171
6.178987
6.757414
7.092657
7.221538
7.372043
7.794634
8.483328
9.247262
9.727146
9.662095
9.108344
8.427035
7.907788
7.647163
7.620687
7.745436
7.917439
8.044856
8.075355
8.114222
8.066265
7.901988
7.578204
7.036291
6.20026
4.977598
3.386115
2.138488
1.141032
1.102202
2.759426
2.957183
3.578219
4.179981
4.766745
5.397718
6.04087
6.600952
6.902518
6.987284
7.040317
7.335822
7.984741
8.940471
9.944897
10.35352
9.975269
9.267667
8.636189
8.227129
8.033765
7.992196
8.015777
8.017683
7.988567
7.984969
7.898847
7.70072
7.358074
6.833004
6.077188
5.041275
3.760801
2.699706
0.9984447
0.6346588
2.137437
2.667669
3.451602
4.150769
4.754909
5.347776
5.947813
6.480067
6.871098
7.015153
7.01668
7.06966
7.395315
8.140958
9.278136
10.34966
10.52498
9.949328
9.288152
8.795284
8.479433
8.284095
8.145367
7.988884
7.805696
7.67002
7.447433
7.107603
6.627922
5.980817
5.129215
4.069929
2.904333
2.088183
0.5771376
1.610742
2.258775
3.156435
3.993605
4.675026
5.274452
5.850603
6.37162
6.761662
7.002556
7.009025
6.902687
6.909931
7.288771
8.181256
9.412032
10.33069
10.26451
9.6954
9.19603
8.840294
8.561484
8.317695
8.06002
7.757847
7.507163
7.175551
6.713612
6.106621
5.338167
4.389509
3.306784
2.258717
1.558482
1.306427
1.912505
2.621338
3.574038
4.378975
5.038916
5.613242
6.108024
6.468477
6.659673
6.677248
6.526619
6.392645
6.514623
7.090756
8.122233
9.274868
9.922228
9.728429
9.291197
8.961348
8.671352
8.386035
8.087164
7.729568
7.407325
7.008513
6.458942
5.747514
4.87416
3.854044
2.76334
1.929442
1.201912
0.7108229
2.206262
2.665596
3.405448
4.142091
4.774705
5.301424
5.720551
5.998599
6.114472
6.115444
5.97753
5.81466
5.807877
6.143354
6.903452
7.944299
8.879986
9.24603
9.030662
8.765852
8.509375
8.216692
7.898549
7.520481
7.154408
6.707211
6.08752
5.289756
4.349542
3.374412
2.51669
2.042785
0.6275248
1.00058
1.704199
2.347178
3.185985
3.951858
4.547147
4.960701
5.222
5.327856
5.298031
5.201051
5.074712
5.055057
5.290739
5.86525
6.722242
7.638998
8.274568
8.410689
8.292221
8.092198
7.799171
7.456277
7.071452
6.662919
6.171271
5.481405
4.593137
3.563146
2.560327
1.819498
0.8806135
1.614376
2.160738
2.704893
3.392912
3.967115
4.363029
4.594111
4.683089
4.637786
4.538017
4.422484
4.400538
4.584628
5.033002
5.719378
6.513818
7.181714
7.507458
7.591942
7.491162
7.198447
6.811351
6.452996
5.97043
5.454302
4.724655
3.824821
2.827678
2.026678
1.353651
0.7979857
2.153719
2.452105
2.810417
3.273379
3.654453
3.905729
4.028922
4.026908
3.934329
3.862198
3.861325
4.016929
4.372049
4.916242
5.568712
6.164933
6.529675
6.724406
6.739625
6.478728
6.079017
5.745556
5.114361
4.591725
3.858818
3.041562
2.305811
1.816091
0.6429619
0.8501109
2.208601
2.448502
2.737484
3.101394
3.363354
3.511161
3.53978
3.474747
3.394921
3.396859
3.526944
3.814906
4.250412
4.767692
5.247127
5.558202
5.781333
5.899828
5.757993
5.329081
4.981066
4.138483
3.626666
2.97158
2.399834
1.906935
0.6856653
0.8456717
2.154694
2.288113
2.469715
2.711425
2.886139
2.972193
2.973752
2.940819
2.946791
3.077666