/*--------------------------------*- C++ -*----------------------------------*\
  =========                 |
  \\      /  F ield         | OpenFOAM: The Open Source CFD Toolbox
   \\    /   O peration     | Website:  https://openfoam.org
    \\  /    A nd           | Version:  6
     \\/     M anipulation  |
\*---------------------------------------------------------------------------*/
FoamFile
{
    version     2.0;
    format      ascii;
    class       volScalarField;
    location    "49.8";
    object      Co;
}
// * * * * * * * * * * * * * * * * * * * * * * * * * * * * * * * * * * * * * //

dimensions      [0 0 0 0 0 0 0];

internalField   nonuniform List<scalar> 
140018
(
0.07047497
0.06422217
0.06359556
0.06481831
0.06867465
0.05092987
0.05735893
0.06039723
0.06018518
0.05964767
0.06540966
0.05823901
0.03857466
0.04451074
0.04298642
0.03788374
0.04612559
0.05117474
0.05398218
0.05425364
0.05238365
0.04975732
0.0575738
0.0510893
0.03516379
0.03313444
0.03133165
0.02971237
0.02599989
0.02964449
0.03911966
0.04313701
0.04394303
0.04262381
0.04027295
0.03789883
0.03629495
0.03335337
0.02883554
0.03101595
0.02926118
0.02489076
0.01622205
0.009452514
0.01489417
0.02192724
0.02453261
0.02486561
0.02427202
0.02379587
0.02360038
0.02494174
0.03817372
0.04150286
0.04501586
0.04625587
0.04584878
0.04281488
0.03545223
0.02684781
0.02325981
0.02435199
0.02419912
0.0225057
0.01833153
0.01427924
0.01417307
0.02803881
0.04232301
0.04797285
0.05116918
0.05389416
0.05493666
0.05385186
0.05004024
0.04322166
0.03450293
0.03065631
0.02575205
0.02009086
0.01356998
0.01379656
0.02105749
0.03046248
0.03063466
0.03924824
0.04705281
0.05192926
0.05515163
0.05642036
0.05566235
0.05255546
0.04767813
0.04149346
0.03480306
0.02847821
0.02360344
0.02033824
0.01928576
0.02066566
0.02652554
0.04098542
0.0279708
0.03749478
0.04562032
0.05220147
0.05620401
0.05789063
0.05751988
0.05548101
0.05240285
0.04855069
0.04455793
0.04115723
0.03881228
0.03737588
0.03711243
0.03783499
0.03862143
0.04496579
0.02093947
0.03269172
0.04357199
0.05203001
0.05712882
0.05946434
0.05964561
0.05860806
0.05685581
0.05474074
0.0525149
0.0508769
0.04969066
0.04920514
0.04938917
0.04967775
0.05557313
0.0650022
0.01694914
0.02034258
0.03778809
0.04907797
0.0560317
0.05948278
0.06048892
0.06023766
0.05933842
0.05824529
0.0572772
0.05664437
0.05611513
0.05615384
0.05636206
0.05989902
0.06458918
0.08378269
0.02378311
0.02853633
0.0402311
0.05097477
0.05675817
0.05917312
0.05984323
0.05987545
0.05969828
0.05944478
0.05911893
0.05904258
0.05926503
0.06100703
0.06678384
0.07338262
0.04729767
0.0354619
0.03430371
0.04069855
0.05019982
0.05516985
0.05727334
0.05828644
0.05881234
0.05909311
0.05924198
0.0594765
0.06013
0.06384299
0.06834372
0.08795549
0.04829584
0.04373331
0.03942643
0.04140831
0.04786519
0.05236916
0.05488814
0.05631362
0.05716955
0.05766758
0.05827063
0.06060012
0.06557919
0.07068655
0.06956387
0.05144624
0.04609221
0.03941753
0.03972383
0.04488258
0.04952805
0.052036
0.05358451
0.05540669
0.05830245
0.06198245
0.06524731
0.082223
0.06367606
0.05369493
0.04546906
0.03988712
0.03803216
0.04240891
0.04723366
0.05124696
0.05532073
0.05759671
0.06270103
0.0748961
0.05669925
0.04665301
0.03904713
0.03975811
0.04500712
0.04894526
0.05469695
0.06613501
0.05251533
0.04454732
0.0454966
0.05530077
0.02896335
0.02937835
0.03203661
0.03488757
0.03828021
0.04266524
0.04854486
0.05576618
0.06398765
0.07805559
0.02400529
0.02328252
0.02730632
0.03203977
0.03567724
0.03839133
0.04049704
0.04220499
0.04469942
0.04875769
0.05379832
0.06239119
0.07508927
0.08076063
0.03373388
0.02856014
0.03301351
0.0360282
0.03932546
0.04209905
0.04853109
0.04979834
0.05045154
0.04900936
0.05202955
0.05403834
0.05617657
0.05934302
0.06580121
0.07638746
0.0365571
0.03396797
0.03769789
0.04148178
0.04379014
0.04353428
0.05127139
0.05431258
0.05659837
0.05644377
0.05378854
0.05860814
0.05592348
0.05809618
0.05889273
0.05960342
0.06229757
0.06911395
0.03267078
0.03232587
0.03736983
0.04216918
0.04361806
0.04837452
0.04805149
0.05114675
0.05217778
0.05657553
0.05783362
0.05881707
0.06179928
0.05505509
0.06051088
0.05742581
0.05790249
0.05702036
0.05612037
0.05869533
0.02722805
0.02738884
0.0332848
0.03746281
0.04027417
0.03943727
0.04536847
0.0433604
0.03857314
0.04186431
0.049095
0.05379665
0.05610862
0.05579334
0.05531436
0.05866393
0.05224233
0.05358345
0.05312005
0.05219938
0.04945542
0.05537315
0.02505859
0.02750188
0.03157208
0.03165366
0.03241989
0.03582319
0.03443923
0.03152411
0.02796338
0.02637319
0.03563522
0.04203166
0.04560405
0.04710123
0.04794422
0.04753294
0.04744956
0.04364406
0.04541841
0.04686944
0.04796561
0.05957412
0.02442458
0.02090042
0.02526601
0.02524864
0.02686737
0.02962281
0.03356161
0.03484291
0.03284727
0.02705346
0.01683705
0.01368203
0.02100839
0.02668009
0.0300508
0.03251859
0.03409354
0.03535301
0.03741471
0.03850587
0.0400837
0.04475531
0.05677625
0.07381666
0.02027324
0.01944192
0.02050273
0.02329029
0.03138605
0.03984877
0.04825953
0.0518389
0.05267984
0.0506441
0.045154
0.03504753
0.02979903
0.02599258
0.02535407
0.0239067
0.02072462
0.0206544
0.02577294
0.03298997
0.04142483
0.04811351
0.05609098
0.0665096
0.02066012
0.01655824
0.01672089
0.02560569
0.03726623
0.04770858
0.05470066
0.05892504
0.06075188
0.06022185
0.05704277
0.05113505
0.04299266
0.03542568
0.03058444
0.02507577
0.0189827
0.0192829
0.02534353
0.03430817
0.03996228
0.03971736
0.04304998
0.04381726
0.02455085
0.01336444
0.01298913
0.02200133
0.03492743
0.04756489
0.05534757
0.0600445
0.06214425
0.06195888
0.05960981
0.05542707
0.04982319
0.04351198
0.03729708
0.03214042
0.02869626
0.02734353
0.02772104
0.02751257
0.02688506
0.02591132
0.02801683
0.02632436
0.03249372
0.01654927
0.009827377
0.01402258
0.03080898
0.04459565
0.05430955
0.06011221
0.06280494
0.06310383
0.06167105
0.05899127
0.05554375
0.051855
0.04858725
0.04620283
0.0448722
0.04456947
0.0447132
0.04378781
0.0453753
0.04743705
0.05010593
0.05504655
0.04282063
0.02841711
0.01948337
0.01180344
0.02219941
0.03818556
0.05124268
0.05914725
0.06306088
0.06423837
0.06380858
0.06244792
0.06062911
0.058692
0.05713782
0.05600292
0.05545324
0.05511336
0.0539621
0.0570863
0.06260749
0.06313676
0.06504731
0.07061233
0.05292974
0.03976615
0.03030155
0.02032784
0.01774644
0.02985217
0.04323559
0.05506087
0.0612292
0.06382156
0.06444784
0.06411636
0.0633854
0.06259757
0.06193007
0.06138219
0.06096458
0.05990909
0.06238544
0.06581712
0.07504161
0.06898665
0.07142803
0.0778251
0.06165959
0.04877868
0.04015706
0.03474658
0.02641612
0.03222575
0.03680094
0.04525699
0.05572369
0.06076164
0.06289152
0.06371402
0.06389895
0.06381266
0.06360404
0.06334255
0.06270963
0.06314378
0.06797347
0.0726807
0.07916815
0.06915998
0.07277751
0.07980296
0.06958464
0.05618854
0.04903811
0.04359094
0.04138959
0.0370466
0.04120289
0.04254982
0.04646022
0.0542066
0.05875293
0.06102618
0.06213596
0.06269691
0.06289049
0.06272186
0.06209541
0.0654739
0.06820341
0.07702164
0.07132039
0.07053067
0.07268969
0.07997804
0.08419951
0.06723779
0.05490109
0.04924716
0.05185825
0.04636375
0.04563761
0.04656542
0.04461635
0.04569524
0.05166041
0.0562226
0.058506
0.05967224
0.06005928
0.05992726
0.06162388
0.06566582
0.0697887
0.07617469
0.06643529
0.06842467
0.06951387
0.08771766
0.07969746
0.058711
0.05309023
0.05031441
0.0580566
0.05028964
0.04863411
0.04605218
0.04259481
0.0429806
0.04885966
0.0527042
0.05441221
0.0556174
0.0579081
0.06097147
0.06292718
0.07002947
0.06580228
0.06544827
0.06718737
0.06959422
0.08968303
0.06943527
0.05633557
0.05303281
0.05929583
0.05589336
0.05350817
0.04627738
0.0439467
0.03888219
0.0394521
0.04521518
0.04903958
0.05305928
0.05508504
0.05945879
0.06361228
0.06562663
0.05904747
0.06284986
0.06442132
0.0803774
0.08875921
0.0658832
0.05695959
0.05307114
0.0559733
0.05505316
0.05110183
0.04621296
0.03983714
0.03649779
0.03845351
0.04472192
0.04964062
0.05604815
0.05886097
0.05540956
0.05374458
0.05771165
0.05882419
0.06480817
0.08540748
0.06453597
0.05621824
0.05325669
0.04913102
0.05014565
0.04981382
0.04633421
0.04083081
0.03808494
0.04367899
0.04874536
0.04657924
0.04665169
0.04971429
0.05181138
0.05318677
0.05830329
0.08099461
0.06221739
0.05389745
0.0506121
0.04807831
0.04413283
0.04369379
0.04152405
0.03881052
0.03517637
0.03599657
0.04089339
0.04331716
0.0463554
0.04838661
0.0527843
0.07772051
0.05710586
0.05331043
0.0486645
0.04647486
0.045155
0.043903
0.04179158
0.03882216
0.03607363
0.03738152
0.0399616
0.04401952
0.05535745
0.06397139
0.05085055
0.04899381
0.04857964
0.04860044
0.04805553
0.04698683
0.04542264
0.04414486
0.04929312
0.07622108
0.07141684
0.07243992
0.07467463
0.07738207
0.07997252
0.08297073
0.09832075
0.06556967
0.06146319
0.06268605
0.05831078
0.05596068
0.05714567
0.05936086
0.06230181
0.06560113
0.06915531
0.07467143
0.07725839
0.07768559
0.09006259
0.05645994
0.04857343
0.04306535
0.041799
0.04351743
0.0438316
0.04528795
0.04784649
0.05126549
0.05510837
0.05854123
0.06157999
0.0617641
0.06423248
0.07454661
0.09060636
0.05427473
0.04714659
0.03731476
0.03296797
0.03115855
0.02791836
0.02844302
0.02955826
0.0317776
0.03584784
0.04102935
0.04715499
0.05350678
0.05893564
0.06353716
0.06735214
0.06558218
0.07047272
0.08135827
0.08258654
0.04796026
0.03620236
0.02646657
0.02529684
0.0244669
0.02442703
0.02747715
0.03238789
0.03538365
0.03746545
0.03949037
0.04184035
0.0448637
0.04836914
0.05320852
0.06071364
0.06633372
0.06352776
0.06253088
0.06376792
0.06569405
0.07360461
0.04421925
0.0310631
0.02348099
0.02340732
0.0229727
0.02440901
0.02975216
0.03475836
0.04022549
0.04416768
0.04689873
0.0488596
0.05036363
0.0519755
0.05409624
0.05594869
0.05711621
0.05881982
0.06412492
0.06363342
0.05994291
0.058174
0.05640154
0.05613302
0.03058225
0.02496187
0.02395372
0.0219303
0.02325118
0.03101101
0.03660271
0.04095957
0.04410682
0.05050409
0.05466219
0.05674953
0.05810327
0.05975081
0.06033144
0.06068091
0.06142071
0.06143138
0.06102854
0.06194389
0.0596684
0.05450125
0.05093591
0.05218394
0.0343064
0.02648214
0.02605353
0.02148226
0.02156485
0.03007896
0.03745507
0.04188032
0.0442221
0.04441677
0.04672007
0.05426819
0.05889912
0.06208148
0.06390407
0.06359239
0.06410143
0.06388954
0.06316886
0.06264864
0.06081299
0.05910444
0.05536143
0.04925678
0.04343413
0.0451736
0.04360179
0.03318395
0.02841035
0.0232609
0.01915189
0.02862153
0.0361593
0.04094621
0.04326876
0.04377508
0.04150855
0.03790179
0.04289786
0.05230119
0.05822178
0.06143461
0.06251518
0.06295274
0.06232358
0.06226023
0.06136867
0.05998577
0.05771549
0.05431167
0.04974077
0.04637656
0.04474427
0.0490329
0.04140748
0.03252031
0.02968518
0.01967151
0.02408247
0.03232978
0.03629217
0.03804241
0.03820164
0.03674529
0.03388404
0.03032291
0.02843708
0.03690713
0.04534752
0.05048911
0.05353107
0.05536747
0.05604247
0.05610328
0.05562565
0.05519165
0.05462152
0.0546273
0.05728993
0.05232561
0.05242965
0.06014867
0.03987568
0.03292924
0.02804242
0.01775936
0.02656174
0.03112213
0.03144033
0.03166754
0.03540144
0.03902823
0.03877522
0.03463968
0.02553602
0.01900081
0.02350934
0.03135112
0.03634324
0.03993255
0.04242003
0.04408535
0.04551529
0.04699641
0.05004151
0.05392364
0.0595455
0.06108913
0.06189675
0.0746696
0.0569148
0.04106575
0.03514901
0.02674069
0.0194243
0.02584298
0.02592932
0.03014397
0.0414859
0.05075833
0.05616608
0.05823317
0.05720392
0.05283588
0.04354541
0.03566187
0.03006724
0.02826178
0.02707631
0.02665887
0.02943127
0.03477663
0.04166609
0.05064564
0.05691424
0.06064316
0.06180362
0.05611601
0.06020214
0.063466
0.05364717
0.04491244
0.03737809
0.02842846
0.02017691
0.0226805
0.02403571
0.03401286
0.04773628
0.05732248
0.06309107
0.06581308
0.0659294
0.0634336
0.05820304
0.05061067
0.04184196
0.03621614
0.03087652
0.02529231
0.02624002
0.03308598
0.03885699
0.0442042
0.04684129
0.04526549
0.03768078
0.02594144
0.02017452
0.01856546
0.05612378
0.04760428
0.04118554
0.03269044
0.02295597
0.02063594
0.02029594
0.0324677
0.04754843
0.05794886
0.06416669
0.06711886
0.06749923
0.06569167
0.06200919
0.05683912
0.05086708
0.04469627
0.03923238
0.03521151
0.0329905
0.03195287
0.03160485
0.03095949
0.03129546
0.03029558
0.02557833
0.02094545
0.0200945
0.0307068
0.06012104
0.05157384
0.0462384
0.03919694
0.02869763
0.02515696
0.0194487
0.02642214
0.04338957
0.05600316
0.06360255
0.06734197
0.06827935
0.06726788
0.06493157
0.06174494
0.0582095
0.05482874
0.05206442
0.05011869
0.04896155
0.04821648
0.04712759
0.04600559
0.04665332
0.04662588
0.04881379
0.04438504
0.0389815
0.04657041
0.06432648
0.0560165
0.05187751
0.04680413
0.0363669
0.03369613
0.02851177
0.02301876
0.03468634
0.05060632
0.06103405
0.06651294
0.06859294
0.06860593
0.06750337
0.06583723
0.06396717
0.0622022
0.06068366
0.05945843
0.05826578
0.05656693
0.05590651
0.05851619
0.06150291
0.06299153
0.06388561
0.05873364
0.05258374
0.054373
0.06839389
0.06038006
0.05728321
0.05414763
0.04533476
0.04059702
0.03785367
0.02883204
0.03212399
0.04138779
0.05401684
0.06281196
0.06692203
0.06827339
0.06828318
0.06771142
0.06691546
0.06602903
0.06506736
0.06392268
0.0621404
0.06138534
0.06581456
0.06900469
0.07074659
0.0710611
0.07110572
0.06556415
0.06008074
0.05915274
0.07231356
0.06446541
0.06183734
0.06024357
0.05296943
0.04701721
0.04451602
0.0368154
0.03737402
0.04187833
0.04612704
0.05412941
0.06196598
0.06547704
0.06686231
0.06728511
0.067272
0.06694643
0.06627918
0.06501181
0.06357622
0.06699151
0.07107901
0.07320373
0.07361861
0.07341505
0.07313173
0.06742332
0.06348965
0.06338275
0.08324632
0.0718741
0.06566773
0.06455464
0.05891956
0.05339244
0.04975248
0.04380287
0.04135665
0.04671237
0.04927286
0.04840185
0.05234895
0.0596063
0.06304155
0.06464575
0.06541297
0.06559146
0.06514172
0.06375281
0.06464495
0.068947
0.07182117
0.0731231
0.07262233
0.07275164
0.07268275
0.0670487
0.06182959
0.07394903
0.08050308
0.06567828
0.066314
0.06558486
0.05878008
0.05449312
0.04896576
0.04696628
0.0492734
0.05280041
0.05243995
0.04832337
0.04992024
0.0566905
0.05993862
0.0615804
0.06222621
0.06196323
0.06191769
0.06425619
0.06796976
0.07015824
0.07073594
0.07057647
0.06914584
0.07497173
0.06431009
0.06235552
0.07982963
0.06702743
0.06804814
0.06934514
0.06209894
0.05752208
0.05339981
0.05132666
0.0521307
0.05343686
0.05393719
0.0515354
0.04642468
0.04737178
0.05302821
0.05570255
0.05680232
0.0578891
0.05929162
0.06219527
0.06500566
0.06676894
0.06713962
0.06804195
0.06862474
0.07339117
0.06254313
0.06722765
0.08833954
0.07436148
0.06609183
0.06966642
0.06653671
0.05997835
0.05677975
0.05576602
0.05444041
0.05404105
0.05268793
0.05170057
0.04780842
0.04320526
0.04377033
0.04798375
0.05153268
0.05398549
0.05597476
0.05860432
0.06097558
0.06248245
0.06364732
0.06360893
0.06916342
0.06329005
0.06138255
0.07317856
0.09094941
0.07029904
0.06623107
0.07094599
0.06375978
0.05912057
0.05743063
0.05503551
0.05474093
0.05303946
0.05067781
0.04725201
0.04294959
0.03917535
0.04146019
0.04620301
0.04929241
0.05182616
0.05407221
0.05602622
0.05785656
0.05834728
0.0639386
0.06477205
0.05498617
0.06089602
0.08179718
0.06204305
0.06518602
0.06960039
0.0612334
0.05838656
0.05544637
0.05414468
0.05284
0.05103289
0.04815404
0.04458385
0.03996362
0.03752286
0.04006367
0.04391277
0.04672549
0.04883418
0.05121516
0.05237593
0.05783419
0.0592727
0.05369876
0.05459143
0.08888276
0.06880027
0.05894413
0.06542623
0.06646323
0.05766984
0.05592528
0.0528076
0.05179311
0.05038035
0.04821364
0.04551272
0.04201083
0.03781666
0.03546399
0.03791459
0.04167246
0.04466507
0.04641286
0.05167941
0.05357677
0.04886744
0.04992865
0.0597997
0.08683689
0.06672834
0.05857852
0.06377596
0.05893488
0.05937359
0.05128965
0.05035234
0.04913592
0.04752767
0.04551383
0.04306758
0.04112497
0.03851566
0.03641794
0.037141
0.04030176
0.04643782
0.04801439
0.04416565
0.04547093
0.04851482
0.08586081
0.06256743
0.05904835
0.05973846
0.05756659
0.0522827
0.0503426
0.04820495
0.04735144
0.04708881
0.04669404
0.04586657
0.04433807
0.04198303
0.04189246
0.04137176
0.03828012
0.03730037
0.0409526
0.05190108
0.07399586
0.0594479
0.05149175
0.05225976
0.04931636
0.04755154
0.04712637
0.04720464
0.04722784
0.04692414
0.0461098
0.04499012
0.04183069
0.03968721
0.04205945
0.05002567
0.07113479
0.0547919
0.05227419
0.04865208
0.04813262
0.0474108
0.04764207
0.04813295
0.04838352
0.04848307
0.04978681
0.05413846
0.05144192
0.05514318
0.05604464
0.04993471
0.04940685
0.05038783
0.0517851
0.05287365
0.05394517
0.05725479
0.09143257
0.08533517
0.08551252
0.08647256
0.08878054
0.1019719
0.08181677
0.07543951
0.07435649
0.07937446
0.07847816
0.07615165
0.07725456
0.07874447
0.08048335
0.07842259
0.07444424
0.07636484
0.08014343
0.09079276
0.07375439
0.07203096
0.06597779
0.06751728
0.06493226
0.06466312
0.07013335
0.07187745
0.07371541
0.07571253
0.07751283
0.0788236
0.08480074
0.08478841
0.07430244
0.07318163
0.07775452
0.08253841
0.07159654
0.06092748
0.0566039
0.05766573
0.06198021
0.06386152
0.06206463
0.06092717
0.06210823
0.06414708
0.066747
0.06958054
0.07227452
0.07233047
0.07253591
0.07201411
0.07358545
0.07139203
0.07001997
0.08311167
0.066569
0.05673695
0.05480911
0.05353931
0.05447364
0.05172139
0.05073028
0.05011627
0.05002005
0.05118009
0.0534469
0.05647869
0.05997723
0.06351855
0.06634184
0.06748776
0.06802009
0.07141463
0.07176294
0.0692684
0.06838571
0.07732804
0.06203163
0.05054367
0.04914225
0.05175
0.0474791
0.04238199
0.04113806
0.04039304
0.04024478
0.04060634
0.04099936
0.04233349
0.04385223
0.04665227
0.05160433
0.05673882
0.06066594
0.06404197
0.06740178
0.07075781
0.0717336
0.06420214
0.06033326
0.06917826
0.05726189
0.04589586
0.04476152
0.04335099
0.03769182
0.0346894
0.03255662
0.03187452
0.03407584
0.03801503
0.0412047
0.04361952
0.04566154
0.04747578
0.04898982
0.05002005
0.05160546
0.05603035
0.05970802
0.06273691
0.06470463
0.06430448
0.06353902
0.05867981
0.05196006
0.05757304
0.05297488
0.03897085
0.03727027
0.0367918
0.0304505
0.02773388
0.0283674
0.03130332
0.03535003
0.03991983
0.04474881
0.04896307
0.05217416
0.05452877
0.0562772
0.05768196
0.05882837
0.05924871
0.05832191
0.05664817
0.05810474
0.05945276
0.05896022
0.05673281
0.05403768
0.04538695
0.04032549
0.04084741
0.04953121
0.0369524
0.03623952
0.03418043
0.02842906
0.0275477
0.02836275
0.02936104
0.03175534
0.03562849
0.04084745
0.04701653
0.05304993
0.05791979
0.06161547
0.06392913
0.06519409
0.06581371
0.06599558
0.0654598
0.06379806
0.06123059
0.0581484
0.05584706
0.05325336
0.05005771
0.0491485
0.04109994
0.03431072
0.03333964
0.03837034
0.04049673
0.03744532
0.03139972
0.02951067
0.02857309
0.02772832
0.02955991
0.03521625
0.03975627
0.0434387
0.0462419
0.05066751
0.05832889
0.06434014
0.0680287
0.06975706
0.0702287
0.07032105
0.06978214
0.06834769
0.06606891
0.06284124
0.05928228
0.05586903
0.05149748
0.04506638
0.03950558
0.03256494
0.03425906
0.04609931
0.03965349
0.04085897
0.03614638
0.03227375
0.0294807
0.02761811
0.02744771
0.03359533
0.04087219
0.04456333
0.04541277
0.04388613
0.04306256
0.0487108
0.05818593
0.06420734
0.06763874
0.06931218
0.070053
0.06995282
0.06910078
0.067222
0.06447451
0.0613109
0.05802242
0.05458573
0.04984774
0.04468115
0.03858081
0.03627792
0.03944788
0.04701565
0.04466478
0.04239976
0.03787169
0.03261142
0.02916886
0.02515965
0.03058039
0.03803246
0.04131765
0.04176846
0.0403303
0.03770149
0.03439869
0.03322339
0.04124563
0.05074902
0.05663848
0.06041061
0.06278841
0.06401315
0.06415227
0.0632969
0.06197951
0.06078779
0.06000749
0.05929536
0.05790298
0.05621235
0.05385745
0.05040307
0.04999733
0.04634747
0.04999559
0.04451132
0.03877655
0.03253194
0.02836567
0.02501962
0.03287389
0.03593084
0.0352529
0.03752227
0.04209358
0.04305885
0.04003492
0.0316245
0.02424176
0.02810844
0.03740924
0.04343047
0.04776372
0.05088131
0.05288519
0.05436432
0.05600686
0.0585612
0.06196095
0.06508059
0.06740731
0.06787808
0.06678393
0.05795889
0.05894518
0.04850484
0.05146957
0.04460503
0.0404516
0.03317395
0.02887559
0.02663471
0.03061538
0.03355017
0.04214855
0.05267025
0.05933269
0.06245971
0.06231654
0.05879142
0.05009393
0.04076264
0.03493483
0.03199875
0.03127783
0.03352453
0.03874329
0.0443174
0.05029195
0.05798845
0.06475721
0.06794109
0.06610521
0.06218333
0.05969211
0.05043244
0.05315328
0.06431512
0.05139636
0.05292491
0.04869223
0.04280197
0.0348476
0.03067548
0.02645724
0.02616521
0.03334839
0.04808814
0.05925451
0.06633152
0.06997923
0.07078085
0.06891103
0.06420656
0.05699324
0.04822122
0.04154954
0.03628523
0.03162914
0.03359184
0.04067009
0.04595866
0.05074671
0.05342661
0.05137216
0.04241205
0.03355677
0.03170411
0.02620041
0.02653702
0.03583479
0.06147112
0.05689376
0.05562043
0.05182336
0.04636356
0.0377924
0.03404696
0.02946705
0.02489091
0.03135706
0.04758522
0.05982579
0.06748153
0.07140292
0.07243187
0.07112736
0.06783785
0.0629575
0.05710643
0.05085822
0.04501082
0.04031843
0.03711738
0.03496791
0.03367796
0.03251078
0.03135323
0.02814837
0.0205742
0.01353251
0.0193317
0.02909958
0.03385582
0.03937161
0.06342725
0.05928914
0.05900096
0.05564629
0.05099357
0.04269535
0.03838545
0.0365667
0.03107017
0.02799004
0.04195073
0.05705972
0.06642382
0.07136762
0.07307598
0.07255462
0.07053113
0.06751684
0.06400013
0.06042975
0.05723836
0.05465427
0.05269236
0.05115178
0.04965196
0.04799996
0.04568403
0.04132737
0.03793175
0.03438522
0.03865193
0.04464137
0.0459722
0.04850954
0.06659028
0.06226907
0.06252278
0.05976704
0.0561288
0.0493112
0.04247585
0.04335869
0.04068166
0.03114409
0.03601218
0.04945813
0.06244672
0.06960857
0.07274744
0.07337585
0.07260266
0.07106765
0.06915973
0.06714597
0.06520689
0.06339522
0.06159548
0.05957369
0.05719452
0.0559181
0.0561793
0.05744998
0.05685809
0.05236484
0.04851064
0.05188419
0.05136272
0.05334582
0.07011313
0.06539412
0.06575318
0.06369919
0.06106338
0.05574185
0.04753336
0.04825085
0.04792528
0.04060515
0.03765379
0.04266793
0.0527485
0.06417811
0.06987847
0.07216976
0.07267345
0.07230013
0.07147238
0.0703551
0.06900225
0.06735919
0.06524505
0.06251934
0.06311244
0.06640111
0.06830585
0.06864486
0.06737009
0.06255288
0.05530217
0.05364131
0.0526028
0.05512444
0.07836389
0.07054287
0.06808098
0.06706351
0.06527959
0.06123745
0.05428835
0.05092179
0.05219889
0.04818673
0.04280585
0.04721144
0.04880177
0.05409336
0.06302652
0.06806096
0.07026685
0.07108304
0.07116452
0.0707079
0.069734
0.06813617
0.06576297
0.06541117
0.06915257
0.07172519
0.07287484
0.07279573
0.07137758
0.06680032
0.06015311
0.05425311
0.05436155
0.0620183
0.07489696
0.06614555
0.07054655
0.06880403
0.06550398
0.05996497
0.05386785
0.05348094
0.05192784
0.04701137
0.051826
0.05482488
0.05417621
0.05487742
0.06027127
0.06514466
0.06752158
0.06862132
0.06884717
0.06828227
0.06684941
0.06508671
0.06666619
0.06995948
0.07198873
0.07273271
0.07271788
0.07147689
0.06762132
0.06065621
0.06080586
0.05326996
0.07273862
0.06793277
0.07431669
0.07104072
0.06802893
0.06417499
0.05896031
0.05421239
0.0520554
0.04971958
0.05437999
0.05798828
0.05879719
0.05583838
0.05359532
0.05701072
0.0616682
0.0640612
0.06509174
0.06506385
0.06407574
0.06357797
0.06506443
0.06799877
0.06978682
0.07071151
0.07110692
0.0701175
0.06697809
0.06146324
0.06278067
0.05065552
0.07590859
0.07260292
0.07341476
0.07193125
0.06972305
0.06671516
0.06196593
0.05709996
0.05236271
0.05147445
0.05539816
0.05882382
0.06028933
0.05906548
0.05430998
0.05085985
0.05343666
0.05755345
0.05957909
0.0602473
0.06003228
0.06080037
0.06173951
0.06454047
0.06645467
0.06795723
0.06885601
0.06804668
0.065364
0.0616187
0.05743461
0.05632806
0.08471846
0.07242931
0.06868749
0.0728812
0.07070601
0.06744923
0.06361043
0.05895718
0.05520397
0.05435115
0.0560084
0.05862136
0.05983158
0.05953543
0.0566375
0.05081865
0.04703465
0.04922759
0.05261669
0.05433671
0.05549248
0.05706252
0.0579991
0.06034301
0.06264434
0.06454276
0.06554798
0.06491002
0.06130162
0.06251214
0.05085992
0.06206734
0.07899434
0.06522724
0.07213888
0.07246996
0.06774433
0.06383272
0.06068064
0.05854533
0.05617294
0.05619437
0.05818186
0.05897327
0.05873597
0.05676094
0.05276327
0.04623056
0.04266959
0.04505791
0.04839158
0.05073973
0.05257058
0.05362674
0.05598263
0.05858891
0.0604844
0.06140632
0.0592277
0.06199004
0.0594387
0.04881185
0.08334944
0.07080203
0.06933939
0.07301173
0.06746516
0.06343279
0.06252841
0.06099423
0.05830242
0.05642499
0.05733309
0.05816858
0.05787226
0.0562667
0.05315756
0.04822032
0.04202192
0.03949842
0.04200713
0.04530772
0.04746139
0.04880233
0.05178794
0.05420759
0.05579072
0.05632954
0.05640339
0.05893327
0.04809651
0.05688342
0.08665711
0.07086372
0.07051709
0.06813457
0.06317755
0.06358299
0.06244391
0.05992415
0.05642522
0.05572385
0.05688187
0.05668606
0.05532265
0.05269649
0.04877064
0.04395328
0.03881525
0.03715432
0.03938843
0.04208548
0.0449934
0.04768262
0.04969988
0.05071087
0.0499959
0.05250158
0.04663765
0.04826305
0.08384099
0.07006493
0.07028375
0.06367414
0.06319858
0.06281873
0.06060624
0.05753405
0.05480989
0.05451862
0.0546204
0.05337111
0.05100729
0.04779316
0.04495062
0.04169428
0.0382495
0.03648074
0.03832306
0.04148608
0.04383872
0.0452625
0.04501084
0.04838241
0.04572748
0.04110449
0.08122259
0.06863616
0.06367653
0.06537139
0.05995574
0.06036855
0.0578034
0.05439194
0.05250781
0.05167211
0.0507775
0.04966974
0.04812635
0.04611346
0.04499394
0.0434697
0.04137815
0.03923029
0.03874578
0.03921964
0.04012248
0.04436347
0.04182507
0.03792399
0.07726169
0.06270443
0.06242125
0.06210628
0.05702298
0.05653553
0.05383926
0.05125445
0.04958978
0.04924867
0.04865859
0.04844961
0.04850296
0.048118
0.04752564
0.04644044
0.04468555
0.04353618
0.0440144
0.04155418
0.03831169
0.04336621
0.07306343
0.05666696
0.05981158
0.05545965
0.05462655
0.05482441
0.04895477
0.04935027
0.04871283
0.04887587
0.04932879
0.04972463
0.04983812
0.05003345
0.05186698
0.04928037
0.04455005
0.04098768
0.04324336
0.05166266
0.06966921
0.05264151
0.05417189
0.05270843
0.0529361
0.0493802
0.04920459
0.04872588
0.04926367
0.05013798
0.05092371
0.05114666
0.04794379
0.04984596
0.05145377
0.04987667
0.05373145
0.05536038
0.06232667
0.05021301
0.04579121
0.04829509
0.04537554
0.04810187
0.04835081
0.04928038
0.05052512
0.05169813
0.05517362
0.05425667
0.05575269
0.06050498
0.04889908
0.04897782
0.04911555
0.05062596
0.05276052
0.05517898
0.08523673
0.07810744
0.07668309
0.08032071
0.08070638
0.08066461
0.0801187
0.07726407
0.07707419
0.09068348
0.07853113
0.07413631
0.08091181
0.07602128
0.07157341
0.07199183
0.07823472
0.07975186
0.08051156
0.08094214
0.08582292
0.08575821
0.07408795
0.06979173
0.06976739
0.07619185
0.07721774
0.06774003
0.0665091
0.07249526
0.07425224
0.07661073
0.07555294
0.07687023
0.0786504
0.08023224
0.08154366
0.08072285
0.0806945
0.07797455
0.07410966
0.07576558
0.07714109
0.08004149
0.07004832
0.06678376
0.06487312
0.06891559
0.0677161
0.06818684
0.06888392
0.06927592
0.07042116
0.07182179
0.07398051
0.07640082
0.07870242
0.08015459
0.08012491
0.07851398
0.07516797
0.07223337
0.07032037
0.06894913
0.0679713
0.06908069
0.06804941
0.05704592
0.06022118
0.06256526
0.06188347
0.06150229
0.0615576
0.06159594
0.06125443
0.06134937
0.06241999
0.06463318
0.06752132
0.07067285
0.07343137
0.07506262
0.0754195
0.07368779
0.07081073
0.06832774
0.06772761
0.06347168
0.05753456
0.06556566
0.06479108
0.05423705
0.05714511
0.0590369
0.05755165
0.0556078
0.0542411
0.05268578
0.05152799
0.05050017
0.0501019
0.0508464
0.05298999
0.05609073
0.05977682
0.0634908
0.06628959
0.06791779
0.06784251
0.06700756
0.06589216
0.06536645
0.06423888
0.05912349
0.05209761
0.05825556
0.0611599
0.05104337
0.05415051
0.05570683
0.05332809
0.05123694
0.04817423
0.04669122
0.04765541
0.04804472
0.04813408
0.04820828
0.04803009
0.04768173
0.04684685
0.04655442
0.05008127
0.0539636
0.05702322
0.05935259
0.06149058
0.06233034
0.06201636
0.06010007
0.05859587
0.05292049
0.04497533
0.04921229
0.05699774
0.04732755
0.05023167
0.05159128
0.04875687
0.04577114
0.04357582
0.04411174
0.04430273
0.04392248
0.04362723
0.0447907
0.04753509
0.05008746
0.051934
0.05305634
0.05331638
0.05254128
0.05041002
0.05075474
0.0539853
0.05633582
0.05705213
0.05626471
0.05439518
0.05224245
0.05009222
0.04416128
0.03641728
0.03616551
0.04001985
0.04572539
0.04650653
0.04370602
0.04058635
0.03900968
0.03929081
0.03775461
0.03790077
0.04122108
0.04560785
0.05025353
0.05455545
0.05799043
0.0604726
0.06206072
0.06284195
0.06277136
0.06143888
0.0588233
0.05485139
0.05167954
0.05164272
0.0504711
0.04795819
0.04499799
0.04136706
0.03867981
0.03439838
0.03343287
0.04711668
0.04272994
0.04200287
0.03908122
0.03577358
0.03341343
0.03437798
0.03518742
0.03653712
0.0386467
0.04214064
0.04716865
0.05313539
0.0590152
0.06394469
0.06752464
0.06969142
0.0707171
0.07090984
0.07014737
0.06822113
0.06486366
0.06051844
0.05575238
0.05164749
0.04826811
0.04560354
0.04297672
0.0390774
0.03510387
0.03037901
0.03090841
0.04720139
0.04294389
0.04283371
0.03970224
0.0376609
0.03430699
0.03505723
0.03594917
0.03560227
0.03499516
0.03686604
0.04267555
0.04727451
0.05066464
0.05800141
0.06528697
0.07073782
0.07405332
0.07564656
0.07614991
0.07585101
0.07456601
0.07194586
0.06806632
0.06329504
0.0585774
0.05425343
0.05006689
0.04532711
0.04063761
0.03623381
0.03269261
0.02720774
0.028368
0.04378317
0.04259274
0.04182913
0.0422247
0.03910823
0.03641851
0.03734548
0.03628715
0.03339626
0.03467427
0.03989061
0.04561175
0.0477204
0.04725106
0.0498058
0.05614879
0.06520319
0.07090416
0.0741795
0.07591152
0.07662726
0.07632856
0.07473596
0.07173619
0.06768605
0.06341529
0.05924311
0.0549764
0.05001649
0.04497747
0.04071446
0.03673191
0.03185633
0.0321646
0.0443126
0.04581312
0.04585033
0.04449884
0.04039365
0.0387685
0.03833742
0.03501487
0.03131001
0.03808057
0.04397705
0.04556621
0.04469702
0.04254804
0.03970146
0.03976514
0.0475043
0.05736756
0.06350681
0.06754134
0.07012062
0.07145083
0.07139581
0.0700145
0.06783537
0.06568082
0.06374848
0.06162703
0.05888826
0.05569455
0.05229664
0.04868721
0.04484878
0.0452585
0.05147891
0.04533482
0.04914744
0.04919925
0.04698189
0.04179756
0.04022425
0.03847718
0.03323408
0.03240316
0.03898176
0.04002744
0.04121434
0.04482712
0.04655646
0.04427524
0.03635028