/*--------------------------------*- C++ -*----------------------------------*\
  =========                 |
  \\      /  F ield         | OpenFOAM: The Open Source CFD Toolbox
   \\    /   O peration     | Website:  https://openfoam.org
    \\  /    A nd           | Version:  6
     \\/     M anipulation  |
\*---------------------------------------------------------------------------*/
FoamFile
{
    version     2.0;
    format      ascii;
    class       volScalarField;
    location    "49.8";
    object      Co;
}
// * * * * * * * * * * * * * * * * * * * * * * * * * * * * * * * * * * * * * //

dimensions      [0 0 0 0 0 0 0];

internalField   nonuniform List<scalar> 
140018
(
0.07036278
0.06313485
0.06236164
0.06434898
0.07016743
0.05156094
0.05754354
0.05975958
0.05926654
0.05896439
0.06414089
0.05729925
0.04240593
0.04572852
0.04469924
0.03883225
0.04669359
0.05105802
0.05354994
0.05352291
0.05144941
0.04863044
0.0564997
0.05064572
0.03561884
0.03433457
0.03281256
0.03090487
0.02680019
0.0311592
0.03962381
0.04302549
0.04331646
0.04158567
0.03895924
0.03642729
0.03556271
0.03281149
0.0265063
0.02847407
0.02648959
0.02178759
0.01463809
0.01037405
0.01613579
0.02199801
0.02393783
0.02384223
0.02305707
0.02257797
0.02255459
0.02409037
0.03600547
0.03991274
0.04340609
0.04459317
0.04404519
0.04078042
0.0332915
0.02610944
0.02390566
0.02526497
0.02508504
0.02312612
0.01803479
0.01402707
0.01631436
0.03236349
0.04151934
0.04719876
0.05040559
0.05308688
0.05401519
0.05274351
0.04875153
0.04176502
0.03417836
0.0304168
0.02551549
0.01972579
0.0139007
0.01506032
0.02314059
0.03278651
0.03028091
0.0387981
0.04642997
0.05121202
0.0543616
0.05554634
0.05467465
0.0514419
0.04645611
0.04019538
0.03355946
0.02741866
0.02303734
0.02036538
0.01980082
0.02144982
0.02772496
0.04223304
0.02800317
0.03716322
0.04500943
0.05141667
0.05531612
0.05694237
0.05652256
0.05442992
0.05130916
0.04745476
0.04355114
0.04036615
0.03844128
0.03737261
0.03746225
0.03846124
0.03948732
0.04615418
0.02201439
0.03300194
0.04340264
0.05154615
0.05645101
0.05870158
0.05886063
0.05781962
0.05607983
0.05400869
0.05188409
0.05041727
0.04947783
0.04924828
0.04968001
0.05017484
0.05634576
0.06599974
0.01722558
0.02215447
0.03874609
0.04937255
0.05588037
0.05910092
0.06002459
0.05975744
0.05887556
0.05782622
0.05693608
0.05642209
0.05604824
0.05625468
0.05662436
0.06035498
0.06519619
0.08468427
0.02085001
0.02896511
0.04190026
0.05168989
0.05694382
0.05911065
0.05968873
0.05970057
0.05953881
0.05932939
0.05907517
0.05909175
0.05941633
0.06128802
0.06718409
0.07386632
0.04354423
0.03297375
0.03415839
0.04193367
0.05116907
0.05559468
0.05746258
0.05838444
0.05887897
0.05916226
0.05933846
0.05961839
0.06034956
0.06413533
0.06870527
0.08848915
0.04653889
0.04207035
0.03812333
0.0414536
0.04890621
0.0529272
0.05524876
0.05657935
0.05739349
0.05787834
0.05851284
0.06087079
0.06589773
0.07103939
0.0680641
0.05043715
0.04512496
0.03847686
0.03989636
0.04586438
0.0501513
0.05248054
0.05394083
0.05574571
0.05862562
0.06230707
0.06558359
0.08269501
0.06334326
0.05318551
0.04493132
0.03927871
0.03833043
0.04338819
0.04789239
0.05177082
0.05576388
0.05798463
0.06308683
0.07527441
0.05669102
0.04627896
0.03861441
0.0400965
0.04591626
0.0496023
0.05524141
0.06661433
0.05249294
0.04426111
0.04576901
0.05620922
0.02923269
0.02936316
0.03179485
0.03446246
0.03771431
0.04202116
0.04788776
0.05514684
0.06342583
0.07729869
0.02492537
0.0238384
0.02752356
0.03202619
0.03551258
0.03803944
0.0399693
0.04166314
0.04420865
0.04834197
0.05345315
0.06192592
0.07457476
0.08007475
0.03420462
0.02894815
0.0333399
0.03627622
0.03932877
0.0418092
0.04811139
0.04923758
0.0498428
0.04846743
0.05160538
0.05373289
0.05587723
0.05902597
0.06531549
0.07565605
0.03752954
0.03458458
0.0382703
0.0420695
0.04438035
0.04383848
0.05104058
0.05365386
0.05575913
0.05568898
0.05320204
0.05797885
0.05541654
0.05766897
0.05847285
0.05908959
0.06159896
0.06814266
0.03404904
0.03335349
0.03845659
0.04339579
0.04472866
0.04952519
0.04904863
0.05166401
0.052082
0.05602753
0.05725818
0.05824412
0.06097799
0.05438396
0.05984489
0.05677866
0.05707261
0.05601758
0.05497002
0.05712241
0.02874095
0.02867707
0.03442866
0.03897607
0.041865
0.0412142
0.04677183
0.04499014
0.03975338
0.04262175
0.04926635
0.05365228
0.05566935
0.05515365
0.05444709
0.05774386
0.05137548
0.05238699
0.05181976
0.05080505
0.04806974
0.0542904
0.02667321
0.02870727
0.0332382
0.03372943
0.03411536
0.03735514
0.03592385
0.03275386
0.02893939
0.02728273
0.03643457
0.04218504
0.04528378
0.0464082
0.04694359
0.04625754
0.04630694
0.0424106
0.04408737
0.04567297
0.04693677
0.059164
0.02603542
0.02251923
0.02682583
0.02729578
0.02767673
0.02818646
0.03121118
0.0323592
0.03021171
0.02434081
0.01442741
0.01293775
0.02133994
0.02633579
0.02926274
0.03141214
0.03276783
0.03386099
0.03616868
0.03762794
0.03962293
0.0446515
0.0592546
0.07686771
0.02174459
0.02074637
0.02229771
0.02368343
0.02986911
0.03841461
0.04683831
0.05043644
0.05120849
0.04904128
0.04329468
0.03339183
0.02933366
0.02656854
0.02599223
0.02442709
0.02049419
0.02004765
0.02623895
0.03498827
0.04273789
0.04853309
0.05731466
0.0663722
0.02113556
0.0178777
0.01732767
0.0251968
0.03670104
0.04711002
0.05405137
0.05822446
0.05996199
0.05929011
0.05594285
0.04991753
0.0418295
0.03509383
0.03021125
0.02464626
0.01914728
0.02023088
0.02644747
0.03631032
0.04117871
0.04015494
0.04247717
0.041817
0.02382897
0.01440846
0.01377949
0.02208605
0.03478589
0.04723384
0.05484549
0.059423
0.06143362
0.06115653
0.05870613
0.05443554
0.04880147
0.04250729
0.03642764
0.03157658
0.02865924
0.02792926
0.02861092
0.02881155
0.02796286
0.02706023
0.02934013
0.02820181
0.03123508
0.01600416
0.01007848
0.0148369
0.0312107
0.04454651
0.05391255
0.0594911
0.06206087
0.0622917
0.06081066
0.05810385
0.05466856
0.05105432
0.04795435
0.04586525
0.04489252
0.04495609
0.04537169
0.0446525
0.04644344
0.04879468
0.05135398
0.05611683
0.0413341
0.02663802
0.01784119
0.01088407
0.02248565
0.03898168
0.05136051
0.05883835
0.06252433
0.06360535
0.06314239
0.06178588
0.06000928
0.05816482
0.05676288
0.05584137
0.05553141
0.05542126
0.05444423
0.05787744
0.06354583
0.06405958
0.06587842
0.0713552
0.05151175
0.03810145
0.02879999
0.01835725
0.01667762
0.03023774
0.04453659
0.05547769
0.0611714
0.06354024
0.06408319
0.06374095
0.06304104
0.06232158
0.06176116
0.06135256
0.06108672
0.06016957
0.06286298
0.06641149
0.0757655
0.06957518
0.07194705
0.07826691
0.0604737
0.04740127
0.03852275
0.03329681
0.02464994
0.03106311
0.03731384
0.04687242
0.05641727
0.06096854
0.06287962
0.06362723
0.06380309
0.06374611
0.06359627
0.06341411
0.0628667
0.06345257
0.06838897
0.07315761
0.07972752
0.06957836
0.07311898
0.08008593
0.06873937
0.05526729
0.0479236
0.04199606
0.03879646
0.03553038
0.040127
0.04147232
0.04656933
0.05506606
0.05914277
0.06122812
0.06226543
0.06280762
0.06301373
0.06287601
0.06230453
0.06579121
0.06856854
0.07746139
0.07166825
0.07083432
0.07292362
0.08016241
0.08350236
0.06661222
0.05435547
0.04839515
0.04976019
0.04477057
0.04460019
0.04569395
0.04350225
0.04567492
0.05253356
0.05671681
0.05884124
0.05993569
0.06029166
0.06017078
0.06193048
0.06600288
0.07012813
0.07656936
0.06672761
0.06866399
0.06969678
0.08793687
0.07933557
0.05852866
0.05281547
0.0490935
0.05687808
0.04939652
0.04799725
0.04535463
0.04169853
0.04298312
0.04967216
0.05323034
0.05480608
0.05596633
0.05827893
0.06132773
0.06327172
0.07041519
0.06609361
0.06571604
0.06741121
0.06975108
0.08948763
0.06938399
0.05615593
0.05225657
0.05859192
0.05543605
0.05297122
0.04588087
0.04340721
0.03856246
0.03987107
0.04595921
0.04966053
0.05356351
0.05550554
0.05988879
0.06396968
0.06598318
0.05933753
0.0631119
0.06464444
0.08065778
0.0886723
0.06563747
0.05630702
0.05256842
0.0555751
0.05483921
0.05099371
0.04586342
0.03952705
0.03681143
0.03960344
0.04546115
0.05026864
0.05651887
0.05928129
0.05579929
0.05406046
0.05801106
0.05908654
0.06505245
0.08535265
0.06414394
0.055738
0.05290438
0.04891676
0.04994913
0.04974942
0.04626679
0.0405599
0.03850635
0.04461675
0.04943586
0.04711771
0.04705935
0.05007765
0.05213923
0.05347685
0.05857079
0.08089239
0.06186295
0.05354186
0.05038276
0.04794663
0.044059
0.04352846
0.04132966
0.03852468
0.0354805
0.03672765
0.04145151
0.04376217
0.04671966
0.04870017
0.05307052
0.07741254
0.0566967
0.05296824
0.04854025
0.04643394
0.04512391
0.04381226
0.04158811
0.03849774
0.03623011
0.03801516
0.04042792
0.04440563
0.05563303
0.0634413
0.05076171
0.04903686
0.04867247
0.04864876
0.04799703
0.0467982
0.04511603
0.04375422
0.04895952
0.07575206
0.07090464
0.07182275
0.07398511
0.07666359
0.07927314
0.08231461
0.09764985
0.06536153
0.06113073
0.06221464
0.05779276
0.05535052
0.0564156
0.05853948
0.06143535
0.06474421
0.06834934
0.07402782
0.0767837
0.07724105
0.08955952
0.05620656
0.04826832
0.04262573
0.0412886
0.04288165
0.04306794
0.0443864
0.04683294
0.05018802
0.05403217
0.05753324
0.06087635
0.06133856
0.06383745
0.07407258
0.08999929
0.05384287
0.04660793
0.03689757
0.03252759
0.03104063
0.02770629
0.02776404
0.0290892
0.03147666
0.03525979
0.04037777
0.0465104
0.05292353
0.05842335
0.06276866
0.06659966
0.06513508
0.06994681
0.08066283
0.08173157
0.0473796
0.03561069
0.02585965
0.02542705
0.0250504
0.02493122
0.02773839
0.03250789
0.03541382
0.03735157
0.039226
0.04152996
0.04456629
0.04813303
0.05275268
0.06023933
0.06588402
0.06304862
0.06204244
0.06314215
0.06483118
0.07224602
0.04365744
0.03117669
0.02416091
0.02421389
0.02371042
0.02496675
0.03016158
0.03501374
0.0403299
0.04409325
0.04675862
0.04865352
0.05011349
0.05172094
0.0538805
0.05578648
0.05695369
0.05844531
0.06363319
0.06305542
0.05924324
0.05723431
0.0550397
0.05393079
0.03098036
0.02553721
0.02478607
0.02271691
0.02381395
0.03148568
0.03705368
0.04134121
0.04435262
0.0504478
0.05434001
0.05626503
0.05774645
0.05935507
0.05996179
0.06037249
0.06115643
0.0611531
0.06066616
0.06140111
0.05880841
0.05335812
0.04973487
0.05066447
0.03448011
0.02685034
0.0267354
0.02220622
0.0223306
0.03074814
0.03824507
0.04275469
0.04510808
0.04520982
0.04726009
0.05431329
0.05857196
0.06175427
0.06345692
0.06311311
0.06361984
0.06340811
0.06263968
0.06200231
0.06000719
0.0581202
0.05416472
0.0478246
0.04204655
0.04399467
0.04367282
0.03329601
0.02870768
0.02378505
0.01997038
0.02934856
0.03711273
0.04208758
0.04447836
0.04495877
0.04267229
0.03900255
0.04375642
0.05261836
0.05813222
0.06107852
0.06198944
0.06229912
0.06155979
0.06134303
0.06030328
0.05879125
0.05642953
0.05303356
0.04861189
0.04531061
0.04418733
0.04897521
0.04132199
0.03254301
0.03002636
0.02049608
0.02494979
0.03344946
0.03772103
0.03961502
0.03972131
0.03811324
0.03499911
0.03121981
0.0293766
0.03787035
0.04555199
0.05025409
0.05294814
0.05449521
0.05492199
0.05475575
0.05418692
0.05379423
0.05341001
0.05367592
0.0566388
0.05394585
0.05253291
0.06062448
0.03964867
0.03281853
0.02831902
0.01896662
0.02765497
0.03259555
0.03319288
0.0317027
0.03339124
0.03673477
0.03639773
0.03222962
0.02336595
0.01843078
0.02398247
0.03109089
0.03562501
0.03888178
0.04112258
0.04262637
0.04418785
0.0460183
0.04959404
0.05388366
0.06110072
0.06342838
0.06161426
0.07418824
0.05662245
0.04076406
0.03491374
0.02671577
0.02046402
0.02715242
0.02759373
0.03038064
0.0401831
0.04949267
0.05491989
0.05695523
0.05584241
0.05134944
0.04212896
0.03524956
0.02996135
0.0287228
0.0274731
0.02637239
0.02877719
0.0346126
0.04333161
0.05194286
0.0572855
0.06150428
0.06090233
0.05382896
0.05831091
0.0601145
0.05323529
0.0444704
0.03696043
0.02810445
0.02050696
0.02402943
0.02463351
0.03358799
0.04720277
0.05673635
0.06245605
0.06510762
0.06511478
0.0624809
0.05715582
0.04956898
0.04096327
0.03577337
0.03039359
0.02553804
0.02719373
0.03371474
0.04061801
0.0452956
0.04695147
0.04414746
0.03518752
0.02250944
0.0185022
0.01644018
0.05565784
0.04706161
0.04058017
0.03201608
0.02224894
0.02065876
0.02092221
0.03257627
0.04738319
0.05757222
0.06363785
0.06648533
0.06677832
0.06488343
0.06112736
0.05592425
0.04997431
0.04390585
0.03866833
0.03510471
0.03343018
0.03280302
0.03270924
0.03223431
0.0324568
0.03103917
0.02643774
0.02115484
0.02298859
0.03324433
0.05961802
0.0509697
0.04549536
0.03823547
0.02752182
0.02385792
0.01883673
0.02659996
0.04371862
0.05588225
0.0631814
0.06674192
0.06758326
0.06651899
0.06415913
0.06098497
0.05751415
0.05427077
0.05173695
0.05010407
0.04927933
0.04880154
0.04787846
0.04677251
0.04755915
0.04761602
0.04936627
0.04441266
0.03981325
0.04824278
0.06382592
0.05540742
0.05109271
0.04573793
0.03518585
0.03247432
0.02712746
0.02244855
0.03483837
0.0512106
0.06105998
0.0661968
0.06810541
0.0680513
0.06694124
0.06530874
0.06351545
0.0618762
0.06053297
0.05951498
0.05852465
0.0569786
0.05651324
0.05937274
0.06232951
0.06364384
0.06427455
0.05874194
0.05222223
0.05573999
0.06793431
0.05982115
0.05654897
0.05312931
0.04398309
0.0396897
0.03666608
0.02764168
0.03112771
0.0415529
0.05500368
0.06309601
0.0668397
0.06802836
0.06799319
0.06743604
0.06669226
0.06589187
0.06504407
0.06402589
0.06235914
0.0617529
0.06638714
0.06960806
0.07128746
0.0714444
0.07127262
0.06543666
0.05969763
0.0595084
0.07192208
0.06399727
0.06122753
0.05939663
0.05186758
0.04612948
0.04383585
0.0355501
0.03636006
0.04069192
0.04636884
0.05539876
0.06248492
0.06562895
0.06686693
0.0672502
0.06724655
0.06696053
0.06635238
0.06515008
0.06381876
0.06740253
0.0715419
0.07365383
0.0739906
0.07365698
0.07320877
0.06728502
0.06317116
0.06293332
0.08289403
0.07150911
0.06522386
0.06395299
0.05815137
0.0524807
0.04914984
0.04267328
0.04045125
0.04577183
0.04817526
0.04870529
0.05369925
0.06025251
0.06336504
0.0648404
0.0655616
0.06573201
0.06529435
0.06392328
0.06498299
0.06932446
0.07220671
0.07347288
0.07288758
0.07290701
0.07270753
0.06690452
0.06157404
0.07364494
0.08022336
0.06539532
0.06568758
0.06511671
0.05828989
0.0538891
0.04856687
0.0458207
0.04866654
0.05211745
0.0515439
0.04863814
0.05117736
0.0573661
0.06035648
0.06188525
0.06247604
0.06218481
0.06217618
0.06461712
0.06833651
0.07050332
0.07102933
0.07079225
0.06927302
0.0750524
0.064198
0.06215409
0.0796853
0.06690021
0.06762745
0.06916285
0.06190601
0.05731838
0.05273817
0.05051996
0.05148834
0.05305011
0.05343501
0.05078815
0.04666306
0.04845538
0.0536706
0.05614815
0.05714668
0.05822837
0.0595961
0.06257834
0.06537055
0.06710129
0.06741357
0.06824883
0.06871719
0.07347569
0.06252324
0.06715779
0.08825427
0.07429224
0.0660541
0.06932619
0.06650512
0.06000409
0.05603671
0.05494074
0.05401047
0.05369936
0.05238799
0.05123372
0.04709786
0.04332127
0.04465362
0.04863543
0.052027
0.05438969
0.05641143
0.05900236
0.06134145
0.06280833
0.06392063
0.06381895
0.06935523
0.06334062
0.06140874
0.07323731
0.09089397
0.07030215
0.06596267
0.07068999
0.06383301
0.05841876
0.05679276
0.054689
0.05447229
0.05281535
0.05041663
0.04687097
0.0422191
0.03935075
0.04227792
0.04678988
0.04975413
0.05228759
0.05447218
0.0563859
0.05817467
0.05861122
0.0641728
0.0649499
0.05509141
0.06098349
0.08183164
0.06214252
0.06494154
0.06939892
0.06100677
0.05782632
0.05496733
0.05388608
0.05263765
0.05083253
0.04788432
0.04417712
0.03943448
0.03763105
0.04075231
0.0444405
0.04720079
0.04923187
0.05156207
0.05266997
0.05810252
0.05949149
0.05386003
0.05468584
0.08893369
0.06888115
0.05889737
0.06493718
0.06629032
0.05722974
0.05546721
0.05255269
0.05158902
0.05020221
0.04800806
0.0452127
0.04160109
0.03732379
0.0356144
0.03857152
0.04216394
0.04505886
0.04673175
0.05196512
0.05381853
0.04904707
0.05007744
0.06001239
0.08689028
0.06653103
0.05818112
0.06328219
0.05846473
0.05891072
0.05093295
0.05014297
0.0489709
0.04736031
0.04528893
0.04294518
0.04089372
0.03817279
0.03652635
0.03764482
0.04073425
0.04671945
0.04827106
0.0443458
0.04561439
0.04862741
0.0858504
0.06221256
0.05879887
0.05928013
0.05709588
0.05192994
0.05013764
0.04813617
0.04736827
0.04711073
0.04665
0.04572042
0.04408793
0.04164264
0.04191578
0.04178285
0.03860297
0.03749716
0.04113181
0.05192784
0.07401491
0.05914511
0.05109814
0.05193673
0.04912015
0.04748798
0.04714816
0.04724137
0.04721941
0.04684006
0.04594128
0.04474515
0.041521
0.03927247
0.04162868
0.04951423
0.0710042
0.05439677
0.05196989
0.04844289
0.04809145
0.04745209
0.04770804
0.04817124
0.04836642
0.04840215
0.04970223
0.0539311
0.05114275
0.05481388
0.0557894
0.04994755
0.0495103
0.05052669
0.05190774
0.0529534
0.05397156
0.05731584
0.09128354
0.08513249
0.08527577
0.08621859
0.08851814
0.1016998
0.08182802
0.0753915
0.07424709
0.07916601
0.07822763
0.07584483
0.07690575
0.07837493
0.08011224
0.07812946
0.074158
0.07602149
0.07976643
0.09034903
0.07373247
0.07199638
0.06592191
0.06740836
0.06477795
0.06439637
0.06977875
0.07143482
0.07321007
0.07517482
0.07697602
0.07831276
0.08428797
0.08430459
0.07387528
0.07280152
0.07737587
0.08208283
0.07144068
0.0608094
0.05649626
0.05754227
0.06178545
0.06358175
0.06168899
0.0604498
0.06152211
0.06347257
0.06601774
0.06883912
0.07156515
0.07169162
0.07193914
0.07147787
0.07309557
0.07095702
0.06960001
0.082575
0.06622707
0.05647907
0.05453704
0.05330187
0.05423062
0.05142303
0.05035354
0.0496225
0.04941468
0.05044303
0.05259987
0.055559
0.0590322
0.06260277
0.0654984
0.06672515
0.06743995
0.07098896
0.07128407
0.06875575
0.06786814
0.0766655
0.06149725
0.05010615
0.04872381
0.05128933
0.04708613
0.04193509
0.04071258
0.03997875
0.03986195
0.04023202
0.04057978
0.04166803
0.04315635
0.04562598
0.05084788
0.05618765
0.06016449
0.06356064
0.06692458
0.0702526
0.07118157
0.06361675
0.05969076
0.06828801
0.05654033
0.04529359
0.04414226
0.04274876
0.03710928
0.0339996
0.0318073
0.03162541
0.03422744
0.03805889
0.04116368
0.04351719
0.04554058
0.04738543
0.04897202
0.05009469
0.05148745
0.05553946
0.05922327
0.06223833
0.06416339
0.06368101
0.06281043
0.05786414
0.05111246
0.05640835
0.05218402
0.03884793
0.03702095
0.03604359
0.02951363
0.0275036
0.02877385
0.03168911
0.03567648
0.04013297
0.0448184
0.04890037
0.05200886
0.05430668
0.05605408
0.05750853
0.05874016
0.05925409
0.05840098
0.0565529
0.05761647
0.05887565
0.05825498
0.05586105
0.05299
0.0443411
0.03939332
0.03963193
0.04881796
0.03680246
0.03655135
0.03449024
0.02890588
0.02803946
0.02874727
0.02980988
0.03224729
0.03610294
0.0412233
0.04722425
0.05305472
0.05774769
0.06132401
0.06358081
0.06485697
0.06554181
0.06581284
0.06535
0.06370691
0.06109176
0.05792487
0.05534125
0.05256308
0.04944078
0.04823951
0.04036338
0.03404746
0.03352947
0.03835093
0.04059551
0.03765433
0.0317478
0.0298316
0.02881779
0.02811909
0.0300096
0.03578761
0.04043019
0.04410987
0.04681014
0.051106
0.05841822
0.06416208
0.06767664
0.06933044
0.06980294
0.06993473
0.06943146
0.06798407
0.06563059
0.06230451
0.05864835
0.05510894
0.05061577
0.0442031
0.03878871
0.03224452
0.03455964
0.04615532
0.03956852
0.0409196
0.03626253
0.0325563
0.02949595
0.02781227
0.027994
0.03424455
0.04172121
0.04556868
0.04646883
0.04486626
0.04393718
0.04949318
0.05841648
0.06406509
0.06727368
0.0688162
0.06947909
0.06931458
0.06836843
0.06637562
0.06354326
0.06036001
0.05706812
0.05368324
0.04916148
0.04446715
0.03878376
0.03702433
0.04081556
0.04691522
0.04452597
0.04229201
0.03787977
0.03258509
0.02904758
0.02526223
0.03140664
0.03913802
0.04267705
0.04318535
0.04166007
0.03880956
0.03528899
0.03410609
0.04215306
0.05090498
0.05639957
0.05986425
0.06200905
0.06304191
0.06301083
0.06206671
0.06079686
0.05981618
0.05931454
0.05888402
0.0578793
0.05647266
0.05432724
0.05105166
0.05071675
0.04619677
0.04983423
0.04427694
0.03868606
0.03234884
0.02808634
0.02552885
0.03402691
0.03740275
0.03680847
0.03721961
0.03998647
0.04087516
0.03783186
0.0295857
0.0237011
0.02860913
0.03718064
0.0427618
0.04680717
0.04970586
0.05158545
0.05317022
0.05510776
0.05814631
0.0619894
0.06533786
0.06745879
0.06765657
0.0664388
0.05770715
0.05844249
0.04818794
0.05125463
0.04436089
0.04023243
0.03280303
0.02837252
0.02768647
0.03204014
0.03379852
0.04106532
0.05152977
0.05819228
0.06130036
0.06110076
0.05749504
0.0488078
0.04033827
0.03479405
0.03236514
0.0315609
0.03318418
0.03810183
0.0440472
0.05068994
0.05929792
0.06523912
0.06729159
0.06435682
0.0604153
0.05798371
0.04856163
0.05125663
0.06415573
0.05110352
0.05257006
0.04830794
0.04241089
0.03426201
0.02991208
0.02701061
0.02744348
0.03373324
0.04763104
0.05872551
0.0657381
0.0693164
0.07002586
0.06804026
0.06324907
0.05602266
0.04739203
0.04106962
0.03577648
0.03181579
0.03442467
0.04123318
0.04642844
0.05168733
0.05334789
0.05002619
0.03970134
0.03169856
0.03019628
0.02470654
0.02502726
0.03647339
0.06121894
0.05655767
0.05521934
0.05134631
0.04581257
0.0370141
0.03306856
0.02882889
0.02481754
0.03167056
0.04757843
0.05955517
0.06701951
0.07081101
0.07174502
0.0703569
0.06699938
0.06208318
0.05625192
0.05008273
0.04441426
0.0401102
0.03737036
0.03563937
0.03457173
0.03351401
0.03217934
0.02842205
0.02020316
0.01474532
0.02163639
0.03103775
0.03545429
0.04058777
0.06318428
0.05895593
0.05858235
0.05511955
0.05033106
0.04183687
0.03736944
0.03531757
0.0297473
0.02846177
0.04261254
0.05716358
0.0661583
0.07087106
0.07245209
0.07186356
0.06981203
0.06680691
0.06334741
0.05989334
0.05689177
0.05457567
0.05290376
0.05161662
0.05026222
0.04861108
0.04608308
0.04165593
0.03822038
0.03510535
0.0403025
0.04596346
0.0470022
0.04928956
0.06636022
0.06195486
0.06211669
0.05923591
0.05542678
0.04836997
0.0416243
0.04230189
0.03943922
0.0302073
0.03646907
0.0504744
0.06273449
0.06947079
0.07237983
0.07290343
0.07210353
0.0705904
0.06874615
0.06683852
0.06504749
0.06341554
0.06179576
0.05991538
0.05760043
0.05648968
0.05691104
0.05795835
0.05702442
0.05214721
0.04949489
0.05291641
0.05212867
0.05390984
0.0699034
0.06511502
0.06538682
0.06320737
0.06039522
0.05483635
0.04663853
0.04757318
0.04705322
0.03928164
0.03681159
0.0431489
0.05411285
0.06472753
0.06997746
0.07203727
0.07245692
0.07207582
0.07128346
0.07023423
0.06897511
0.06743957
0.0654266
0.06277139
0.06367621
0.06696242
0.06876347
0.06890371
0.0673631
0.06226007
0.05525619
0.05446802
0.05321778
0.05556721
0.07817296
0.07032514
0.06777723
0.06664928
0.06470869
0.06046267
0.0532899
0.050687
0.05184499
0.04739281
0.04191362
0.04620401
0.04795059
0.05433033
0.0638273
0.06837647
0.07036849
0.07110644
0.07117325
0.07073711
0.06980492
0.06825744
0.06592867
0.06571499
0.0696166
0.07215652
0.07320392
0.07296409
0.0713452
0.06655141
0.05971721
0.05440207
0.05484296
0.06234911
0.07472128
0.06593109
0.07024959
0.06837371
0.06492399
0.05924623
0.05322706
0.05364259
0.05178659
0.04623807
0.05102234
0.05393434
0.05302556
0.05484826
0.06118479
0.06560848
0.06779221
0.06880983
0.06900467
0.06843441
0.06700667
0.06534029
0.06707683
0.07035903
0.07233637
0.0729819
0.07283464
0.07143947
0.06742239
0.06034004
0.06042545
0.0533267
0.07263509
0.06780824
0.07411217
0.07074602
0.06763875
0.06372048
0.05847245
0.05423307
0.0524492
0.04919196
0.0538774
0.05745102
0.05810203
0.05486163
0.05358957
0.05790757
0.06219452
0.06441912
0.0653651
0.06529013
0.06427132
0.06384946
0.06546821
0.068367
0.07009311
0.07092704
0.07121221
0.07010374
0.06684666
0.06119426
0.0624961
0.05035675
0.07586561
0.0725356
0.0733035
0.07175616
0.06949404
0.06645032
0.0617261
0.05689039
0.05260818
0.05113213
0.05511355
0.05855888
0.05994146
0.0584957
0.0534304
0.05083157
0.05424874
0.05807746
0.05996035
0.06054477
0.06027254
0.06109551
0.06214622
0.06490225
0.06675283
0.06817772
0.06898837
0.06808298
0.06531202
0.06148981
0.05726028
0.05615313
0.08471101
0.07241166
0.06864324
0.07280117
0.07059027
0.06732501
0.06352845
0.05893122
0.05476087
0.05384152
0.05582121
0.05847369
0.05965949
0.05921769
0.05606295
0.04996942
0.04696878
0.04993103
0.05310328
0.0547044
0.05587208
0.05738259
0.05826984
0.06069994
0.06294085
0.06477323
0.06570658
0.06499264
0.06131557
0.06250722
0.0507656
0.06207408
0.07901799
0.06524369
0.0720241
0.07242577
0.06770585
0.06381968
0.06040137
0.05784943
0.05550067
0.05603892
0.05805775
0.05884944
0.05852864
0.05637167
0.05212751
0.04540057
0.04258051
0.045663
0.04883213
0.05115968
0.05291252
0.0539069
0.05632781
0.05888031
0.06072017
0.06158097
0.05934013
0.06206328
0.05945536
0.04877362
0.08339393
0.07084
0.06925878
0.07303605
0.06746839
0.0632384
0.06199157
0.06042306
0.0577298
0.05612386
0.05719734
0.05803642
0.05769771
0.05597077
0.05267011
0.0475531
0.04126246
0.03941283
0.04254256
0.04576486
0.04782255
0.04911621
0.05211186
0.05448377
0.05601819
0.05650486
0.0564849
0.0590385
0.04813727
0.05698992
0.08670467
0.07090189
0.0704601
0.06816634
0.06281743
0.06313893
0.06193984
0.05939914
0.05592054
0.05557831
0.05673231
0.05650683
0.05505758
0.05229396
0.04823181
0.04332971
0.03824227
0.03715686
0.03988499
0.04246497
0.04533976
0.04797459
0.04994495
0.05091066
0.05014862
0.05264855
0.04667299
0.04829838
0.08390312
0.06999732
0.07022489
0.06356533
0.06282407
0.06237172
0.06011433
0.05704574
0.05455704
0.05435974
0.05443075
0.05311748
0.05065324
0.04752055
0.04459051
0.04127677
0.03778453
0.03652331
0.0387525
0.04180411
0.04408891
0.04546033
0.04515676
0.04849752
0.04581061
0.0411379
0.08129651
0.06855704
0.06360687
0.06505824
0.0598145
0.05991659
0.05734089
0.05398118
0.05232033
0.05153395
0.05066367
0.04953314
0.04793002
0.04593576
0.04482298
0.04320141
0.04102221
0.03879169
0.03863241
0.03942381
0.04030613
0.04442385
0.04187919
0.03793962
0.07735674
0.06261547
0.06212157
0.0620068
0.05663113
0.05612136
0.05347077
0.05099102
0.04947782
0.04916642
0.04856927
0.04848982
0.04848757
0.04802632
0.04735495
0.04619051
0.04435932
0.04314842
0.04382043
0.04165865
0.03812156
0.04272177
0.07317618
0.05655435
0.05950088
0.05508513
0.05427477
0.05451363
0.04874675
0.0492546
0.0487247
0.04894378
0.04939844
0.04976009
0.04982358
0.04998154
0.05170841
0.04906451
0.04428642
0.04062967
0.04282988
0.05114901
0.06973259
0.05243828
0.0540048
0.05241967
0.05267768
0.04923071
0.04917239
0.04878331
0.04936798
0.05024826
0.05101257
0.05119962
0.04796449
0.04977004
0.05134079
0.04972484
0.05345804
0.0550322
0.06236063
0.04998433
0.04561884
0.04819422
0.04537939
0.04818286
0.04847414
0.04941644
0.05065374
0.0518399
0.05527241
0.05428439
0.05574125
0.06045294
0.04900608
0.04911903
0.04929339
0.05082009
0.05295206
0.05540362
0.08532303
0.07812167
0.07665915
0.08026242
0.080618
0.08055402
0.07998922
0.07711622
0.07689811
0.09045654
0.07869459
0.07423792
0.08096588
0.07604104
0.07153799
0.07190822
0.07810255
0.07958435
0.08032124
0.08073816
0.08559849
0.08550217
0.07388261
0.06956019
0.06947555
0.07585964
0.07734904
0.06785432
0.06656597
0.07250762
0.07421812
0.07650794
0.07538851
0.07662539
0.07835297
0.07990221
0.08120384
0.08039787
0.08035609
0.07764696
0.07376992
0.07539649
0.07674915
0.07961185
0.07016346
0.06690147
0.06495112
0.06898651
0.06773828
0.06815557
0.06879468
0.06910076
0.07015553
0.07145993
0.07353951
0.07590528
0.07818637
0.07965507
0.07964639
0.07806602
0.07473949
0.07188252
0.06999311
0.06857224
0.06755909
0.06861997
0.06802781
0.05706868
0.06024455
0.06258837
0.06189556
0.06148737
0.06149275
0.06146051
0.06102475
0.06100701
0.06195727
0.06406239
0.06686854
0.06997842
0.07274443
0.07441452
0.07481449
0.07312898
0.07038183
0.06797982
0.0673463
0.06307856
0.05713448
0.06508271
0.06460035
0.05411629
0.0570505
0.05895695
0.05747678
0.055548
0.05417486
0.05258773
0.05136095
0.0502189
0.04968215
0.05027947
0.05228682
0.05528049
0.05890594
0.06261643
0.06546028
0.06715075
0.06713948
0.06649676
0.0655093
0.06495906
0.06379973
0.05867249
0.05167086
0.0577485
0.06081383
0.05076387
0.05387889
0.05547168
0.05309362
0.051023
0.0479966
0.04651501
0.04754958
0.04798819
0.04809818
0.04816364
0.04796497
0.04759251
0.04674491
0.04602645
0.04903401
0.05296798
0.05630504
0.05889029
0.06107126
0.06191561
0.06156232
0.05960165
0.05805956
0.05238758
0.0445361
0.04874355
0.05661456
0.04692723
0.04978803
0.05116838
0.04833331
0.04535382
0.04310201
0.04357116
0.04385317
0.04355131
0.04331069
0.04463224
0.04748947
0.05000934
0.05186965
0.05305835
0.05342708
0.05277119
0.05072784
0.05021519
0.05349646
0.0558812
0.05660113
0.05576287
0.05381894
0.05158554
0.04941961
0.04357444
0.03608418
0.03581749
0.04003535
0.0453935
0.04593411
0.04310732
0.03997787
0.03811382
0.03843252
0.03711833
0.03782294
0.04147978
0.04576773
0.05028963
0.05447447
0.05782586
0.06027535
0.0618943
0.06276607
0.06282213
0.0616106
0.05907549
0.05514033
0.05161666
0.05113039
0.04987687
0.04724694
0.04416081
0.04049112
0.03829647
0.03429031
0.03389336
0.04650332
0.04218877
0.04135198
0.03835262
0.03501632
0.03251476
0.03405767
0.03551364
0.03692693
0.03907531
0.04253064
0.04745345
0.05325915
0.05895639
0.06372757
0.067207
0.06934962
0.07042893
0.07073269
0.07010009
0.06827506
0.06496576
0.0606036
0.05580306
0.05165938
0.0482143
0.04546174
0.04278258
0.03905547
0.03539939
0.03099031
0.03193989
0.04662674
0.04276986
0.04284909
0.03982744
0.03786703
0.0344822
0.03514453
0.03614339
0.03592387
0.03544216
0.03718686
0.043055
0.04766737
0.05100944
0.05825336
0.06524641
0.07046671
0.07364983
0.07521447
0.07576664
0.07555788
0.07435383
0.07176301
0.06785275
0.06303351
0.05827703
0.0538886
0.04962889
0.04490629
0.04047205
0.03650578
0.03343437
0.02829978
0.02993128
0.04374257
0.04263483
0.04184447
0.04227976
0.0392484
0.03649615
0.03732363
0.03640202
0.0337028
0.03521804
0.04044834
0.04637151
0.04859219
0.0481082
0.05057056
0.05678618
0.0653238
0.07068896
0.0737839
0.07543157
0.07612485
0.07581792
0.07418708
0.0711228
0.06703388
0.0627829
0.05862961
0.0543969
0.0496075
0.0449312
0.04113424
0.03762712
0.033014
0.03359332
0.04420672
0.04573801
0.04578655
0.04446351
0.04043183
0.03851698
0.03815739
0.03500018
0.03183643
0.03890885
0.04510589
0.04685205
0.04597141
0.0436486
0.04059361
0.0405834
0.04830068
0.05746014
0.06324431
0.06702027
0.0694284
0.07062754
0.0704589
0.06902648
0.06691807
0.06496492
0.06326601
0.06135874
0.05887619
0.05593414
0.05274693
0.04926372
0.04550081
0.04590311
0.0515979
0.04527609
0.04903629
0.04907063
0.04685791
0.04172263
0.03979616
0.03810199
0.03301032
0.03332766
0.04023322
0.04147563
0.04098296
0.04286818
0.04450467
0.04220131
0.03438087
0.02909078