/*--------------------------------*- C++ -*----------------------------------*\
  =========                 |
  \\      /  F ield         | OpenFOAM: The Open Source CFD Toolbox
   \\    /   O peration     | Website:  https://openfoam.org
    \\  /    A nd           | Version:  6
     \\/     M anipulation  |
\*---------------------------------------------------------------------------*/
FoamFile
{
    version     2.0;
    format      ascii;
    class       volScalarField;
    location    "49.8";
    object      epsilon;
}
// * * * * * * * * * * * * * * * * * * * * * * * * * * * * * * * * * * * * * //

dimensions      [0 2 -3 0 0 0 0];

internalField   nonuniform List<scalar> 
140018
(
0.007994096
0.004615527
0.004266179
0.006565047
0.007504226
0.004453878
0.003210969
0.002426957
0.002266756
0.002635313
0.003307929
0.005104522
0.00518632
0.003061318
0.002626332
0.002121227
0.001986996
0.001866324
0.001783575
0.001735825
0.001723244
0.002043205
0.00277945
0.004459537
0.004242431
0.002139348
0.001579167
0.001402214
0.00133625
0.001412562
0.001451354
0.00144073
0.00139062
0.00133448
0.001322089
0.001421007
0.001964124
0.004260639
0.002616964
0.001589208
0.001363914
0.001214912
0.001090331
0.001056958
0.001123244
0.001163628
0.001152627
0.001132085
0.001134298
0.00121493
0.001479934
0.0025065
0.003643489
0.002014193
0.001532028
0.001405401
0.00132295
0.001245666
0.001169384
0.001106157
0.001097775
0.001108512
0.001131016
0.001185165
0.001323191
0.001719138
0.002433353
0.005050477
0.0026635
0.001705133
0.001570981
0.001524845
0.001495516
0.001465408
0.001432706
0.001400835
0.001374088
0.001367243
0.001384722
0.001405344
0.001409488
0.001526222
0.001711364
0.002857228
0.00322032
0.002001455
0.001612322
0.001565811
0.001552961
0.001533728
0.001500604
0.001453653
0.001400043
0.001346882
0.001297549
0.001253324
0.001223443
0.001237436
0.001330353
0.001537827
0.002218939
0.005331946
0.002221014
0.001609024
0.001569582
0.001583408
0.001592313
0.001579592
0.001540784
0.001482314
0.001416984
0.001352129
0.001299342
0.001273862
0.001284327
0.001340813
0.001455168
0.001644479
0.00202098
0.003904563
0.002120471
0.001608919
0.001615206
0.001641177
0.001664177
0.001660479
0.001628412
0.001573922
0.001509785
0.0014442
0.001392859
0.001375028
0.00139861
0.001468288
0.001591918
0.001794452
0.002211306
0.004173394
0.003565947
0.002013993
0.001736464
0.001703747
0.001726993
0.001725835
0.001700638
0.001651656
0.001588543
0.001523064
0.001473659
0.001455607
0.001481056
0.00155941
0.001701874
0.001970896
0.002907986
0.007229768
0.003046505
0.001983963
0.00177395
0.001775897
0.001773518
0.001750587
0.001708948
0.001654252
0.001592054
0.001541049
0.001517577
0.001539898
0.001622602
0.001795938
0.00217918
0.004094455
0.006287871
0.003034376
0.001916511
0.001832471
0.001820982
0.001790178
0.001750762
0.001709223
0.001655234
0.001605784
0.001579911
0.001599287
0.001688393
0.001915645
0.002809257
0.00689359
0.004247988
0.002256461
0.001950059
0.001903072
0.001842977
0.001792192
0.001762687
0.001722671
0.001685185
0.001668982
0.001697653
0.001811401
0.002121805
0.003905166
0.007256352
0.003393811
0.002333998
0.002122183
0.001961584
0.001864901
0.001831762
0.001810462
0.001805178
0.001829804
0.001919155
0.002117364
0.002930749
0.006636094
0.007026918
0.004183968
0.003160503
0.002302957
0.002063152
0.001970056
0.001968218
0.002040666
0.002186395
0.002795016
0.00388535
0.006600955
0.006227217
0.004026096
0.002944432
0.002320738
0.00233586
0.00293486
0.004002704
0.006528545
0.006084625
0.004165927
0.004277703
0.006761138
0.004872709
0.003311227
0.003330168
0.003558911
0.004016824
0.004791034
0.005959044
0.007427198
0.00931871
0.01608492
0.005364183
0.003411536
0.002657968
0.001871345
0.001663182
0.001560111
0.001542919
0.001653818
0.001975875
0.002581923
0.003501431
0.005400886
0.008313574
0.01370725
0.006395674
0.003412322
0.002434796
0.00212578
0.001867277
0.001662677
0.001462525
0.001296814
0.00121057
0.001232754
0.001418521
0.001845269
0.002530319
0.003406535
0.005050441
0.01062757
0.006167306
0.003236307
0.002347179
0.002098438
0.001977391
0.00179599
0.001587256
0.001500907
0.00138516
0.00128266
0.001325325
0.001030729
0.001184042
0.001495574
0.001989478
0.00264333
0.003939881
0.008319263
0.005585816
0.002820538
0.002079254
0.001945348
0.001828481
0.001680474
0.001618298
0.00148142
0.00135112
0.001240844
0.001173273
0.001192797
0.001068759
0.001042544
0.001010464
0.001283666
0.001684986
0.00218796
0.003224682
0.006752655
0.005337132
0.002634645
0.001872628
0.001767187
0.001722531
0.001847054
0.001944721
0.001858849
0.001675903
0.001408122
0.001233463
0.001153755
0.001136641
0.001086424
0.001010266
0.0009527246
0.00104524
0.001191921
0.001577038
0.00202677
0.002901546
0.00621428
0.003542399
0.001860872
0.001617947
0.001643858
0.002005466
0.002144943
0.002287622
0.002344739
0.002321326
0.001978063
0.001625454
0.001466368
0.001381557
0.001286589
0.001138356
0.001010807
0.001030586
0.00123009
0.00137895
0.001794638
0.002369564
0.004323724
0.00496674
0.002286131
0.001562525
0.001507348
0.001575474
0.002145964
0.002320205
0.002352411
0.002408787
0.002478764
0.002534188
0.002090318
0.001867415
0.001683307
0.001473922
0.001269839
0.00119791
0.001422769
0.002124609
0.001818082
0.002456246
0.003255043
0.004794652
0.01177143
0.003491827
0.001762086
0.00139417
0.001471072
0.002327579
0.002005802
0.001931967
0.001956143
0.002082443
0.002260984
0.002442857
0.002488825
0.002195842
0.001991565
0.001952436
0.002177579
0.002960699
0.005081743
0.00584461
0.00597088
0.00413533
0.003856821
0.003829997
0.005913676
0.003370375
0.001636753
0.001294014
0.001324189
0.001893577
0.001628513
0.001616555
0.001728016
0.001951366
0.002288324
0.002738541
0.003274066
0.003822288
0.004250941
0.004726728
0.005378105
0.005816384
0.005211987
0.004029589
0.003222061
0.001900704
0.00178305
0.001787804
0.00271478
0.00344608
0.001574607
0.001206098
0.001853178
0.001584287
0.001433364
0.001412731
0.00144831
0.001547255
0.001708695
0.001928373
0.002185373
0.002441289
0.002636072
0.00267703
0.002474025
0.002183914
0.002128275
0.002211072
0.002415403
0.002341731
0.001222175
0.001354731
0.002332825
0.003624657
0.00158776
0.001094486
0.001697414
0.001482978
0.00141771
0.001336756
0.001269795
0.001232995
0.001222211
0.001228891
0.00124056
0.001251202
0.001261417
0.001286278
0.001348387
0.001464573
0.001580747
0.001638642
0.001616776
0.001406071
0.001198322
0.00149936
0.002749371
0.003833853
0.00176203
0.001091748
0.001842005
0.001720386
0.00160068
0.00145458
0.001305336
0.001188236
0.001107377
0.001054268
0.001018259
0.000997575
0.000996411
0.001021283
0.001071371
0.001136735
0.001197012
0.001238225
0.001270307
0.001304612
0.00134313
0.001732412
0.003256545
0.004021219
0.002002917
0.001263663
0.002397478
0.002315221
0.001995363
0.001755095
0.001499809
0.001288571
0.001141384
0.001046972
0.0009839596
0.0009422629
0.0009228889
0.0009278305
0.0009570484
0.001004878
0.001064947
0.001145078
0.001246359
0.001379644
0.001569462
0.002024659
0.003840753
0.004214002
0.002216613
0.001499247
0.001041039
0.001964291
0.00234245
0.002217014
0.001854566
0.001511627
0.001266077
0.001120274
0.001032068
0.0009724885
0.0009376284
0.0009277126
0.0009437708
0.0009842198
0.001052358
0.001146922
0.001261983
0.00138085
0.00179274
0.002306833
0.004403885
0.004627969
0.002464059
0.001821346
0.001324706
0.001599099
0.00216834
0.002412263
0.002290489
0.001858063
0.001472149
0.001245331
0.001124141
0.00104635
0.0009987065
0.0009764442
0.0009814205
0.001015887
0.001085022
0.001187304
0.001331821
0.001543179
0.001930031
0.002518424
0.004894191
0.00806294
0.003304426
0.002195824
0.001705828
0.001289897
0.001555042
0.001995655
0.002308787
0.002210755
0.001748658
0.001407463
0.001239908
0.001141849
0.001083199
0.001051731
0.001049351
0.001078159
0.001134199
0.001211245
0.001294243
0.001658761
0.002059706
0.003136847
0.007854377
0.004894388
0.00265194
0.002067269
0.001632538
0.001552014
0.001710523
0.001948772
0.002142042
0.001977092
0.001587415
0.001359112
0.001239114
0.001174594
0.001142372
0.001142223
0.001163531
0.001226457
0.001315616
0.001462536
0.00178856
0.002262538
0.004234392
0.008394707
0.003573385
0.002381672
0.001887415
0.001470015
0.001472707
0.001553481
0.001767212
0.001824755
0.00169812
0.001464054
0.001326517
0.001265186
0.001231282
0.00123894
0.001245745
0.001327809
0.001378863
0.001692065
0.002069011
0.003067377
0.007109253
0.007890109
0.003348342
0.002232077
0.001776558
0.001433315
0.001158797
0.001328731
0.001446064
0.001559927
0.001499268
0.001390071
0.001335844
0.001287032
0.001325799
0.001277862
0.001457174
0.001684692
0.002015397
0.002947198
0.006730368
0.007366604
0.003119297
0.002088241
0.001672069
0.001384482
0.001162709
0.001007513
0.001263091
0.00137874
0.001395698
0.001378195
0.001271638
0.001427135
0.001579777
0.001737687
0.002014701
0.002875281
0.006351837
0.006580116
0.002821211
0.00192732
0.001574625
0.001330211
0.001191793
0.001134385
0.001167479
0.001276196
0.001418091
0.001538782
0.001665917
0.001871531
0.002134427
0.002900043
0.00625336
0.00589005
0.003246535
0.002160955
0.001586169
0.001414171
0.001353907
0.00139474
0.001515658
0.001676559
0.001827503
0.002014597
0.002692664
0.003869769
0.006279257
0.004826684
0.002785314
0.002488404
0.002409562
0.002478844
0.002666543
0.002932149
0.003212591
0.003602709
0.006084257
0.01289555
0.008915439
0.00928524
0.009823577
0.01032237
0.01087997
0.01190163
0.01978534
0.007554018
0.005180658
0.004895833
0.003979818
0.00365459
0.004029004
0.004448431
0.004848232
0.005238837
0.005700587
0.007364164
0.009816275
0.01036713
0.01530776
0.004432295
0.002319784
0.001890628
0.001799967
0.001765906
0.001930643
0.002248432
0.0026394
0.003064149
0.003493889
0.003904812
0.004411826
0.005018032
0.005308533
0.006244322
0.01319943
0.003960882
0.002462517
0.001598505
0.001147643
0.001019489
0.001603667
0.001775399
0.001918504
0.002115841
0.002397106
0.002758513
0.003157727
0.003525478
0.003912611
0.004232852
0.003752821
0.004030207
0.005549152
0.008091812
0.01273698
0.003428122
0.001594447
0.001177109
0.0009755764
0.001614054
0.001883942
0.002197582
0.002350489
0.002424772
0.002462019
0.002528409
0.002664372
0.002887812
0.003142176
0.00343705
0.003719027
0.003461713
0.003500357
0.003471358
0.004140086
0.005248375
0.01046537
0.003423598
0.001572814
0.001095669
0.0009489352
0.001955342
0.002623361
0.002888965
0.00297488
0.00297843
0.002931315
0.002851677
0.002750451
0.002670304
0.00266568
0.002754117
0.002936884
0.003149129
0.003056588
0.003077929
0.002999379
0.002922425
0.003287403
0.004159211
0.007847813
0.001994479
0.001189086
0.001011388
0.002073448
0.002716618
0.002888378
0.002926086
0.002865761
0.00276012
0.002634456
0.002527433
0.002451125
0.002371118
0.002297772
0.002288104
0.002393282
0.002547642
0.002561805
0.002591351
0.002577544
0.002467997
0.00229127
0.002516117
0.003627787
0.003333307
0.001609175
0.001140431
0.001902764
0.002380497
0.002501213
0.002578559
0.002600343
0.002545535
0.002393633
0.002153462
0.001949538
0.001831528
0.001771288
0.001743442
0.001762399
0.001832592
0.001960268
0.00204137
0.002101327
0.002135441
0.002121706
0.002005448
0.001862166
0.002361084
0.004921488
0.003694831
0.001737369
0.001252304
0.001589052
0.001994005
0.002240455
0.002500485
0.002714508
0.002856601
0.002893864
0.002819616
0.00255941
0.002093845
0.001732129
0.001521813
0.001428149
0.001415896
0.001453107
0.001542391
0.001622733
0.001707695
0.001819455
0.001978626
0.002161675
0.002493566
0.002526945
0.003743991
0.008806528
0.002315857
0.001356563
0.001118791
0.001582267
0.001949157
0.00235108
0.002785778
0.003069805
0.00321933
0.003271456
0.003287083
0.003244229
0.002881626
0.002219946
0.001839794
0.001625336
0.001500899
0.001426297
0.001416707
0.001468438
0.00162963
0.001976145
0.002603595
0.003274636
0.003849514
0.003367911
0.004727326
0.008600319
0.002238601
0.001315392
0.001388688
0.001694427
0.002099946
0.002682101
0.003180553
0.003236132
0.003146853
0.003031731
0.003065949
0.003177161
0.003329863
0.002885936
0.002413345
0.002080186
0.001821749
0.001652979
0.001657636
0.002011729
0.002864812
0.004103454
0.00539085
0.005886094
0.005412343
0.005844534
0.004325662
0.00752867
0.004263782
0.001806469
0.001242682
0.001381882
0.001745494
0.002309206
0.00315126
0.003329103
0.002682151
0.002386429
0.002347331
0.00251216
0.002793929
0.003122863
0.003378098
0.003142799
0.002777618
0.002741077
0.003077649
0.004209485
0.006775693
0.008254213
0.00834416
0.007044529
0.005563111
0.004302114
0.003874466
0.002525355
0.003803348
0.008275865
0.002747684
0.001478646
0.001198227
0.001376756
0.001828415
0.002630428
0.003483433
0.002553216
0.001936684
0.001821066
0.001915643
0.002178862
0.002603597
0.003192287
0.003927518
0.004748582
0.005519633
0.006166315
0.0069788
0.007604708
0.006864052
0.005508425
0.004326478
0.00351236
0.003018878
0.00263823
0.002188905
0.00126019
0.001439361
0.002504146
0.002682914
0.001468298
0.001205633
0.001405349
0.001951121
0.003023633
0.003295908
0.001924369
0.001602279
0.001514867
0.001520878
0.001613782
0.00178906
0.002041827
0.002348554
0.002665957
0.002929281
0.003044087
0.002900307
0.002618769
0.00254499
0.002636069
0.002708856
0.002478034
0.001976855
0.001559003
0.001056989
0.0007866838
0.001172705
0.002597555
0.002754859
0.001510298
0.001238232
0.001420471
0.002032035
0.003090625
0.003024763
0.001849345
0.001590671
0.001444838
0.001337512
0.001267573
0.00123115
0.001226196
0.001238797
0.001259839
0.001289029
0.001339818
0.001430982
0.001565425
0.001679643
0.001702762
0.001622793
0.001415117
0.001213384
0.001053878
0.0009865323
0.001033173
0.001414868
0.002910986
0.002900823
0.001580297
0.001286347
0.001413034
0.001942196
0.00276202
0.002903929
0.002263863
0.001877872
0.001653251
0.001460558
0.001290846
0.001150326
0.001055615
0.0009987734
0.0009708646
0.0009715113
0.001003335
0.001060238
0.001124625
0.001170674
0.001180625
0.001156407
0.001115835
0.001082642
0.001076381
0.00111439
0.00120356
0.001588329
0.003098627
0.003131435
0.001680259
0.001348351
0.001404439
0.001744129
0.002334499
0.002676343
0.002590967
0.00240323
0.002111745
0.001821748
0.0015436
0.001290043
0.001111018
0.001003218
0.0009403693
0.000909834
0.0009093384
0.0009349128
0.0009771388
0.001025012
0.001072285
0.001118683
0.001156207
0.001190365
0.001232273
0.001297209
0.001393045
0.001782882
0.003387203
0.003539599
0.001828299
0.001424193
0.001414623
0.001581424
0.001944731
0.002185
0.002350786
0.002547619
0.002619951
0.002378948
0.001996598
0.00159121
0.001287224
0.001113108
0.001016088
0.0009592741
0.000933856
0.0009378971
0.0009676341
0.001018762
0.001088325
0.001161077
0.001230288
0.001302589
0.001383985
0.001482287
0.001604357
0.002069882
0.003970451
0.006301558
0.00239182
0.001561451
0.001481921
0.001512531
0.001666885
0.001837704
0.001996474
0.00223591
0.002559915
0.002763962
0.002573474
0.002047365
0.001562005
0.00128275
0.00114414
0.001063916
0.001016568
0.0009985538
0.001009078
0.001047265
0.0011077
0.001175215
0.001249484
0.001336898
0.001447081
0.001592628
0.001783459
0.002789535
0.007060617
0.003439592
0.001864795
0.001661253
0.001574376
0.00156735
0.001605381
0.001652494
0.001778785
0.002081594
0.00249953
0.002786106
0.002556126
0.001925485
0.001488906
0.00129232
0.001191876
0.001128476
0.001090993
0.001079511
0.001096223
0.001132244
0.001179919
0.00124147
0.001322187
0.001435499
0.001602623
0.001910114
0.003636821
0.004237707
0.002229029
0.001653084
0.001560051
0.001506281
0.001475686
0.001453545
0.001478757
0.001632586
0.001977622
0.002415676
0.002634786
0.002287364
0.001710758
0.001431317
0.001313407
0.001244852
0.001197823
0.001171552
0.001169337
0.001184289
0.001215776
0.001263243
0.001324634
0.001397361
0.00146826
0.002001029
0.00385076
0.007464897
0.002989253
0.00196203
0.001742139
0.001603178
0.001492807
0.001404728
0.001351661
0.001389706
0.00156986
0.001907758
0.002237168
0.002278194
0.001888578
0.001536295
0.001397046
0.001333204
0.001292981
0.00126596
0.001254358
0.00125799
0.001283871
0.0013328
0.001412163
0.001533856
0.001720661
0.002605411
0.006215931
0.006651525
0.002787763
0.001823596
0.001642602
0.001513335
0.001400599
0.001318036
0.00129012
0.001353665
0.001536716
0.001767347
0.001902171
0.001812571
0.00156879
0.001419619
0.001368331
0.001351404
0.001334542
0.00132593
0.001329012
0.00134666
0.00138756
0.001462223
0.001587728
0.002432525
0.005535279
0.004234565
0.002248707
0.001700198
0.001521923
0.00139673
0.001290868
0.00122754
0.001225254
0.001294569
0.001412961
0.001512161
0.001513669
0.001453039
0.001382843
0.001349363
0.001361362
0.001370968
0.001371982
0.001382116
0.0013883
0.001408477
0.001459277
0.001872329
0.003437287
0.007198369
0.002967179
0.001955453
0.001495351
0.001349701
0.00123988
0.001154946
0.001115054
0.001125738
0.001175493
0.001219716
0.001233979
0.001245862
0.001270224
0.001291882
0.001334179
0.001375183
0.001379882
0.001419011
0.001419546
0.001411338
0.001738786
0.002524791
0.005527605
0.006484689
0.002676229
0.001782704
0.001351071
0.001206871
0.001090033
0.001024906
0.0009979785
0.001003885
0.001015724
0.001031119
0.001067522
0.001128098
0.001193788
0.001272136
0.001363071
0.001349366
0.001446494
0.001459002
0.0017654
0.002433784
0.00524735
0.006000241
0.003181144
0.001901764
0.001280877
0.001002165
0.000949704
0.000906151
0.000880168
0.0008727378
0.0008914704
0.0009396111
0.001011625
0.001093971
0.001197332
0.001362488
0.001285495
0.001490527
0.00214853
0.003191485
0.005190461
0.004281656
0.001856816
0.001279174
0.001053426
0.0009025317
0.0008282709
0.0008052092
0.000824973
0.0008774308
0.0009533996
0.001042734
0.00115673
0.001415993
0.001672639
0.002139943
0.004641082
0.004141673
0.002222928
0.001802768
0.001302572
0.001030913
0.0009903748
0.001008607
0.001066238
0.001156235
0.001281926
0.001673667
0.002471538
0.003055082
0.004966769
0.003276847
0.001964871
0.001832792
0.001847903
0.00194292
0.002107751
0.002388811
0.004101114
0.01469585
0.009704001
0.009583327
0.009716913
0.01036697
0.01702035
0.01053598
0.007052192
0.006680063
0.006543111
0.00514466
0.004544536
0.004616932
0.004711971
0.004932876
0.006158541
0.00828475
0.008577907
0.008844522
0.01274769
0.007587544
0.004785704
0.003564161
0.003124816
0.003039267
0.004399822
0.004023403
0.003882491
0.004004845
0.004112705
0.00429262
0.004891807
0.005566759
0.004270636
0.004357045
0.004969335
0.007322556
0.0114195
0.005167634
0.002571957
0.002028354
0.00257521
0.002556456
0.002750345
0.003482364
0.003403141
0.003471411
0.003639976
0.003767293
0.003911296
0.004229927
0.004590512
0.003867873
0.003835724
0.003999234
0.003795837
0.004802879
0.01026113
0.003622136
0.001792762
0.001327545
0.001677082
0.002031886
0.0021395
0.002385299
0.002847222
0.0029667
0.003167987
0.003398739
0.003572727
0.00372553
0.003934369
0.004099308
0.003645755
0.003523315
0.003520787
0.003354702
0.003115814
0.004422103
0.009113047
0.002881294
0.001333638
0.00132444
0.001214859
0.001444148
0.001704071
0.001912386
0.002193013
0.002483711
0.002668566
0.002927143
0.003203321
0.003417946
0.003583797
0.003753393
0.003869386
0.003558458
0.00338059
0.003246837
0.003101251
0.002927603
0.003441726
0.003809747
0.007929941
0.002602568
0.001162084
0.00111004
0.001164646
0.001208466
0.001444768
0.001755815
0.002072326
0.002389946
0.00258834
0.002718196
0.002864493
0.003041607
0.003222626
0.003397685
0.003551974
0.003659854
0.003454668
0.003268508
0.003085778
0.002908994
0.002736069
0.002953938
0.003002629
0.003199044
0.006478072
0.002557796
0.001145164
0.001029536
0.001063721
0.001199919
0.001427389
0.001860667
0.002393154
0.002906115
0.003256523
0.003382167
0.003365782
0.003276295
0.003185037
0.003141445
0.003175096
0.003258285
0.003352841
0.003273395
0.003105
0.002903797
0.002722805
0.002548607
0.002595578
0.002598047
0.002539637
0.002571568
0.004980297
0.002712669
0.001173438
0.000807869
0.001000305
0.001150551
0.001422044
0.001965588
0.002830354
0.003769998
0.004457437
0.004765247
0.004682056
0.004356114
0.003928851
0.003498839
0.00315521
0.002953638
0.002890652
0.002923928
0.00292328
0.002825126
0.002670459
0.002510047
0.002358722
0.002347434
0.00234284
0.00232841
0.001666648
0.002201945
0.004410263
0.00153539
0.0008596214
0.0008867951
0.001070971
0.001317382
0.001822921
0.002706582
0.003697472
0.004314366
0.004540888
0.004543836
0.004384384
0.004037737
0.003579492
0.003119521
0.002739004
0.002483795
0.002369901
0.002371144
0.002416024
0.002407846
0.002343913
0.002263418
0.002197762
0.002231868
0.002310542
0.002319025
0.002285383
0.001996171
0.003427985
0.002913945
0.001152155
0.0009578423
0.0009875285
0.001170608
0.001528205
0.002194597
0.003003742
0.003565696
0.003896445
0.004055559
0.004078619
0.003978011
0.003673947
0.003120359
0.002608457
0.002228196
0.001980732
0.001864883
0.001858207
0.001917846
0.001971718
0.002005323
0.002061684
0.002221332
0.00253666
0.002875676
0.002993893
0.003129787
0.003778367
0.003437745
0.00787682
0.001754794
0.0009248851
0.0009559709
0.001047306
0.001249694
0.00167617
0.002311191
0.002974875
0.003664493
0.004099308
0.004234305
0.0042266
0.004217228
0.004208052
0.003908417
0.003028681
0.002420176
0.002038902
0.001814627
0.001709243
0.001700485
0.001763502
0.001932882
0.002337563
0.003104612
0.004042818
0.004643541
0.004532623
0.004433948
0.005137239
0.003897422
0.007130924
0.001615775
0.0008724335
0.0009455005
0.001067884
0.00129235
0.001708555
0.002332871
0.003229535
0.0041536
0.004270138
0.003960687
0.003690373
0.00367407
0.003817472
0.004092461
0.00378996
0.003068397
0.002541405
0.002176722
0.001967469
0.001974469
0.002365141
0.003310222
0.004898292
0.006618691
0.00741424
0.006872567
0.00589382
0.004649227
0.004721343
0.003166098
0.005674933
0.001560728
0.001117833
0.001040166
0.001109155
0.001310285
0.001725831
0.002470268
0.00375133
0.004488296
0.003494531
0.002863524
0.002712446
0.002862946
0.003196837
0.003640046
0.004097582
0.004014638
0.003543175
0.003370563
0.003656642
0.004926731
0.007462799
0.009437212
0.01009884
0.009082924
0.00721037
0.005347695
0.004084659
0.003096473
0.003022925
0.003068586
0.00350484
0.003457184
0.001276395
0.001106504
0.001061955
0.001121421
0.001309425
0.001757396
0.002695714
0.004344143
0.003669826
0.002380854
0.002082565
0.002114256
0.002363275
0.002805242
0.003446547
0.004286178
0.005279707
0.006280795
0.007091382
0.008019811
0.00886607
0.008281818
0.006948562
0.005553365
0.004574071
0.003839233
0.003204097
0.002641357
0.002055975
0.001973214
0.002068322
0.002024924
0.005766681
0.002209696
0.001074849
0.001027773
0.001026814
0.001094919
0.00128257
0.001776167
0.002940215
0.004350204
0.002721768
0.001899722
0.001710803
0.001674368
0.00174405
0.00190342
0.00214953
0.00246648
0.002817351
0.003144567
0.003360783
0.00334013
0.00313353
0.003068154
0.003159438
0.003173116
0.002916273
0.002414584
0.001831089
0.001425755
0.001457611
0.001548237
0.001545861
0.001477052
0.003141861
0.002201772
0.001082952
0.001021313
0.001016529
0.001080948
0.001260605
0.001752606
0.002910796
0.00377776
0.002624836
0.001905006
0.001668205
0.001534092
0.001447074
0.001386568
0.001355919
0.001352894
0.001373294
0.001418859
0.00150119
0.001633459
0.001807656
0.001954449
0.001987672
0.001878989
0.001638903
0.001373579
0.0011697
0.001099792
0.001180745
0.001279777
0.001308399
0.001326964
0.002576382
0.002358722
0.001145217
0.001063097
0.00104223
0.001092815
0.001246892
0.001654823
0.002545827
0.003214868
0.002894204
0.002306791
0.00195719
0.001745887
0.001569669
0.001397017
0.001253131
0.001154904
0.001102834
0.00109691
0.001137806
0.001215518
0.001305967
0.001376012
0.00139785
0.001363028
0.001286431
0.001204188
0.001159643
0.001154089
0.001179807
0.001212273
0.001221913
0.001238353
0.002312122
0.00267949
0.001258662
0.00114541
0.001100984
0.001129382
0.001244559
0.001531025
0.002127664
0.002693208
0.002821464
0.002756937
0.00250456
0.002216201
0.001957783
0.001674965
0.001419451
0.001238443
0.001127993
0.001072231
0.001064915
0.001098349
0.00115802
0.001225747
0.00128531
0.001327682
0.001364677
0.001384348
0.00138987
0.001379023
0.00134671
0.001300502
0.001260355
0.001284089
0.002413372
0.00470848
0.001628678
0.001355128
0.001233148
0.001212363
0.001273429
0.001443031
0.001791158
0.002178546
0.002415457
0.002624722
0.002813792
0.002792888
0.002533785
0.002146272
0.001745563
0.001454596
0.001280131
0.001178926
0.001130968
0.001129234
0.001165152
0.001226724
0.001301213
0.001391888
0.001471213
0.001533722
0.001573294
0.001578666
0.001548185
0.001508124
0.001516981
0.001719466
0.004157689
0.00236007
0.001709269
0.001469923
0.001356391
0.001348364
0.001420723
0.001584626
0.001801993
0.0019804
0.002180395
0.002503336
0.002870371
0.003031387
0.002735316
0.00219548
0.001751943
0.001495435
0.001350387
0.001265602
0.001226557
0.001227061
0.001258894
0.001316422
0.001391999
0.001460781
0.001516915
0.00155561
0.001573623
0.001587893
0.001653823
0.00186278
0.00260797
0.002872093
0.001437444
0.001384855
0.00134851
0.001355321
0.001397274
0.001472644
0.001572431
0.001664562
0.001762725
0.001987913
0.002399169
0.002872948
0.003085186
0.002688947
0.002093296
0.001728174
0.00154057
0.001429943
0.001360333
0.001323295
0.001314253
0.001337666
0.001382095
0.001424251
0.001456553
0.001472938
0.001469529
0.001454296
0.001448498
0.001479926
0.002845348
0.003544851
0.001724137
0.001544303
0.001453526
0.001424646
0.001431437
0.001453583
0.001476771
0.001494902
0.001516694
0.001607309
0.001867503
0.002318455
0.00277424
0.002879434
0.002410663
0.001936608
0.001702413
0.001582378
0.001501942
0.001441799
0.001401402
0.00139344
0.001412587
0.001434174
0.001449519
0.001454525
0.001453804
0.001463429
0.001505894
0.001597339
0.003193483
0.006228205
0.002320439
0.001870091
0.001668313
0.001554915
0.001504625
0.001479932
0.001455173
0.001417588
0.001384551
0.001396826
0.001518093
0.001806265
0.002211801
0.002513852
0.002461318
0.00207457
0.001795158
0.001674399
0.001605195
0.001544739
0.001494627
0.001466776
0.001466821
0.001469724
0.001465162
0.001452717
0.001446247
0.001482725
0.001620286
0.001995722
0.004948012
0.003595328
0.001823824
0.001657311
0.00156171
0.001500278
0.001459686
0.001418819
0.001364512
0.001306112
0.001280085
0.001322929
0.001476299
0.001735579
0.002000172
0.002115182
0.002014846
0.001793686
0.001673483
0.001629678
0.00159352
0.001554177
0.001522512
0.001511615
0.001501153
0.001479646
0.001446563
0.001410537
0.00140754
0.001493924
0.00284193
0.006584079
0.002584232
0.001610581
0.001543187
0.001482069
0.001429232
0.001377151
0.001316275
0.001247417
0.001195526
0.001189658
0.001255576
0.001400029
0.001575373
0.001692399
0.001713701
0.00165726
0.001584882
0.001570248
0.001569569
0.001555354
0.001532032
0.001516934
0.001504794
0.001485358
0.001457785
0.001419963
0.001327554
0.002003916
0.00467195
0.005910547
0.002399592
0.001941261
0.001700603
0.00153449
0.001411528
0.001307428
0.001210253
0.00112858
0.001085187
0.001096994
0.001167415
0.001266845
0.001346833
0.001386014
0.001404623
0.001419324
0.001449644
0.001480761
0.001496863
0.001489621
0.001473815
0.001474537
0.001486734
0.001503461
0.001585995
0.001796271
0.003837419
0.005200599
0.002102869
0.001740564
0.0015265
0.001367629
0.001244241
0.001138185
0.001048227
0.0009881985
0.0009729652
0.0009992602
0.001047414
0.001091739
0.001122776
0.001158011
0.001213503
0.001289171
0.001349447
0.001396624
0.001410028
0.001386882
0.001406609
0.001488602
0.001540051
0.00170167
0.0034718
0.004744736
0.001947345
0.001598314
0.001366023
0.001219221
0.001088393
0.000983982
0.0009106211
0.0008724361
0.0008660723
0.0008810039
0.000902937
0.0009284147
0.0009694415
0.001038541
0.001137394
0.001203518
0.001277529
0.001328961
0.00129668
0.001301875
0.001544695
0.001654778
0.003468048
0.004389024
0.001826525
0.001160338
0.001057852
0.0009681864
0.000884928
0.0008176753
0.0007737538
0.0007591699
0.0007662045
0.0007824982
0.0008068212
0.0008484674
0.0009215684
0.00103854
0.001082074
0.001174754
0.001288128
0.001254259
0.001167352
0.001734382
0.003451715
0.004096309
0.001673981
0.001068467
0.0009626014
0.0008472208
0.0007590809
0.0007173974
0.0007092691
0.0007139064
0.0007243433
0.0007449476
0.0007849353
0.0008669547
0.001022908
0.001013497
0.001129929
0.001328607
0.001279635
0.001737111
0.003839077
0.003942288
0.001951343
0.001190457
0.0008412688
0.0007037059
0.0007660263
0.0007528148
0.0007236449
0.0007160287
0.0007322879
0.0007758306
0.000891836
0.001112719
0.0009782686
0.001180545
0.001560802
0.002401911
0.004131298
0.003448004
0.001870534
0.001484421
0.001249279
0.0009448873
0.0007748439
0.0007575541
0.0007791877
0.0008388643
0.001060548
0.001518412
0.001855496
0.002273538
0.003897172
0.002765846
0.00166193
0.001554606
0.001578194
0.001724817
0.002905146
0.0123298
0.008044148
0.00762991
0.007314994
0.007473197
0.007522841
0.007717958
0.008418317
0.009809074
0.01609408
0.009428366
0.006023966
0.00549579
0.00416443
0.003613048
0.004985044
0.005000399
0.005105068
0.005148119
0.00522714
0.005311193
0.004403288
0.005341332
0.006400104
0.006522691
0.010564
0.006302204
0.00313213
0.00387124
0.003799138
0.003411363
0.003391211
0.004046961
0.004061064
0.004135568
0.004155681
0.004179566
0.004250832
0.003902884
0.004290168
0.004557449
0.004342802
0.003837148
0.007642982
0.005566711
0.003388585
0.003322923
0.002638755
0.003052206
0.003088541
0.003064683
0.003236136
0.003645619
0.003767073
0.00385931
0.003877911
0.003863888
0.003833813
0.003634908
0.003697683
0.003673554
0.00353497
0.003250412
0.004204058
0.00484416
0.00791755
0.004193009
0.001908596
0.002297639
0.00244263
0.002270262
0.002585836
0.002749857
0.002892692
0.003143941
0.00348689
0.003682158
0.003823202
0.003879762
0.003875596
0.003815395
0.003639531
0.003545899
0.003382918
0.00315876
0.00293623
0.003349551
0.003455331
0.003368972
0.007621937
0.003275997
0.001452593
0.001536085
0.001795483
0.001933747
0.001975108
0.00224424
0.002451962
0.002660493
0.00293944
0.003262868
0.003529394
0.00374746
0.003885203
0.003951497
0.003927491
0.003784673
0.003627165
0.003399063
0.003094953
0.002863616
0.002953161
0.00294807
0.002831072
0.003212814
0.006992279
0.00267125
0.001155172
0.001170792
0.001278947
0.001467806
0.001606501