/*--------------------------------*- C++ -*----------------------------------*\
  =========                 |
  \\      /  F ield         | OpenFOAM: The Open Source CFD Toolbox
   \\    /   O peration     | Website:  https://openfoam.org
    \\  /    A nd           | Version:  6
     \\/     M anipulation  |
\*---------------------------------------------------------------------------*/
FoamFile
{
    version     2.0;
    format      ascii;
    class       volScalarField;
    location    "49.8";
    object      epsilon;
}
// * * * * * * * * * * * * * * * * * * * * * * * * * * * * * * * * * * * * * //

dimensions      [0 2 -3 0 0 0 0];

internalField   nonuniform List<scalar> 
140018
(
0.008118675
0.004695639
0.004346121
0.00671664
0.007440227
0.00444573
0.003231472
0.002451426
0.002298024
0.002686935
0.003370751
0.005225393
0.004801297
0.002904023
0.002528703
0.00206815
0.001966022
0.001865066
0.001796785
0.001762093
0.001755849
0.002084777
0.002816151
0.004497944
0.004062498
0.002078535
0.001543629
0.001366554
0.001291793
0.001381162
0.001437617
0.001443411
0.001405991
0.001353733
0.001337207
0.001424023
0.001940102
0.004137928
0.002578592
0.001588198
0.001368454
0.00122074
0.001090362
0.001036563
0.001109985
0.001158833
0.001153058
0.001129505
0.001124353
0.001191778
0.001422507
0.002381581
0.003718569
0.002037268
0.001548551
0.001422476
0.001339033
0.00125778
0.001174691
0.001101174
0.00107882
0.001086571
0.00110235
0.001145832
0.001264828
0.001596213
0.002304689
0.004843176
0.002690681
0.001719706
0.001583241
0.001533977
0.001500174
0.001464283
0.001424802
0.00138598
0.001354475
0.001335622
0.001345127
0.00136613
0.001387567
0.001509531
0.001696731
0.002807869
0.003245121
0.002020818
0.001630429
0.001582704
0.001567492
0.001544464
0.001506436
0.001454006
0.001395251
0.001338195
0.001286694
0.001241488
0.001210858
0.001223125
0.0013107
0.001511487
0.002176775
0.005234788
0.002245438
0.001633582
0.001595
0.001606554
0.001613724
0.001598592
0.001556696
0.001494717
0.001425649
0.001356995
0.00130048
0.001271197
0.001277415
0.001329084
0.001438728
0.001624942
0.001999838
0.003879869
0.00216522
0.001636635
0.00164182
0.001661832
0.001682847
0.001677041
0.001642156
0.001584699
0.001517563
0.00144895
0.001394655
0.001373702
0.001393662
0.001459453
0.001579794
0.001780885
0.002198925
0.0041615
0.003863401
0.002059986
0.00176561
0.001720048
0.001740568
0.001738243
0.001710695
0.001659549
0.001594488
0.001526981
0.00147543
0.001454848
0.00147722
0.001552219
0.001691719
0.001958726
0.002893214
0.007205152
0.003241182
0.00202313
0.00179024
0.001784578
0.001782314
0.001757337
0.001714151
0.001658494
0.001595231
0.001542876
0.001517493
0.00153724
0.001616897
0.00178699
0.002166758
0.004071994
0.006447971
0.003126521
0.001947821
0.001837243
0.001826529
0.001793923
0.001753213
0.00171142
0.001657326
0.001607463
0.001580544
0.001598079
0.001684666
0.001908627
0.002795752
0.006859301
0.004357135
0.002306275
0.001957582
0.001904804
0.001843916
0.00179192
0.00176227
0.001722994
0.001686058
0.001669887
0.001697685
0.001809824
0.002117773
0.00389438
0.007371325
0.003427438
0.002349722
0.002122576
0.001959594
0.001862288
0.001828111
0.001808207
0.00180416
0.001829926
0.001919353
0.002116835
0.002928059
0.006624809
0.007090498
0.004191617
0.003163839
0.00229725
0.002059165
0.001962215
0.001962604
0.00203626
0.002184035
0.002793009
0.003883116
0.006592426
0.006230109
0.00399448
0.002937436
0.002306309
0.002325679
0.002922623
0.003991971
0.006508297
0.006023
0.004118102
0.004251321
0.00671492
0.004971664
0.003403595
0.003443513
0.003703907
0.00420274
0.005021852
0.006220922
0.007689019
0.00956279
0.01643449
0.005426901
0.003455346
0.002697382
0.001897102
0.001690061
0.001593961
0.001593607
0.0017264
0.002074813
0.002705857
0.003642799
0.005577694
0.00853169
0.01400741
0.006402402
0.003429658
0.002445194
0.002138721
0.001881216
0.001681295
0.001481614
0.001317488
0.001237728
0.001272291
0.001476058
0.00192535
0.002633443
0.003526643
0.005200024
0.01094023
0.006056834
0.003189382
0.002319996
0.002086751
0.001979673
0.001807837
0.001605319
0.001522659
0.001407653
0.00130388
0.001343964
0.001058589
0.001224631
0.001552281
0.002062618
0.002731354
0.004066894
0.008594027
0.00542561
0.002745613
0.002031156
0.001915311
0.001816877
0.001682007
0.001633929
0.001500132
0.001368782
0.001255959
0.001183642
0.001200565
0.001079812
0.001063419
0.001038585
0.001322675
0.001733828
0.002249556
0.00330796
0.006921528
0.005192896
0.002558117
0.001828063
0.001729549
0.001701427
0.001850385
0.001962344
0.00188865
0.001718796
0.001437252
0.001247552
0.001156033
0.00113182
0.001079094
0.001013462
0.0009622833
0.00106054
0.001211048
0.001597797
0.002040521
0.002908534
0.006190194
0.003452269
0.001811179
0.001585099
0.001605778
0.002016021
0.002132072
0.002266334
0.002338647
0.002356465
0.002042379
0.00163711
0.001453992
0.001357961
0.001263065
0.001129503
0.001013185
0.001029112
0.00120429
0.001347929
0.001732159
0.002252642
0.004076364
0.004818405
0.002213928
0.001522407
0.001482158
0.001520076
0.002108841
0.002224382
0.002254969
0.002325475
0.002421435
0.002547699
0.002111209
0.001858301
0.00166663
0.001462246
0.001264286
0.001174607
0.001318669
0.001870087
0.001621876
0.002181165
0.002901874
0.004392389
0.01113582
0.003414709
0.001714864
0.001363563
0.001445522
0.002245357
0.001926645
0.00184214
0.001879264
0.00201454
0.002206831
0.002414831
0.00252109
0.002233423
0.001973249
0.001889823
0.002028848
0.002616065
0.004326953
0.005353566
0.005809804
0.004098948
0.003942276
0.004000407
0.006238203
0.003305171
0.001598025
0.001273643
0.001267233
0.001840375
0.001581501
0.001566435
0.001663899
0.001867868
0.002182563
0.002610688
0.003129151
0.003670731
0.004096079
0.004508831
0.005091214
0.005632081
0.005402086
0.004292032
0.003351425
0.001976803
0.001854873
0.001856063
0.002817369
0.003393995
0.001545476
0.001176659
0.00180736
0.001577458
0.00142514
0.001391517
0.001408488
0.001486792
0.001626941
0.001826092
0.002066686
0.002316226
0.002522464
0.002600445
0.002467514
0.002229547
0.00216538
0.002218429
0.002427343
0.002372542
0.001246475
0.001370961
0.002335408
0.003579097
0.001575315
0.001080225
0.00172368
0.001517692
0.001447197
0.001352812
0.001270583
0.001220376
0.001200149
0.001201552
0.001211577
0.001223966
0.001238577
0.001268757
0.001334834
0.001453165
0.00157706
0.001645646
0.001634398
0.001420866
0.001201705
0.00150664
0.002761601
0.003785026
0.001769402
0.001101362
0.001907825
0.001810564
0.001672836
0.001506846
0.001336966
0.0012018
0.001109035
0.001049874
0.001011185
0.0009893298
0.0009875216
0.001011767
0.001061446
0.001127382
0.001189928
0.0012349
0.001270575
0.001307141
0.001346167
0.00173749
0.003265179
0.00396628
0.002007711
0.001291116
0.002456254
0.002469212
0.002120853
0.001852835
0.001567517
0.001326687
0.001158691
0.001053711
0.0009860961
0.0009418101
0.0009204251
0.0009234002
0.0009508171
0.0009975275
0.001057647
0.001138861
0.001241975
0.001377823
0.001570403
0.002028979
0.003853334
0.004157012
0.002211699
0.001537915
0.001075242
0.001904988
0.002385656
0.002339707
0.00196507
0.001582046
0.001301033
0.001135861
0.001039995
0.0009766713
0.0009392642
0.0009270195
0.0009408509
0.0009794218
0.00104632
0.001140574
0.001256256
0.001376946
0.001789968
0.002306744
0.004410134
0.004572462
0.002449484
0.001845692
0.001374549
0.00156614
0.002118503
0.002437838
0.002399415
0.001964796
0.001530772
0.001270195
0.001136077
0.001053122
0.001002718
0.0009782418
0.0009810851
0.001013472
0.001080907
0.001181816
0.0013258
0.001537176
0.001923679
0.002512353
0.004887888
0.008000993
0.003280422
0.002201008
0.001736429
0.001328392
0.001550082
0.001969658
0.00232062
0.002298004
0.00183471
0.001444199
0.001254919
0.00114949
0.001087927
0.00105462
0.001050591
0.001077829
0.001132427
0.001208141
0.001290179
0.001652878
0.00205188
0.003124634
0.007827336
0.004861702
0.002648998
0.002081813
0.001656494
0.001559386
0.001692113
0.001928598
0.002154484
0.002043375
0.001637728
0.001377169
0.001246046
0.001178219
0.001144501
0.001143543
0.001163817
0.00122575
0.001313652
0.001459741
0.001784143
0.002255782
0.004219562
0.008357045
0.003563354
0.002385647
0.001901396
0.00148755
0.001475401
0.001542672
0.001756257
0.001834786
0.001733753
0.001484005
0.001331533
0.00126584
0.001230912
0.001238606
0.001244806
0.001326478
0.001376583
0.00168861
0.002063734
0.00305822
0.007083932
0.007888379
0.003356199
0.002246268
0.001795367
0.001452351
0.001173559
0.001325019
0.001437086
0.001559013
0.001507382
0.001392101
0.001332822
0.001282846
0.001322152
0.001274177
0.001453234
0.00167947
0.002008157
0.002934455
0.006695904
0.007385723
0.003134025
0.002103962
0.001688829
0.001398563
0.001170082
0.001006097
0.001249335
0.001365744
0.001388791
0.001370499
0.001262941
0.001419009
0.001572311
0.001730158
0.002004979
0.002860805
0.006315179
0.006602593
0.002834063
0.00193974
0.001584935
0.001335885
0.001189809
0.001123867
0.001150003
0.001255978
0.001400673
0.001524874
0.001652636
0.001858902
0.002122507
0.002881378
0.006216069
0.005921414
0.003267268
0.002168903
0.001589606
0.001411536
0.001343081
0.001375606
0.001490726
0.001650984
0.001805638
0.00199409
0.002668243
0.003845436
0.006233614
0.004848364
0.002791758
0.002483382
0.002391214
0.002446997
0.002623629
0.002883857
0.003166876
0.003558673
0.006021775
0.01308948
0.009032124
0.009388367
0.009909793
0.01039
0.01093141
0.01194407
0.01984561
0.007727891
0.005306314
0.005021085
0.004080261
0.003744028
0.004116575
0.004527612
0.00491386
0.005288888
0.005737216
0.007390964
0.009836239
0.01037711
0.01534103
0.004522286
0.002378493
0.001947624
0.001862222
0.001833568
0.002008843
0.002335953
0.002728467
0.003146107
0.003561921
0.003956612
0.004447171
0.00504472
0.005324543
0.006259108
0.01324581
0.004001455
0.002486434
0.001615397
0.001167853
0.001044661
0.001657209
0.001832073
0.001981394
0.00218945
0.002481865
0.002846687
0.003237275
0.003589105
0.003959719
0.004267868
0.003778012
0.004052037
0.005580857
0.008140395
0.0128475
0.003424423
0.001594269
0.001176739
0.0009767961
0.001664574
0.001949121
0.002272739
0.002426716
0.002501854
0.002540946
0.002610306
0.002751287
0.002976895
0.003224803
0.003508562
0.003774533
0.003504129
0.003535664
0.003507524
0.00418648
0.005319177
0.01066589
0.003400425
0.001556461
0.001084279
0.000942212
0.002028958
0.002730046
0.002998696
0.003083849
0.003088187
0.003040179
0.002960733
0.002856354
0.002770414
0.002762642
0.002848483
0.003027599
0.003230457
0.003123573
0.003131688
0.003051803
0.00297583
0.003359718
0.004281412
0.008230444
0.001962363
0.001170316
0.0009976537
0.002136464
0.002791936
0.002951242
0.002987269
0.002934276
0.002839241
0.002720922
0.002620437
0.002548491
0.002469789
0.002390458
0.002377587
0.002484278
0.002638725
0.002645281
0.002662975
0.002642158
0.002531584
0.002362764
0.002621324
0.003850076
0.003283703
0.001579818
0.001120794
0.001935658
0.002421551
0.002533101
0.002609929
0.002637876
0.002595174
0.002458043
0.002220791
0.002014377
0.001896559
0.001838932
0.001808907
0.001827163
0.001900143
0.002034864
0.002118834
0.002173103
0.002197447
0.0021728
0.002042881
0.001896269
0.002382535
0.004868582
0.003641824
0.001709422
0.001231051
0.001590596
0.002018534
0.002267784
0.002527872
0.002735128
0.002873057
0.002920503
0.002876029
0.002649585
0.002171584
0.001788146
0.001564386
0.001461349
0.001443805
0.001481885
0.001579628
0.00166877
0.001752436
0.001844049
0.001956649
0.002075926
0.002332094
0.002347145
0.003467885
0.008249466
0.002275451
0.001332654
0.001099138
0.001586408
0.001969198
0.002377431
0.002796191
0.003045804
0.003164758
0.003211682
0.003251217
0.003263818
0.002975343
0.002269176
0.001853298
0.00162151
0.001490247
0.001418402
0.001416621
0.001469098
0.001599027
0.001856439
0.002333937
0.002895293
0.003466211
0.003076841
0.004416653
0.008194779
0.002196301
0.001290058
0.001369849
0.001701703
0.002118729
0.00270558
0.003137254
0.003116803
0.002986715
0.002884361
0.002945665
0.003096821
0.003319274
0.002953542
0.002423721
0.002070301
0.001804814
0.001628048
0.001604143
0.001840926
0.002462463
0.003447128
0.004651019
0.005362019
0.005175127
0.005753142
0.004398343
0.007740772
0.004213341
0.001780382
0.001223066
0.001369623
0.001750312
0.002326025
0.003153682
0.003166258
0.002509098
0.002248361
0.002235033
0.002412467
0.002708608
0.003064909
0.00337502
0.003182054
0.002761627
0.002641937
0.002854615
0.003708564
0.005824574
0.007436551
0.008029641
0.007164018
0.005905294
0.004627716
0.004151994
0.002711955
0.004055682
0.008984671
0.002713287
0.001458542
0.001180386
0.001364007
0.001824971
0.002647411
0.003372394
0.002394876
0.001853446
0.001749097
0.001831689
0.00207203
0.002468489
0.003027548
0.003736711
0.004541271
0.005303949
0.005905292
0.006647727
0.007377246
0.007111286
0.005936866
0.004620851
0.003721151
0.003184951
0.002785216
0.002317525
0.00133886
0.001487003
0.002476374
0.002650667
0.001448633
0.00118771
0.001386461
0.001938797
0.003004814
0.003170738
0.001883793
0.001585681
0.001489769
0.001477615
0.001548061
0.001699819
0.001931185
0.002222654
0.002536577
0.002815009
0.002971565
0.002898559
0.002674671
0.002601557
0.002670738
0.002764466
0.002580453
0.002096164
0.001663398
0.001109378
0.000775432
0.001127377
0.00252228
0.002722882
0.001490414
0.001219833
0.001393171
0.001994371
0.003008269
0.002993254
0.001897329
0.001629049
0.001470474
0.001348198
0.001262608
0.00121287
0.001199645
0.001209335
0.0012319
0.00126561
0.001321737
0.001417245
0.001557001
0.001684145
0.001724731
0.001660895
0.001458204
0.00125305
0.001079067
0.0009949636
0.001030619
0.001411048
0.00289077
0.002866919
0.001559212
0.001266866
0.001381759
0.001879609
0.002663503
0.002884607
0.00236624
0.001976894
0.001728157
0.001515246
0.001325022
0.001165969
0.001058902
0.0009958458
0.0009649021
0.0009636731
0.0009941352
0.001050626
0.001116614
0.001166767
0.001182401
0.001163261
0.001124944
0.001091762
0.001083328
0.001118446
0.001206738
0.001592234
0.003109718
0.003094551
0.001657682
0.001327914
0.001373488
0.001680684
0.00223796
0.002616903
0.002631096
0.002520204
0.002238502
0.001923253
0.001616378
0.001333189
0.001131867
0.001012443
0.0009438166
0.000909446
0.000905906
0.0009292778
0.0009705582
0.001018945
0.001067805
0.001116205
0.00115611
0.001192472
0.00123633
0.001303267
0.001402386
0.001796031
0.003413978
0.003499621
0.001804739
0.00140365
0.001386569
0.001529205
0.001857185
0.002111201
0.002304797
0.00255649
0.002704391
0.002512446
0.002111463
0.001667706
0.00132645
0.00113163
0.001025699
0.0009639878
0.0009349132
0.0009359692
0.0009634438
0.001013147
0.00108212
0.001155348
0.001225853
0.001300101
0.001384291
0.001486507
0.001613554
0.002085275
0.00400365
0.006240611
0.00236326
0.001540667
0.001457511
0.001474444
0.00160422
0.001762544
0.001923396
0.0021701
0.002530326
0.002808187
0.002695028
0.002159493
0.00162487
0.001310637
0.001158021
0.001071901
0.001020825
0.0009997467
0.001007568
0.001043421
0.001102413
0.001169278
0.001243569
0.001331732
0.001443561
0.001592093
0.001787261
0.002801047
0.007094536
0.003400049
0.001842186
0.001639177
0.001547777
0.001529172
0.001555447
0.001595198
0.001710567
0.002006275
0.002448447
0.002800823
0.002662331
0.00201482
0.001528407
0.001309081
0.00120114
0.001134266
0.001094256
0.001080396
0.001094824
0.001129169
0.001175721
0.001236526
0.001316739
0.001429629
0.001596793
0.001904396
0.003627276
0.004195413
0.002205961
0.001635773
0.001540714
0.001483346
0.001449051
0.001424066
0.001443756
0.001582051
0.001912324
0.002365749
0.002646642
0.002373474
0.001764389
0.001450631
0.001321802
0.001249877
0.001201165
0.001173248
0.001169329
0.001182789
0.001213132
0.00125979
0.001320591
0.001392818
0.001462854
0.00199305
0.003833585
0.007407222
0.002963974
0.001945362
0.001728923
0.001590967
0.001481509
0.001395095
0.001340705
0.001368901
0.001531232
0.001857055
0.00220639
0.002298604
0.001942306
0.00155905
0.001403137
0.001335101
0.001293934
0.001266097
0.00125369
0.001256149
0.00128082
0.001328543
0.001406735
0.001527339
0.001713427
0.002593717
0.006184785
0.006609283
0.002770604
0.001814019
0.001635659
0.001508368
0.001397649
0.001315103
0.001282186
0.001334426
0.001504919
0.00173643
0.001892734
0.001829135
0.001588689
0.001422936
0.001365627
0.001348221
0.001331577
0.001322845
0.001325272
0.001341697
0.001380917
0.001453664
0.001577036
0.002415406
0.00549502
0.004214789
0.00224023
0.001695983
0.001519976
0.001396511
0.00129087
0.001224607
0.001215263
0.001275843
0.001390861
0.001497305
0.001508913
0.001453008
0.001380994
0.001342326
0.001353468
0.001364223
0.001365537
0.001375687
0.001381047
0.001399466
0.001447861
0.001856296
0.003404017
0.007179607
0.002960197
0.001951321
0.001493819
0.001350192
0.001240654
0.001154086
0.001109927
0.001114861
0.001160953
0.001206644
0.001223493
0.001234638
0.001258632
0.001280193
0.00132209
0.001364805
0.001369948
0.001409584
0.001410147
0.001400853
0.001724378
0.002502212
0.00547675
0.006481873
0.002678029
0.001785906
0.001354787
0.001210928
0.001092518
0.001023985
0.000992727
0.000995121
0.001005594
0.001019682
0.00105339
0.001111825
0.001177641
0.001255814
0.001349532
0.001337242
0.001434496
0.001447662
0.001752316
0.002413011
0.005203107
0.006014327
0.003192177
0.001911067
0.001287838
0.001007472
0.0009515849
0.0009042496
0.0008748763
0.0008644595
0.0008800792
0.0009251412
0.0009948063
0.001076464
0.001179365
0.001345383
0.001273686
0.001476799
0.002130254
0.003168803
0.00515262
0.004304073
0.001866684
0.001285405
0.001057353
0.0009034303
0.0008258944
0.0007991801
0.00081507
0.0008640044
0.0009375369
0.001026173
0.001139681
0.001395491
0.001654955
0.002121713
0.004605825
0.004167178
0.002236099
0.001810947
0.001302913
0.001027753
0.0009836619
0.0009979621
0.001051763
0.001138661
0.001262492
0.001649177
0.002434407
0.003018076
0.004930754
0.003283639
0.001962472
0.001823534
0.001831735
0.001920243
0.002079372
0.002355669
0.004048137
0.01473808
0.009726067
0.00960376
0.009739611
0.01039665
0.0170832
0.01059753
0.007091357
0.006714919
0.006573713
0.005165992
0.004560163
0.004629358
0.004722605
0.004943554
0.006171767
0.00829862
0.008595446
0.008865245
0.01279752
0.007668849
0.004839396
0.003602247
0.003156916
0.003067785
0.004429137
0.004045082
0.003898467
0.004016141
0.004120429
0.004298806
0.004897849
0.005570736
0.004273018
0.004359181
0.004975145
0.007329384
0.01143823
0.005249156
0.002613208
0.002062233
0.002613854
0.002593467
0.0027856
0.003517637
0.003431808
0.003493471
0.003654965
0.003775663
0.00391493
0.004230523
0.00458816
0.003866168
0.003835112
0.004002273
0.003795466
0.004804017
0.01027747
0.003678235
0.001823457
0.00135306
0.001710507
0.002071226
0.002181534
0.00242927
0.002892811
0.003007809
0.003203094
0.003425751
0.003590698
0.003735058
0.003936674
0.00409458
0.00364134
0.003519693
0.003521591
0.003355121
0.003116657
0.004430321
0.009154582
0.002908358
0.001348394
0.001340893
0.001235024
0.001472192
0.001740282
0.001955311
0.002240755
0.002535275
0.002720683
0.00297847
0.003246592
0.003449946
0.003606213
0.003767883
0.003873748
0.003558399
0.003379539
0.003247651
0.003103101
0.00293087
0.00345061
0.003835171
0.008010306
0.002608185
0.001164285
0.00111392
0.001171343
0.001221084
0.001468064
0.001790438
0.002120957
0.002448813
0.002649703
0.002780556
0.002928271
0.003102865
0.003276393
0.003441791
0.003586853
0.003681871
0.00346876
0.003279332
0.003094384
0.002916731
0.002744037
0.00296437
0.003022009
0.003242128
0.00658789
0.002553986
0.001138192
0.00102226
0.001059261
0.001200117
0.001439696
0.001900706
0.002462696
0.00300159
0.003365349
0.003492222
0.003471518
0.003374278
0.003272676
0.003217565
0.003240967
0.003315979
0.003401037
0.003309759
0.003133253
0.002926634
0.002741574
0.002564005
0.002608371
0.002611155
0.002560739
0.002611223
0.005058765
0.002694044
0.001160731
0.0007981954
0.0009898878
0.0011424
0.001425905
0.002003007
0.00291723
0.003898804
0.004613942
0.004940291
0.004861741
0.004527953
0.004084548
0.003632161
0.003264417
0.003042819
0.002966809
0.002992554
0.002983571
0.002876334
0.002710881
0.002539888
0.002378471
0.002356469
0.002340623
0.002342253
0.001667023
0.002190454
0.004343624
0.001514271
0.0008461302
0.0008711662
0.001058395
0.001311235
0.001841003
0.002762565
0.003771483
0.004379017
0.004601355
0.004623224
0.004500305
0.004179828
0.003725741
0.003255897
0.002856884
0.002581244
0.002451172
0.002443416
0.002483868
0.002470128
0.00239534
0.002297996
0.002207573
0.002208522
0.002255591
0.002262289
0.002180946
0.001923991
0.003301289
0.002887544
0.001131646
0.0009386134
0.0009688477
0.001157198
0.001527698
0.002217412
0.003040028
0.00359739
0.003919597
0.004073895
0.004109178
0.004046968
0.003797088
0.003251425
0.002720566
0.002321311
0.00205561
0.001923962
0.001907529
0.001964967
0.00201777
0.002041246
0.002065682
0.002157292
0.002380368
0.002655346
0.002777759
0.002918051
0.003548743
0.003313937
0.007643664
0.001735354
0.0009096262
0.0009391903
0.001030642
0.001238072
0.001678151
0.002330497
0.003004527
0.003692685
0.004085128
0.004173835
0.004149944
0.004165404
0.004224313
0.004035097
0.003130064
0.002475929
0.002070269
0.001830739
0.001718334
0.001708718
0.001763784
0.001890587
0.00217894
0.002754116
0.003538853
0.004149592
0.004180733
0.00421002
0.004986253
0.00386013
0.007203244
0.001594312
0.0008584043
0.0009308778
0.001053888
0.001283083
0.001711029
0.002349977
0.003261245
0.004146307
0.004142534
0.003762699
0.003506519
0.003524289
0.003716115
0.004066554
0.003899011
0.00311999
0.002557642
0.0021725
0.001945018
0.001912469
0.002174481
0.002862677
0.004113234
0.005682113
0.006713264
0.006574799
0.005852843
0.004730835
0.004866623
0.003291851
0.005935599
0.001538509
0.001098965
0.001022796
0.001093876
0.001299847
0.001725715
0.00248312
0.003776003
0.004347969
0.003265312
0.002693723
0.002577631
0.002743067
0.003089438
0.00355694
0.004065201
0.004055305
0.003544563
0.003267815
0.003415708
0.004369616
0.006458018
0.00841485
0.009555735
0.00912358
0.007599993
0.005779397
0.004419903
0.003317471
0.00317588
0.00329953
0.0036253
0.003429988
0.00126107
0.001091964
0.001047707
0.001107463
0.00129775
0.001752011
0.002702698
0.004307287
0.00344948
0.002266992
0.002000429
0.002024993
0.002251211
0.002662327
0.003269718
0.00407694
0.00504529
0.006032996
0.006813171
0.007666724
0.008588635
0.008465934
0.007412675
0.005981646
0.004892092
0.00409568
0.003420766
0.002812252
0.002197227
0.00204568
0.002140031
0.002057175
0.005821795
0.002190696
0.00106314
0.001016525
0.001015362
0.001082214
0.001267821
0.001758606
0.002919163
0.004223928
0.002645825
0.001880969
0.001689405
0.001637987
0.001686407
0.00182187
0.002045795
0.002347055
0.002694019
0.003035156
0.003289852
0.003334582
0.003190874
0.003139924
0.003223072
0.003262713
0.003060507
0.002599335
0.001980038
0.001485325
0.001482567
0.00156881
0.00156066
0.001482219
0.003197862
0.00218287
0.001071571
0.001010142
0.00100481
0.001066595
0.001239598
0.001715431
0.002825429
0.003667313
0.002666664
0.001955157
0.001704913
0.001557694
0.001455784
0.001380007
0.001337519
0.001328349
0.001347858
0.00139603
0.001482205
0.001618432
0.001800056
0.001963864
0.002020702
0.001932934
0.00170053
0.001429278
0.001203767
0.001106973
0.001174906
0.001279947
0.001313916
0.001341432
0.002633268
0.002338688
0.00113325
0.001051056
0.001029156
0.001076085
0.001221222
0.001604655
0.002442777
0.003120897
0.002933879
0.002420994
0.002048564
0.001818135
0.001623517
0.001430798
0.00126936
0.001159668
0.001101025
0.001090925
0.001128976
0.001205595
0.001297961
0.001373451
0.001403071
0.001375451
0.001302255
0.001216922
0.001167157
0.001155646
0.001178242
0.0012127
0.001229773
0.00125408
0.002351526
0.00265716
0.001245561
0.001132258
0.001086647
0.001111154
0.001217347
0.001481171
0.002032849
0.002590121
0.002790405
0.002819546
0.002629029
0.002332444
0.002053141
0.001743164
0.001459798
0.001259224
0.001137737
0.001075173
0.001062984
0.001093071
0.001151198
0.001219317
0.001280729
0.001325151
0.001364321
0.001385755
0.001392252
0.001382156
0.00135133
0.001307768
0.001269353
0.001297134
0.002438633
0.00467317
0.001612367
0.00134001
0.001217577
0.001193658
0.00124742
0.001400514
0.001715216
0.002083529
0.002337497
0.002587765
0.002840157
0.002897698
0.002659492
0.002250306
0.001811963
0.001489881
0.00129861
0.001188594
0.001134833
0.001128636
0.001161143
0.001220397
0.001293592
0.001383499
0.001463519
0.001527274
0.001568821
0.001577334
0.001551433
0.001517219
0.001532245
0.001736255
0.004191916
0.00233646
0.001690775
0.001452627
0.001337608
0.001324702
0.001386862
0.001530619
0.001729018
0.001901952
0.002100918
0.002440275
0.002856558
0.003099429
0.002856006
0.002289393
0.001802794
0.001520846
0.001364472
0.001273624
0.001230085
0.001226689
0.001255151
0.001309447
0.001383757
0.001452146
0.001508596
0.001548402
0.001568465
0.001585691
0.001655496
0.001869953
0.002627268
0.002846232
0.001422418
0.001369517
0.00133174
0.001335195
0.001371454
0.001437003
0.001523813
0.001608691
0.001699963
0.001913644
0.002325534
0.002834633
0.00312498
0.002789632
0.002160452
0.001759329
0.001556182
0.001439431
0.001366241
0.001325968
0.00131367
0.00133359
0.001376492
0.001417858
0.001449972
0.001466766
0.001464409
0.001450738
0.001446524
0.001478665
0.002844925
0.003516453
0.001707802
0.001529269
0.001438382
0.001408004
0.001412116
0.001430643
0.001449418
0.001462584
0.00148156
0.001562316
0.001804333
0.002247393
0.002732344
0.002906175
0.002480388
0.001973549
0.001717062
0.00158982
0.001506971
0.001444949
0.001402027
0.00139081
0.001408301
0.001428692
0.001443227
0.001447773
0.001446995
0.001456937
0.001499753
0.001590304
0.003179671
0.006187323
0.002301651
0.001854765
0.001654365
0.001541146
0.001490139
0.001464739
0.001439892
0.001402435
0.001368073
0.001374762
0.001481343
0.001750174
0.002152238
0.002482935
0.002479991
0.002111062
0.001808508
0.001677155
0.001605934
0.001545131
0.001493606
0.001463598
0.001461784
0.001463432
0.001457822
0.001444498
0.001437272
0.001472996
0.001609851
0.001984108
0.004920703
0.003570502
0.001810762
0.001645568
0.001550802
0.001489685
0.001449332
0.001409203
0.00135675
0.001298769
0.001269323
0.001302653
0.001440594
0.001688117
0.001958548
0.00209659
0.002022443
0.001803847
0.001671463
0.001624377
0.001588617
0.001549187
0.001516479
0.001504292
0.001492956
0.001470696
0.001436898
0.001400121
0.001395596
0.001480587
0.002817325
0.006551866
0.002569989
0.001601707
0.001535273
0.001475069
0.001423266
0.001372434
0.001312991
0.001244796
0.00119043
0.001178151
0.001233543
0.001367629
0.001541149
0.001667462
0.001700481
0.001652746
0.001578231
0.001559446
0.001558968
0.001545542
0.001522148
0.001506711
0.001494345
0.001474671
0.001446569
0.001408088
0.001313392
0.001983271
0.004630374
0.005888818
0.002391091
0.00193581
0.001696628
0.001531457
0.001409438
0.001306313
0.00120965
0.001126447
0.001078721
0.001083402
0.001146237
0.001242468
0.001325579
0.001369692
0.001390141
0.001405323
0.001434223
0.001465671
0.001482827
0.001476584
0.001460901
0.001461725
0.00147438
0.001489861
0.001570359
0.001775849
0.003795192
0.005190807
0.002100341
0.001739521
0.001526204
0.001368242
0.001245609
0.001139772
0.00104862
0.0009851835
0.0009647452
0.0009857185
0.001031028
0.001075899
0.00110833
0.001142412
0.001195705
0.001269943
0.001331206
0.00137998
0.00139533
0.001372607
0.001392023
0.001475527
0.001525552
0.001685027
0.003438766
0.004747293
0.001950336
0.001602076
0.001369337
0.001222851
0.001091752
0.0009862821
0.0009102218
0.0008680842
0.0008578768
0.0008703349
0.0008913678
0.0009159848
0.0009546554
0.001021161
0.001118022
0.001184813
0.001259552
0.001313847
0.001283089
0.00128725
0.00153135
0.001639354
0.003441179
0.004401024
0.001833699
0.001165531
0.001062748
0.0009727237
0.0008883412
0.0008188664
0.0007718435
0.0007539721
0.0007585132
0.0007732471
0.0007960375
0.0008355624
0.000906224
0.001020793
0.001065084
0.001157526
0.001272621
0.001242116
0.001156984
0.001720205
0.003433767
0.004114752
0.001683747
0.001075311
0.0009695353
0.0008524466
0.0007621322
0.0007174776
0.0007060034
0.000708101
0.0007168698
0.0007359094
0.0007739964
0.0008535975
0.001006412
0.0009981503
0.001114032
0.001313101
0.00126792
0.00172472
0.003818356
0.003968133
0.001966629
0.001201137
0.0008483924
0.0007083652
0.0007677126
0.0007511647
0.0007197711
0.000710345
0.0007247837
0.0007663609
0.0008796295
0.001096131
0.0009640989
0.001165676
0.001544854
0.002380095
0.004107969
0.003482839
0.001888314
0.00149605
0.001255772
0.0009457853
0.0007729432
0.0007534312
0.0007729198
0.0008304401
0.001048662
0.001498988
0.001832048
0.002247022
0.003860638
0.002771459
0.001661515
0.001550218
0.001569853
0.001712399
0.002882138
0.0123409
0.008051997
0.007638832
0.007326083
0.007487796
0.007542702
0.007745254
0.008456395
0.00986202
0.01620176
0.009437329
0.00603097
0.005502916
0.00416993
0.00361746
0.004989984
0.005005907
0.005112125
0.00515822
0.005241566
0.005329928
0.00442035
0.005365505
0.006431316
0.00656567
0.01064522
0.006321914
0.003140558
0.003879669
0.003806741
0.003417093
0.003395297
0.004050413
0.00406262
0.004136824
0.004158369
0.004185387
0.004260496
0.003913712
0.00430507
0.004575374
0.004365578
0.003851971
0.007671068
0.005597328
0.00340843
0.003337811
0.002650059
0.003063411
0.003098224
0.003072163
0.003241424
0.003649081
0.003767218
0.003856923
0.003874539
0.00386172
0.003834492
0.003637363
0.003702953
0.00368115
0.003547451
0.003259787
0.004216915
0.004844448
0.007934545
0.004235412
0.001925781
0.002316416
0.002460078
0.002286645
0.002603053
0.002766641
0.002907964
0.003157276
0.003498041
0.00368861
0.003824293
0.00387607
0.003868821
0.003808213
0.003632672
0.003541209
0.003380707
0.003161979
0.002939806
0.003356051
0.003457215
0.003373325
0.007647179
0.003315333
0.001469821
0.001553032
0.001814648
0.001954082
0.001997214
0.00226918
0.002478898
0.002688031
0.00296641
0.003288742
0.003550657
0.003762293
0.003892587
0.00395107
0.003921305
0.003774145
0.003616064
0.003388654
0.0030905
0.0028619
0.002954921
0.002949768
0.002836792
0.003226311
0.007036449
0.00269601
0.001166706
0.001182985
0.001293383
0.001484687