/*--------------------------------*- C++ -*----------------------------------*\
  =========                 |
  \\      /  F ield         | OpenFOAM: The Open Source CFD Toolbox
   \\    /   O peration     | Website:  https://openfoam.org
    \\  /    A nd           | Version:  6
     \\/     M anipulation  |
\*---------------------------------------------------------------------------*/
FoamFile
{
    version     2.0;
    format      ascii;
    class       volScalarField;
    location    "49.8";
    object      k;
}
// * * * * * * * * * * * * * * * * * * * * * * * * * * * * * * * * * * * * * //

dimensions      [0 2 -2 0 0 0 0];

internalField   nonuniform List<scalar> 
140018
(
0.004071034
0.003882028
0.003684115
0.003573824
0.004066658
0.004017876
0.003959563
0.003814325
0.003645449
0.003474364
0.003299952
0.00315286
0.003109405
0.003094528
0.003498808
0.003599319
0.003628067
0.003578368
0.003473931
0.003320762
0.003142353
0.002968853
0.002914135
0.002825821
0.00272196
0.002899609
0.0029166
0.002880143
0.002903997
0.003080346
0.003170862
0.003157795
0.003055326
0.002911052
0.002775397
0.002722518
0.002742392
0.002730419
0.002790973
0.002931851
0.002893176
0.002783966
0.002638875
0.002606338
0.002727859
0.002794102
0.00276444
0.002704962
0.002655835
0.002673976
0.002789128
0.002706191
0.002513835
0.002936585
0.003060227
0.003067901
0.003018216
0.002930308
0.002822381
0.002723514
0.00270739
0.002719024
0.002741431
0.002797321
0.002937886
0.003291836
0.003319354
0.00311449
0.002851207
0.003114816
0.003240809
0.003298935
0.003307162
0.00328358
0.003244015
0.003201254
0.003160034
0.003141767
0.003156954
0.003165894
0.003123369
0.003172631
0.003117157
0.002981391
0.002215034
0.002886511
0.003156126
0.003302517
0.003370666
0.003378877
0.003345212
0.003284048
0.003208306
0.003125925
0.003042758
0.002964499
0.002904391
0.002895763
0.002961162
0.003056551
0.003088993
0.003101062
0.002377458
0.002896114
0.003187549
0.003361353
0.003444053
0.003453984
0.003412605
0.003335776
0.003239212
0.003139269
0.003055138
0.003006238
0.003009553
0.003072202
0.003177856
0.003287483
0.003372033
0.003467486
0.00230446
0.002895561
0.003248592
0.003442299
0.003546545
0.003570462
0.003540246
0.003471381
0.003379171
0.003280525
0.00320056
0.00316421
0.003186389
0.003264406
0.003374571
0.003485246
0.003580653
0.003624762
0.002376154
0.002897416
0.003316638
0.003493313
0.003617609
0.003655507
0.00363673
0.003576971
0.003492382
0.00339612
0.003316416
0.003280454
0.003303774
0.00338251
0.003493433
0.003609664
0.003705243
0.00380364
0.003127811
0.003447028
0.003513276
0.00365027
0.003704185
0.003695787
0.003647796
0.00357664
0.003486781
0.003406311
0.003362311
0.003373881
0.003440587
0.00354535
0.003669863
0.003799492
0.003620235
0.003866365
0.003554102
0.003657794
0.003729962
0.003726532
0.003689155
0.003638089
0.00356138
0.003484098
0.003430868
0.003423088
0.003466528
0.003552361
0.003666272
0.003845881
0.003868243
0.003710049
0.003669848
0.003751078
0.003740682
0.003706426
0.00367844
0.003623099
0.003558908
0.00350335
0.003478017
0.003495674
0.0035573
0.003652199
0.003910623
0.003954886
0.003790505
0.003800476
0.003755283
0.003708776
0.003697823
0.00366946
0.003629662
0.00358621
0.003555142
0.003551255
0.003584369
0.003681402
0.003827161
0.003823009
0.003966491
0.003804273
0.003718078
0.003699807
0.003698404
0.003690905
0.003673769
0.003652347
0.003637795
0.003665842
0.003594539
0.003752858
0.003734362
0.00369037
0.003707629
0.003722839
0.003737119
0.003703466
0.003384032
0.003612335
0.003679015
0.003631537
0.00299579
0.003234629
0.003429963
0.003669234
0.004015422
0.004517771
0.005176754
0.005854152
0.006441064
0.006640362
0.003240108
0.003424341
0.003629972
0.003390573
0.003290199
0.003247681
0.003274912
0.003437163
0.003822286
0.004440117
0.00517968
0.005852039
0.006227289
0.006086346
0.00378828
0.004183966
0.004100593
0.004070033
0.003981643
0.003856817
0.003697794
0.003514163
0.003360227
0.003311199
0.003490135
0.00397858
0.004603063
0.005162271
0.005453366
0.005335989
0.003743331
0.004155835
0.004206658
0.004300174
0.004415576
0.004435591
0.004413715
0.004219836
0.003974476
0.003736858
0.003518767
0.003317358
0.003372191
0.003682204
0.004170011
0.004573557
0.004759653
0.004599541
0.003455991
0.003792798
0.003940786
0.004207278
0.004439639
0.004609951
0.004624265
0.004417094
0.004191623
0.003939611
0.00375596
0.003514294
0.003345814
0.003237366
0.003294848
0.003521325
0.003840665
0.004097575
0.004162274
0.00394097
0.003227512
0.003512041
0.003615129
0.003946906
0.004424519
0.00499543
0.005131385
0.005169494
0.004907881
0.00437757
0.004007022
0.003798436
0.00364136
0.003513668
0.003298626
0.003200632
0.003224206
0.003471744
0.003668522
0.003820734
0.003755138
0.003584254
0.003504417
0.003424353
0.003611153
0.004132833
0.005044993
0.005666751
0.00625478
0.006493314
0.006436155
0.005681703
0.004868565
0.004469564
0.004223111
0.003994778
0.003649354
0.003397846
0.003304327
0.003652897
0.0036766
0.003867438
0.004017875
0.003997981
0.003017273
0.003275863
0.003312047
0.003679317
0.004406856
0.005377566
0.006219663
0.006445273
0.006568264
0.006632176
0.006578282
0.005664876
0.005224044
0.004854887
0.004437183
0.003999344
0.003867661
0.004179805
0.005021796
0.004829475
0.005071203
0.005378755
0.005361776
0.005369615
0.003325681
0.003248403
0.003273918
0.003877708
0.00454926
0.004919535
0.005404182
0.005557064
0.005818227
0.006144248
0.006453358
0.006506063
0.005962322
0.00557351
0.005461396
0.005794762
0.007055077
0.009766579
0.01023225
0.009410857
0.007717865
0.006461134
0.005475956
0.004750326
0.003428275
0.003245362
0.003259844
0.003900095
0.004144634
0.004505038
0.004689632
0.004978524
0.005429439
0.006058145
0.006851461
0.007738937
0.008581605
0.009166166
0.009757592
0.01054169
0.01099437
0.01005354
0.008141836
0.005939563
0.004969671
0.004039543
0.003451045
0.002977224
0.003558856
0.003256765
0.00324609
0.003522623
0.003731206
0.004091168
0.004202974
0.004328753
0.004533768
0.004830533
0.005208942
0.005630248
0.006030357
0.006322268
0.00638047
0.006092021
0.00565467
0.00551942
0.005473529
0.005058202
0.004218614
0.003277176
0.002951536
0.002752405
0.003713152
0.003324471
0.003133113
0.003483957
0.003886181
0.00405495
0.004027282
0.003954916
0.003903526
0.003885073
0.003887263
0.003896026
0.003902906
0.003918406
0.003974735
0.004112186
0.00434122
0.004530568
0.004558236
0.00440237
0.003857813
0.003333356
0.003204422
0.003098484
0.003855057
0.003568067
0.003134705
0.003868996
0.0043068
0.004402487
0.004260015
0.004035319
0.003825896
0.003664126
0.003540245
0.003449004
0.003387256
0.003374063
0.003426134
0.003541275
0.003685216
0.00380136
0.003841756
0.00378206
0.003680637
0.003598005
0.003529879
0.003469673
0.003946679
0.003831236
0.003361082
0.005319847
0.005362905
0.005136542
0.004847595
0.004440384
0.004053494
0.003757412
0.003541436
0.003392471
0.003282992
0.003225163
0.003229913
0.003298474
0.003411279
0.003539394
0.003660304
0.003754394
0.003827787
0.003878629
0.003862413
0.00384059
0.003983462
0.003981351
0.003607378
0.00333988
0.004949702
0.005770776
0.005704807
0.005140447
0.004525272
0.004043385
0.003713237
0.003514575
0.003369208
0.003276561
0.003241823
0.003272368
0.003364034
0.0035048
0.003674379
0.003839007
0.004019543
0.004058376
0.004092068
0.004112984
0.004019127
0.004071888
0.003920794
0.003628288
0.004306394
0.005515004
0.006052709
0.005931875
0.005209471
0.004487067
0.003981082
0.003721783
0.00354502
0.003427252
0.003358673
0.003349809
0.003408668
0.003528797
0.003676306
0.003834743
0.00400775
0.004074811
0.00413395
0.004179122
0.004176224
0.004199689
0.004161027
0.00400554
0.00386981
0.004401522
0.005259389
0.005905641
0.005836226
0.005044013
0.00429924
0.003953739
0.003745441
0.00361493
0.003525797
0.003481789
0.003504455
0.003580405
0.003704585
0.003872957
0.003927244
0.003991791
0.004056929
0.004109754
0.004352796
0.00434296
0.004262747
0.004122536
0.004114304
0.004531197
0.005138274
0.005635396
0.00544668
0.004618469
0.004162089
0.003917866
0.003789617
0.003704517
0.003639289
0.003623768
0.003630674
0.003706376
0.003828033
0.003868185
0.003913347
0.003959963
0.004373651
0.00431401
0.004254713
0.004131211
0.003988559
0.004023642
0.004309712
0.004796828
0.005043645
0.00474614
0.004295482
0.004017234
0.003896231
0.00384967
0.003772616
0.003754093
0.003734803
0.003816899
0.003838442
0.00387151
0.003900869
0.003920529
0.004369202
0.004257893
0.004140541
0.003970667
0.003782442
0.003601894
0.00387107
0.00418785
0.004328329
0.004217736
0.004013091
0.00389495
0.003884638
0.003818205
0.003835329
0.003815132
0.003825523
0.003864174
0.003907793
0.00392448
0.00422321
0.004065734
0.003902295
0.00370424
0.003486864
0.003320697
0.003254906
0.003598245
0.003813829
0.003846157
0.003783351
0.003796246
0.003796751
0.003796515
0.003791204
0.003802151
0.003844497
0.003821843
0.003872761
0.00368897
0.003517296
0.003339751
0.003180699
0.003088634
0.003115681
0.003261986
0.003460413
0.00361285
0.003656976
0.003686368
0.003736435
0.003755393
0.003750016
0.003736181
0.003462203
0.003319071
0.003168534
0.003038893
0.002950026
0.002946204
0.003043511
0.003214824
0.003391539
0.003492072
0.003554221
0.003656417
0.003720592
0.003601695
0.002973579
0.002871339
0.0028082
0.002807908
0.002882959
0.003024107
0.003193845
0.003320169
0.003396959
0.003454998
0.005795421
0.006304011
0.006802087
0.007161157
0.007397662
0.007549944
0.007621496
0.007666667
0.004166869
0.004689665
0.004996794
0.005211446
0.005671867
0.006226464
0.006705555
0.007094355
0.007396506
0.007597093
0.007791411
0.00788589
0.007386835
0.00662394
0.003289959
0.003551573
0.003805752
0.004015494
0.00423238
0.00465253
0.005231732
0.005848843
0.006449963
0.006986193
0.007391233
0.007733825
0.00788962
0.007504334
0.006817383
0.006766198
0.002786793
0.003008229
0.003011019
0.003034411
0.003181374
0.004002338
0.00446906
0.004844579
0.00524645
0.005714523
0.00624403
0.006769751
0.007161804
0.007463008
0.007577653
0.007538994
0.006970171
0.006872328
0.006614311
0.006036848
0.002573652
0.002688824
0.002826537
0.002919249
0.004079558
0.004817843
0.005404598
0.005789368
0.006008883
0.006142253
0.006274689
0.006450057
0.006684415
0.006881255
0.007065264
0.00721242
0.007279928
0.006776037
0.006802568
0.006523266
0.005942526
0.005425591
0.002510004
0.002658609
0.002746753
0.002948525
0.004899778
0.006234584
0.006951628
0.007281358
0.007405684
0.007396653
0.007282554
0.007080901
0.00686206
0.006699718
0.006609025
0.006606436
0.006652657
0.006738691
0.006430266
0.006345419
0.006256857
0.005735912
0.005100323
0.004386381
0.002594851
0.002830291
0.003072995
0.00520345
0.006664287
0.007350223
0.007723458
0.007805918
0.007686924
0.007462351
0.00722224
0.007005632
0.006733183
0.006399786
0.006172681
0.00606704
0.006007609
0.006052472
0.005879005
0.005814925
0.005667871
0.005329729
0.004695808
0.003898758
0.002701774
0.003004038
0.003227836
0.004859131
0.006077854
0.006714288
0.007203667
0.007505178
0.007567
0.007349907
0.006846112
0.00636181
0.006027468
0.005776401
0.005542715
0.00542568
0.005341028
0.00530572
0.005331885
0.005238805
0.005229704
0.005223641
0.005020967
0.004501394
0.003898046
0.003510521
0.002564498
0.002903416
0.003188662
0.004093189
0.005202942
0.006079738
0.006937373
0.007659144
0.008182281
0.008403807
0.008344267
0.007829051
0.006795906
0.005905911
0.005320151
0.004976202
0.004834009
0.004772342
0.004767216
0.004754986
0.004729143
0.004848687
0.00514695
0.005389391
0.005258873
0.005079293
0.004836573
0.004565395
0.002715549
0.003014445
0.003355029
0.004412533
0.005387679
0.006437273
0.007557089
0.008393249
0.008925775
0.009162616
0.009234625
0.009113523
0.008335084
0.006886193
0.005978863
0.005416505
0.005071353
0.004833764
0.00470126
0.004656488
0.004819302
0.005390274
0.006435845
0.007301261
0.006816752
0.006968024
0.00692176
0.006514011
0.002935084
0.003219745
0.003678168
0.004525439
0.005630664
0.007044907
0.008217814
0.008648535
0.008731554
0.008575781
0.008619433
0.008756678
0.008897089
0.007988681
0.007046757
0.006356841
0.005815677
0.005432875
0.005370118
0.005886905
0.007139529
0.009052342
0.01080652
0.01119174
0.009192197
0.007623843
0.007156922
0.006631707
0.002752086
0.003045843
0.0033125
0.003783868
0.004785735
0.006112315
0.007891839
0.008253775
0.007474704
0.007079149
0.007021854
0.007338745
0.007869524
0.00847428
0.008934193
0.008512066
0.007848311
0.007695722
0.008157324
0.009837874
0.01310339
0.01484612
0.01459168
0.01286102
0.01056458
0.008280052
0.005952234
0.005351828
0.005046807
0.004320792
0.002860843
0.00307995
0.003350211
0.00387746
0.005005771
0.006711469
0.008355266
0.006799666
0.005926882
0.005762333
0.005973275
0.00649595
0.007296893
0.008353541
0.009602209
0.01090603
0.01203023
0.01286529
0.01384596
0.0144935
0.01340417
0.01135416
0.009087997
0.007874345
0.006969583
0.006035925
0.00440364
0.003481802
0.00304191
0.00270344
0.002963236
0.003158142
0.003418694
0.003986286
0.005267611
0.007372461
0.00761999
0.005506231
0.005121191
0.005026057
0.005076448
0.005267976
0.005587348
0.006023674
0.006535188
0.007049741
0.007469254
0.007663176
0.007485629
0.007081567
0.006953612
0.00699187
0.006688344
0.005968473
0.005337964
0.004354101
0.003272702
0.002581849
0.002728014
0.002909472
0.003059648
0.00324647
0.003500212
0.004035098
0.005425564
0.007454176
0.007160414
0.005366625
0.005045487
0.004863086
0.004709657
0.004590009
0.004499643
0.004446622
0.004423141
0.00442699
0.004470993
0.004587923
0.004807352
0.005107833
0.005329879
0.005319452
0.005064512
0.004523199
0.003943387
0.00342293
0.003129682
0.003115633
0.003120421
0.00318477
0.003165366
0.003345216
0.003590059
0.00401963
0.005231155
0.006880234
0.007012426
0.006038377
0.005593688
0.005300702
0.005006314
0.004699364
0.004391859
0.004132803
0.003940224
0.003819422
0.003786942
0.003854516
0.004001422
0.004169534
0.004279316
0.004271718
0.004134557
0.003914682
0.003700845
0.003529083
0.00343107
0.003449077
0.003369773
0.003319439
0.003282519
0.003452916
0.00368243
0.003979388
0.004821511
0.006093757
0.006771348
0.0066685
0.00654653
0.006215839
0.005783024
0.005297778
0.004776113
0.00433012
0.004007815
0.003788828
0.00366723
0.003646923
0.003714566
0.00383264
0.003954203
0.004041292
0.004093392
0.004077527
0.004012286
0.003923418
0.003824564
0.003779555
0.003606324
0.003471207
0.00338892
0.003547365
0.00375721
0.003932361
0.00444703
0.005299217
0.005898452
0.006314123
0.006807397
0.00712596
0.006878093
0.006270953
0.00550236
0.00481042
0.004336891
0.004027006
0.003827649
0.003730682
0.003731639
0.003810481
0.003936474
0.004088043
0.004204776
0.00425594
0.004260859
0.004228159
0.00414232
0.004083606
0.003866852
0.003669846
0.003581012
0.003679415
0.003857002
0.003923204
0.004192337
0.004644387
0.005124195
0.005584815
0.006197945
0.006950564
0.00751174
0.007373598
0.006492225
0.005486145
0.004797053
0.004388099
0.004121736
0.003954735
0.003881846
0.003894221
0.003971064
0.004091543
0.00417952
0.004230053
0.00425364
0.004253132
0.00421629
0.004227369
0.004084099
0.003866971
0.003915115
0.004067472
0.004050315
0.004127818
0.004314172
0.004525704
0.004750188
0.005163753
0.005928833
0.00689255
0.007640823
0.007448444
0.006284878
0.005305785
0.004773166
0.004454032
0.004235263
0.004094059
0.00402622
0.004033731
0.00407222
0.004098599
0.004112126
0.004115099
0.004093638
0.004090114
0.004142401
0.004069999
0.004070606
0.004206809
0.004354829
0.004314502
0.004357064
0.004397754
0.00443298
0.004552476
0.004956422
0.005762464
0.006783748
0.007434209
0.006952647
0.005788793
0.005095713
0.004735049
0.004494515
0.004312625
0.004191613
0.004135948
0.004102015
0.004078965
0.00406074
0.004044461
0.004021846
0.004035033
0.003918023
0.003822109
0.004099958
0.004172695
0.004307526
0.004228621
0.004189544
0.004159023
0.004095066
0.00406839
0.004243496
0.004755398
0.005618929
0.006470097
0.006751026
0.006078843
0.005282852
0.004873071
0.00463014
0.004460384
0.004337279
0.004243505
0.004167059
0.004113798
0.004059712
0.003998025
0.003958305
0.003953685
0.003811125
0.003635518
0.004278786
0.004346584
0.004420908
0.004277153
0.004174603
0.00407354
0.003984423
0.003995801
0.004223003
0.004721852
0.005336753
0.005769965
0.005725222
0.005228279
0.004809146
0.004592939
0.004473666
0.004376917
0.004287602
0.004201
0.004141328
0.004071181
0.004029051
0.00403375
0.00396567
0.003790958
0.004296272
0.004338788
0.004355411
0.004145908
0.004003494
0.003868968
0.003792076
0.003847501
0.004069317
0.004410623
0.004726935
0.004843134
0.004777578
0.004581307
0.004403815
0.004337236
0.004300244
0.004242934
0.004137803
0.004063054
0.003976057
0.003928784
0.003841157
0.003737852
0.004123324
0.004063297
0.004043472
0.004002735
0.003771683
0.003615662
0.003493962
0.003464209
0.003549979
0.003726143
0.003899422
0.004014573
0.004105886
0.004162232
0.00412175
0.00410161
0.00412144
0.004111875
0.003980894
0.003936629
0.003844575
0.003734011
0.003642196
0.003459295
0.003925591
0.003798387
0.003718468
0.003626926
0.003361205
0.003204079
0.003131341
0.003134565
0.003202993
0.003285489
0.003377819
0.003509911
0.003663247
0.003752118
0.003788614
0.003856757
0.003911499
0.003777216
0.003807106
0.003687031
0.003557693
0.003404348
0.003649727
0.00355224
0.00337301
0.003249554
0.003129073
0.002942467
0.002847617
0.002815266
0.002837005
0.002915871
0.003048133
0.003210369
0.00334203
0.003434692
0.00360274
0.003682139
0.003585009
0.003650623
0.003552883
0.003307862
0.003200994
0.003050328
0.002911041
0.002787912
0.002684258
0.002624545
0.002616761
0.002669948
0.002779697
0.002923217
0.003052058
0.003157813
0.003386022
0.003473061
0.003336702
0.003365543
0.002775423
0.002653937
0.00255148
0.002457442
0.002425678
0.002431693
0.002481827
0.002574434
0.002693087
0.002799795
0.002894389
0.003139162
0.00326997
0.003125717
0.002317714
0.002292335
0.002300399
0.002346034
0.002424878
0.002522321
0.002605571
0.002679892
0.006684576
0.007030785
0.007252578
0.007325183
0.007348752
0.007366042
0.005361565
0.005922669
0.006388639
0.006895961
0.007005765
0.007361792
0.007603666
0.007709356
0.007773764
0.00788542
0.008050582
0.007530307
0.006875365
0.006076644
0.004338024
0.004863972
0.005257388
0.005856242
0.006304035
0.00644351
0.006857937
0.007357445
0.007664869
0.007821186
0.007894541
0.007899972
0.007929477
0.007876366
0.007288008
0.00652522
0.006415737
0.00566935
0.00371909
0.004029177
0.004500457
0.004752712
0.005455724
0.005923286
0.006105093
0.006726881
0.007363769
0.007794647
0.008068045
0.00822072
0.008229534
0.008142744
0.008124548
0.007503743
0.00666134
0.006782498
0.006071344
0.005844449
0.003139532
0.003392133
0.003685979
0.004010097
0.004317858
0.005028556
0.005456767
0.005586971
0.006300393
0.007073384
0.007647435
0.008083772
0.008396402
0.008519891
0.008543707
0.008563091
0.007944772
0.006975162
0.006963585
0.00645634
0.00615444
0.005781197
0.002742935
0.002915495
0.003069439
0.003493557
0.003789057
0.004105049
0.004889589
0.005406164
0.005383867
0.006030537
0.00680644
0.007421095
0.007900604
0.008251287
0.008461177
0.008668454
0.008847293
0.008340232
0.007446247
0.007196659
0.006733484
0.006155053
0.005843475
0.005377829
0.002509949
0.002655171
0.002799302
0.00303673
0.003647571
0.004131144
0.004666531
0.005573073
0.006234128
0.006266528
0.006581979
0.006993807
0.007361693
0.007706787
0.008016516
0.00817849
0.008378907
0.008668541
0.008397981
0.007688611
0.007386551
0.006884958
0.00614608
0.005649627
0.005209114
0.004610708
0.002316682
0.002505771
0.002653194
0.002937021
0.003393663
0.004317281
0.005378599
0.006523179
0.007720756
0.008505828
0.00866107
0.008584582
0.008384437
0.008136919
0.007949512
0.007885084
0.007841757
0.007910752
0.008186301
0.008074927
0.007500918
0.00722064
0.006766866
0.006025544
0.005415387
0.004907125
0.004304482
0.00361978
0.002172278
0.002376574
0.002624391
0.002865889
0.003409154
0.004254369
0.005796739
0.007876428
0.01000088
0.01159748
0.01238263
0.01228924
0.01161254
0.01064224
0.009589401
0.008663698
0.007997616
0.007577261
0.007383728
0.007473899
0.007440843
0.007076847
0.006835425
0.006479726
0.005866551
0.005328825
0.004686745
0.004261715
0.003626278
0.0030071
0.002263837
0.00251719
0.002838958
0.003314947
0.004125374
0.005583409
0.007861257
0.01030152
0.01191082
0.01264454
0.01284083
0.01261769
0.01189353
0.01079738
0.009581096
0.008470676
0.007604004
0.007035519
0.006711303
0.006644413
0.006620412
0.006431742
0.006316325
0.006186605
0.005887913
0.00565468
0.005134592
0.004848165
0.004412021
0.003866576
0.002274063
0.002460037
0.002642233
0.003102652
0.003766579
0.004910897
0.006760416
0.008845686
0.01025518
0.01110201
0.01156514
0.01171541
0.01157932
0.01100042
0.009831157
0.008600385
0.007559644
0.006766098
0.00625547
0.005972391
0.005874484
0.005854156
0.005813961
0.005937709
0.006285724
0.006671039
0.006922181
0.006785936
0.006158799
0.005573146
0.00510175
0.004411925
0.002337968
0.002591171
0.002816896
0.003353875
0.004135051
0.005496072
0.007215227
0.00876914
0.010253
0.01126768
0.01168451
0.01175248
0.01174728
0.01168703
0.01107512
0.009256472
0.007863684
0.00688872
0.006237473
0.005834541
0.005632716
0.005607534
0.005826579
0.006595225
0.007994547
0.009433414
0.00988911
0.009635976
0.008762992
0.007226127
0.006767686
0.0059664
0.002474844
0.002732022
0.00301217
0.003578282
0.004407477
0.005677115
0.007183991
0.009060925
0.01093984
0.01140899
0.01097408
0.01047944
0.01040908
0.01061205
0.01100371
0.01040119
0.008995474
0.00788742
0.007071973
0.006540126
0.006412479
0.006979341
0.008456698
0.01095473
0.01353217
0.01459478
0.01329183
0.01096851
0.008968024
0.00709169
0.006493172
0.005750199
0.002643233
0.002770733
0.003098432
0.00363434
0.00439951
0.005581248
0.007291769
0.009841049
0.01133827
0.009799825
0.008623918
0.008294312
0.008564967
0.009197602
0.01003223
0.01088452
0.01075659
0.009915021
0.009479663
0.009788918
0.01158562
0.01485358
0.01741511
0.01821654
0.01682096
0.01405417
0.01102411
0.008392017
0.006815475
0.005701389
0.004895329
0.004563586
0.002542977
0.002758215
0.002850692
0.003178779
0.003663615
0.004384159
0.005614854
0.007657679
0.01070466
0.009747765
0.007445505
0.006825846
0.006877719
0.007363833
0.008196752
0.009355431
0.01080182
0.01241285
0.01391861
0.01501529
0.01616125
0.01709591
0.01626768
0.01434849
0.01202901
0.01035272
0.009031419
0.007719421
0.006299634
0.005283869
0.004677362
0.004257914
0.003772858
0.003590179
0.002618128
0.002809889
0.002919839
0.003233366
0.003689833
0.004379946
0.005671716
0.008049138
0.01046633
0.007842205
0.006294254
0.005945327
0.005906363
0.006055764
0.006338109
0.006748162
0.007269175
0.007846633
0.008392887
0.008782685
0.008837713
0.008595
0.008528302
0.008623532
0.008357856
0.007604612
0.006673847
0.005345427
0.00436631
0.004207693
0.004077457
0.003765648
0.003488458
0.003322716
0.002722081
0.002890555
0.002991585
0.00327989
0.003710778
0.004360811
0.005613008
0.007925234
0.009432935
0.007507792
0.006227665
0.005850875
0.005665528
0.005532072
0.005385737
0.005245611
0.005147659
0.005121007
0.005191367
0.005388237
0.005724729
0.006148231
0.006474646
0.006504271
0.006176577
0.005515726
0.00474569
0.004081403
0.003721946
0.003743276
0.003756769
0.003544686
0.003318508
0.003028249
0.002846781
0.002997916
0.003079655
0.003337933
0.003735286
0.004325597
0.005391824
0.007221675
0.008428821
0.007876929
0.006972603
0.006459128
0.006177017
0.005908861
0.005548662
0.005150472
0.00480908
0.00458708
0.004518794
0.004613397
0.004833928
0.005096586
0.005292514
0.005330244
0.005174798
0.004863094
0.004504962
0.004245745
0.004067145
0.003932627
0.003762399
0.003467696
0.003167709
0.002815528
0.002976575
0.003121234
0.003184981
0.003415295
0.003771299
0.004280661
0.005084804
0.006390428
0.007499422
0.007742431
0.007748149
0.007517359
0.007176722
0.006828044
0.006306179
0.005686159
0.005138319
0.004747272
0.004529994
0.004486812
0.004589807
0.004779384
0.00498116
0.005127861
0.005179386
0.005189867
0.00512058
0.00498191
0.004763976
0.004448719
0.00404483
0.00356155
0.003172602
0.002782666
0.003132576
0.003255017
0.003279029
0.003482921
0.003796768
0.004219792
0.004784316
0.005629655
0.006467245
0.006970742
0.007453919
0.007997028
0.008243349
0.008033963
0.007434415
0.006587751
0.005809322
0.005249085
0.004892565
0.004718885
0.0047083
0.004821259
0.005000825
0.005185341
0.005390234
0.005520342
0.005559535
0.005487269
0.005263004
0.004868926
0.004344542
0.003756982
0.003381658
0.002889867
0.003492684
0.003441936
0.003567947
0.003845906
0.004195741
0.004597065
0.005081548
0.005620888
0.006044855
0.006528922
0.007302574
0.008230608
0.008868092
0.00865507
0.007691676
0.006650656
0.005905327
0.005423172
0.005128766
0.004990274
0.00497997
0.005056214
0.005188064
0.00535242
0.005458697
0.00548513
0.005404798
0.005178974
0.004801036
0.004309872
0.00393327
0.00373905
0.003634373
0.003817704
0.003862998
0.004069967
0.004342354
0.004640018
0.004930672
0.005213426
0.005454477
0.005704018
0.006235124
0.007181844
0.00834457
0.00914402
0.008719025
0.007515433
0.006567318
0.005980746
0.005603659
0.005358336
0.00521338
0.005143714
0.00516377
0.005230491
0.005257999
0.005221559
0.00509857
0.004870239
0.004550997
0.004178212
0.003900337
0.003619366
0.003735065
0.003924588
0.003982673
0.004178812
0.00442738
0.004687173
0.004905805
0.005047202
0.005132868
0.005205478
0.005406853
0.005992844
0.007052608
0.008258913
0.008880878
0.008182925
0.007101676
0.006422976
0.006017064
0.005729731
0.005497438
0.005311115
0.005222021
0.005201938
0.005152537
0.005041407
0.004845483
0.004565651
0.004233817
0.00390739
0.003739331
0.003488984
0.003774415
0.003935397
0.003928867
0.004058846
0.004301415
0.004541201
0.004728938
0.004819443
0.004793397
0.004740924
0.004782244
0.005083202
0.005805215
0.006869145
0.007833247
0.00807823
0.007367374
0.006629785
0.006220132
0.005958003
0.005713318
0.005482162
0.005322351
0.005240579
0.005130637
0.004954384
0.004690482
0.00434565
0.003964303
0.003679919
0.003556276
0.003237267
0.004001841
0.004166138
0.004176494
0.004281451
0.004459347
0.004598318
0.004657079
0.004608244
0.004491165
0.004437629
0.004543558
0.004938586
0.005645969
0.006469737
0.007034834
0.007043322
0.006530518
0.00611813
0.005916613
0.005747538
0.005529465
0.005342904
0.005217028
0.005052996
0.004827167
0.004532193
0.004163835
0.00386598
0.00364544
0.00341637
0.00392442
0.00402254
0.004162514
0.004201476
0.004295672
0.004369136
0.00437856
0.004314272
0.004177981
0.00405832
0.004050925
0.004244643
0.004686024
0.005280813
0.005803906
0.00608276
0.006025855
0.0057419
0.005600978
0.005557703
0.005388179
0.005202921
0.005046011
0.004821506
0.00454342
0.004234343
0.003893402
0.003657412
0.003390484
0.003123972
0.004040697
0.004099434
0.003973773
0.003949037
0.003960667
0.003935892
0.003859246
0.003725724
0.00358248
0.003539317
0.003653084
0.003948073
0.004357207
0.004752365
0.005038809
0.005185188
0.005152798
0.005090444
0.005180802
0.005073198
0.004902035
0.004747564
0.004492794
0.004169841
0.003849096
0.003561024
0.003373067
0.003029892
0.00397129
0.003937538
0.003761389
0.003658667
0.00358681
0.003498692
0.003376509
0.003244542
0.003177294
0.003237631
0.003419322
0.003672633
0.003930332
0.00415037
0.004331927
0.004436564
0.004469167
0.004686572
0.004656502
0.004460805
0.00434522
0.004121179
0.003790341
0.003569665
0.003411318
0.003031812
0.003808791
0.003745057
0.003497827
0.003354843
0.003239837
0.003122818
0.003002541
0.002922163
0.002921662
0.002997159
0.0031218
0.003270035
0.003436898
0.003625228
0.00378623
0.003872215
0.004126888
0.004180547
0.00395055
0.003891298
0.003716961
0.00346636
0.003351625
0.003086121
0.003550175
0.003429161
0.003348382
0.003126152
0.002977388
0.002823232
0.002704988
0.002639384
0.002636458
0.002691117
0.00279102
0.002934071
0.003105844
0.003254743
0.003340702
0.003587764
0.003695148
0.003477578
0.003528144
0.003353939
0.003298558
0.003018558
0.003170327
0.003022439
0.00292063
0.002661989
0.002492477
0.002390814
0.002341477
0.002343487
0.002391105
0.002477324
0.002594216
0.002728474
0.002839157
0.002902219
0.003158743
0.003278883
0.003174946
0.00328852
0.003084141
0.003027869
0.002789614
0.002666326
0.002526196
0.002441286
0.002379015
0.002264767
0.002219466
0.002235311
0.002293145
0.002376098
0.002469844
0.002543298
0.002653261
0.002946175
0.003047467
0.003018028
0.003056065
0.002877055
0.002553816
0.002445869
0.00234819
0.002288346
0.002264392
0.002260885
0.002279362
0.002321915
0.002381393
0.002438227
0.002595544
0.002711849
0.0027764
0.002755337
0.002198048
0.00216637
0.002159679
0.002181123
0.002218778
0.002264331
0.00589497
0.006433846
0.006876911
0.007081598
0.007309072
0.007357307
0.007361321
0.00736911
0.007376039
0.007038331
0.005152986
0.005721915
0.006224713
0.006353227
0.006872385
0.006962251
0.007281838
0.007512639
0.007566745
0.007571344
0.007604972
0.007850182
0.007478886
0.00686608
0.006025588
0.005540113
0.00486816
0.005196538
0.005539207
0.006183948
0.006630464
0.007279214
0.007500263
0.008126802
0.008393976
0.008441227
0.008389735
0.008209878
0.008241507
0.007661053
0.006940432
0.006091456
0.005946874
0.005518826
0.003878315
0.004374169
0.004469218
0.005130525
0.005632885
0.006528301
0.007192006
0.007934627
0.008385373
0.009033509
0.009358936
0.009430932
0.009356944
0.00915996
0.009012916
0.008361708
0.007602997
0.006622818
0.006353062
0.005578321
0.005534005
0.004898242
0.003360769
0.003664962
0.003962289
0.004304195
0.005124775
0.005791943
0.006711136
0.007482051
0.008254479
0.008835511
0.009570922
0.01004764
0.01026684
0.0102846
0.01011319
0.009870559
0.009205775
0.00844201
0.00752067
0.007109025
0.006111628
0.005837893
0.005323985
0.004992896
0.002873203
0.00312267
0.003345543
0.003709502
0.004183834
0.004933362
0.005568858
0.006401424
0.007161995
0.007887413
0.00849368
0.009355209
0.01005811
0.01056593
0.01087605
0.01091627
0.0107552
0.01012667
0.009359949
0.008419528
0.007931728
0.006975063
0.006354172
0.005755208
0.005272068
0.00475272
0.002489899
0.002679447
0.002866337
0.003153075
0.003560018
0.004000948
0.004635663
0.005244938
0.006020095
0.006741123
0.007311519
0.007839611
0.008721986
0.00954722
0.01025995
0.01085017
0.01115742
0.01130867
0.01087183
0.01021042