/*--------------------------------*- C++ -*----------------------------------*\
  =========                 |
  \\      /  F ield         | OpenFOAM: The Open Source CFD Toolbox
   \\    /   O peration     | Website:  https://openfoam.org
    \\  /    A nd           | Version:  6
     \\/     M anipulation  |
\*---------------------------------------------------------------------------*/
FoamFile
{
    version     2.0;
    format      ascii;
    class       volScalarField;
    location    "49.8";
    object      k;
}
// * * * * * * * * * * * * * * * * * * * * * * * * * * * * * * * * * * * * * //

dimensions      [0 2 -2 0 0 0 0];

internalField   nonuniform List<scalar> 
140018
(
0.004113256
0.003926844
0.003730016
0.003628527
0.004043066
0.004012682
0.003976399
0.003839924
0.00367884
0.003519462
0.003341707
0.003202551
0.002952183
0.002987644
0.003410923
0.003538263
0.003602071
0.003576501
0.003490831
0.00335398
0.003181877
0.003009446
0.002940393
0.002842739
0.002645985
0.002845546
0.00287359
0.002831855
0.002839675
0.003034557
0.00315066
0.003161503
0.003077706
0.002939289
0.002797307
0.002727364
0.002720975
0.002678728
0.002765209
0.002931073
0.002899878
0.002793152
0.002639868
0.002572904
0.002706429
0.002786526
0.002765489
0.00270158
0.002641198
0.002640823
0.002717651
0.00261658
0.00254854
0.002959024
0.003082219
0.0030926
0.003042452
0.002949181
0.002831005
0.002715773
0.002676402
0.002683311
0.002695271
0.002735437
0.00285116
0.00313335
0.003200909
0.003028256
0.002870612
0.003132643
0.003257753
0.003312188
0.003314098
0.003281929
0.003232049
0.003178575
0.003129989
0.003093327
0.003096749
0.003107019
0.003090836
0.003149026
0.003099221
0.002946775
0.0022264
0.002905329
0.003179959
0.00332646
0.00339191
0.003394919
0.003354217
0.003284977
0.003201412
0.003112901
0.003026156
0.002946116
0.002884591
0.002873481
0.002931949
0.003021536
0.003049743
0.003063415
0.002394906
0.002925602
0.003221921
0.003394022
0.003474832
0.003481602
0.003436039
0.003354355
0.003252426
0.003146848
0.003056998
0.003002131
0.002998808
0.003054311
0.003153958
0.003261516
0.003348636
0.003453131
0.002336972
0.002928763
0.003284106
0.003471029
0.003572914
0.00359408
0.003560064
0.003487159
0.003390749
0.003287725
0.003203335
0.003162195
0.003178883
0.003251325
0.003357482
0.00346775
0.003567357
0.003617897
0.002509496
0.002942846
0.003353495
0.003515572
0.003636453
0.003672946
0.003651
0.003588318
0.00350107
0.003401938
0.003319071
0.0032793
0.003298051
0.003372104
0.003479548
0.003594832
0.003692712
0.003794985
0.003260996
0.003491734
0.003535036
0.003662103
0.003716367
0.003705235
0.003655153
0.003582716
0.003491395
0.003408976
0.003362153
0.003369961
0.003432494
0.003533559
0.003655911
0.003785582
0.003680725
0.003942845
0.003593581
0.003664173
0.003737431
0.003731685
0.003692546
0.003641144
0.003564332
0.003486478
0.003431734
0.003421309
0.003461378
0.003543647
0.003654496
0.003833094
0.003933114
0.003764536
0.003679905
0.003753128
0.003741901
0.003706
0.003677768
0.003623475
0.003560062
0.003504541
0.003477982
0.003493568
0.003552717
0.003645399
0.003951207
0.003980451
0.00380769
0.003800927
0.00375267
0.003705281
0.00369278
0.00366631
0.003628192
0.003586265
0.003555277
0.003550551
0.003582057
0.003677101
0.003849921
0.003827766
0.003969025
0.003797887
0.003713278
0.003689806
0.003691252
0.003685462
0.003670999
0.003650458
0.003636256
0.003662519
0.003595879
0.003733229
0.003728416
0.003674882
0.003696735
0.003712346
0.003730305
0.003695651
0.003361385
0.003584385
0.003663678
0.003614829
0.003036617
0.003295068
0.003507899
0.003768664
0.004138511
0.004661151
0.005325914
0.005989098
0.006551234
0.00673462
0.003265243
0.003453839
0.003665932
0.003421928
0.003326055
0.003295398
0.003347351
0.003537981
0.003949279
0.004580752
0.005317202
0.005977706
0.0063344
0.006173737
0.003791022
0.004198265
0.004112243
0.004086508
0.004001376
0.003885378
0.003729867
0.003551749
0.003410897
0.003382364
0.003584456
0.004092962
0.004726968
0.00528227
0.005559687
0.005439394
0.003698258
0.004115228
0.004173765
0.004283949
0.004418828
0.004455028
0.004447149
0.00426135
0.004018634
0.003776064
0.003566239
0.003377482
0.003449301
0.003774978
0.004271631
0.00467438
0.004861151
0.004700095
0.003389297
0.00372496
0.003879444
0.004163516
0.004420508
0.004612417
0.004662679
0.004465827
0.004239128
0.003979271
0.003778215
0.003534809
0.003368895
0.003276191
0.003356153
0.003592733
0.003914983
0.004174613
0.004234549
0.004007522
0.003168926
0.003443441
0.003557648
0.003890768
0.004388039
0.004998243
0.005156871
0.005234911
0.005010312
0.004454912
0.004050117
0.00381159
0.003632882
0.003494839
0.003297972
0.003218615
0.003256508
0.003509763
0.003701993
0.003840025
0.003763328
0.003577098
0.003444599
0.003363135
0.003562223
0.004068654
0.004975846
0.005585767
0.006194738
0.006474799
0.006506124
0.005818166
0.00490209
0.004451284
0.00417531
0.003940061
0.00362163
0.003392826
0.003302738
0.003605102
0.003623853
0.003780373
0.003888121
0.003847406
0.002956912
0.003206482
0.003255122
0.0036382
0.00430371
0.00522357
0.006004029
0.006229556
0.006388244
0.006514786
0.006605716
0.005709327
0.005206965
0.00481473
0.004400055
0.00397376
0.003805163
0.003974966
0.004625842
0.004479945
0.004688809
0.004983788
0.005055223
0.005170218
0.003276567
0.00319014
0.003225849
0.003832184
0.004340448
0.004725432
0.005194622
0.00537776
0.005662877
0.006021499
0.006384639
0.006548704
0.006013
0.005526152
0.005335332
0.005529088
0.006492157
0.008727368
0.009623241
0.009325421
0.007666732
0.006550111
0.005634343
0.004921119
0.003384149
0.003193986
0.003225495
0.003787597
0.004002465
0.004384517
0.004566796
0.004831928
0.005248675
0.005839955
0.006600403
0.007469331
0.008315783
0.008913103
0.009428971
0.01013885
0.01075151
0.01030521
0.008507646
0.006138062
0.005101633
0.004147547
0.003538443
0.003051897
0.003523037
0.00321652
0.003193018
0.003413782
0.003695394
0.004061557
0.004152746
0.004245201
0.004412881
0.004672739
0.00501857
0.005417746
0.005814696
0.006131586
0.006249892
0.006064314
0.005722522
0.005579978
0.005489389
0.005093589
0.004280635
0.003320091
0.00297484
0.002754407
0.003681916
0.003307524
0.003105861
0.003509617
0.003945541
0.004110155
0.004059635
0.003959023
0.003881283
0.003843064
0.003833415
0.003837861
0.003847157
0.00386995
0.003934958
0.004079163
0.004314393
0.004521379
0.004571133
0.004435336
0.003887892
0.003339632
0.003214747
0.003107637
0.003822068
0.003577346
0.003153334
0.003997555
0.004480913
0.004544299
0.004366384
0.004103831
0.003859482
0.003672293
0.003533538
0.003434782
0.003369029
0.003353234
0.003403085
0.003517083
0.003662809
0.0037848
0.003834245
0.003783165
0.003686308
0.003603388
0.00353673
0.003475786
0.003910475
0.003836281
0.003408847
0.005456872
0.005689981
0.005372171
0.005037928
0.004578734
0.004138252
0.003800417
0.003560006
0.003399379
0.003282882
0.003219455
0.003218871
0.003282794
0.003392997
0.003521663
0.003646138
0.003745467
0.003824787
0.003880117
0.003867829
0.003848905
0.003947348
0.003974517
0.003667737
0.00341166
0.00489929
0.005869732
0.005929178
0.005352058
0.004671716
0.004123805
0.003751562
0.003534739
0.00338007
0.003280859
0.003240034
0.003264824
0.003351886
0.003489989
0.003659563
0.003826515
0.004011906
0.004054105
0.004091843
0.004116732
0.003986842
0.004055185
0.003954094
0.003716906
0.004240339
0.0054198
0.006103278
0.00612397
0.005415585
0.004613385
0.004038863
0.003750337
0.003561481
0.003437108
0.003363097
0.003348824
0.003402709
0.003518864
0.003664356
0.003823123
0.003997298
0.00406579
0.004127194
0.004175387
0.004154678
0.00417899
0.00416663
0.004051802
0.00394466
0.004397836
0.005217065
0.005922658
0.005990479
0.005216231
0.004380639
0.003987931
0.00376303
0.003625987
0.003532924
0.003484803
0.003503354
0.00357558
0.003697182
0.00386477
0.003917881
0.003981594
0.004046299
0.004100194
0.004333113
0.004339124
0.004281743
0.004161575
0.004123003
0.004492904
0.005092315
0.005653059
0.005569493
0.004725624
0.00420151
0.003932955
0.003797301
0.003710077
0.003642278
0.003624839
0.003629038
0.00370263
0.003823009
0.003861667
0.0039054
0.003950548
0.004360321
0.004305525
0.004258809
0.004150796
0.004019435
0.004027106
0.004285092
0.004775443
0.005059831
0.004823047
0.004337525
0.004027727
0.00389623
0.003849298
0.00377148
0.003752711
0.003731756
0.003812486
0.003833005
0.003864703
0.003892871
0.003910983
0.004368167
0.004264038
0.004157457
0.003998045
0.00381544
0.003632387
0.003867512
0.004169391
0.004332804
0.004233907
0.004016082
0.003886812
0.003876516
0.003810131
0.003827766
0.00380806
0.003817401
0.003854691
0.003896281
0.003910831
0.004230079
0.00407806
0.0039214
0.003728619
0.003510448
0.003335089
0.003252453
0.003576501
0.003789714
0.003832886
0.003767365
0.003778742
0.003782157
0.003784379
0.003780089
0.003789729
0.003831401
0.003806951
0.003881227
0.003699869
0.003532177
0.003354313
0.003190006
0.003085681
0.003096873
0.003229601
0.0034237
0.003582889
0.003634711
0.003666588
0.003719451
0.003741293
0.003733776
0.003721208
0.003474282
0.003333074
0.003176388
0.003043515
0.002946747
0.002930914
0.00301594
0.003179568
0.003356815
0.003463917
0.003529897
0.003634095
0.003704908
0.003584163
0.002982572
0.002876005
0.002804783
0.002794036
0.002858544
0.002991751
0.003158668
0.003288448
0.003369076
0.003431111
0.005852066
0.00635761
0.00685116
0.007201996
0.007429197
0.007573271
0.007639407
0.007682221
0.004229636
0.004763956
0.005080177
0.005297088
0.005762156
0.006314437
0.006783125
0.00715676
0.007442444
0.00762888
0.007809904
0.007896272
0.007391459
0.006633532
0.003334428
0.003610986
0.003881368
0.004106805
0.004338598
0.004775583
0.005364424
0.005977331
0.00656223
0.007074687
0.007455014
0.007774025
0.007916727
0.007518892
0.006827865
0.00678176
0.002806144
0.003028058
0.003032737
0.003070492
0.003233962
0.004087228
0.004562294
0.004948088
0.005363507
0.005843617
0.006373878
0.006884411
0.007252912
0.007530467
0.007628711
0.00757177
0.006994638
0.006897897
0.006640203
0.006071187
0.002572268
0.002689252
0.002826435
0.002922178
0.00416686
0.00493414
0.005528856
0.005917365
0.006140973
0.006277769
0.006408677
0.006583835
0.006816247
0.007002189
0.007173658
0.007301507
0.007351166
0.006828334
0.006848836
0.006571033
0.005995017
0.005493698
0.00249903
0.002640573
0.002728131
0.002935107
0.005026866
0.006417932
0.00714625
0.007476469
0.007603165
0.00759103
0.007478059
0.007269525
0.007033995
0.006856853
0.006755044
0.006745845
0.006781542
0.00685384
0.00651902
0.006428257
0.006331732
0.005818471
0.00519821
0.00452518
0.002567317
0.002800716
0.003045361
0.005317165
0.006811117
0.007489345
0.007869268
0.007969456
0.007868143
0.007652115
0.007417858
0.007202512
0.006926951
0.006572853
0.006327277
0.006215847
0.006156615
0.00619659
0.006002425
0.00592224
0.005768722
0.0054388
0.004824305
0.004054784
0.002675151
0.00296753
0.003190776
0.004923209
0.006167933
0.006797937
0.007292891
0.007611607
0.007702364
0.007521825
0.007026003
0.006532444
0.006190618
0.005937394
0.005688361
0.005555599
0.005462681
0.005435119
0.005469884
0.005367176
0.005334444
0.00530066
0.005070684
0.004558513
0.003925381
0.00348931
0.002540073
0.002872331
0.003152538
0.004098111
0.005259075
0.006141808
0.007002268
0.007711146
0.008227484
0.008470344
0.008481118
0.008047278
0.006999159
0.006062546
0.005441217
0.005066214
0.004899266
0.00482593
0.00483116
0.004836318
0.004806758
0.004875174
0.005077686
0.005238478
0.005067332
0.004840201
0.004597993
0.004371114
0.002684035
0.002979073
0.003315724
0.004422656
0.005423981
0.006487927
0.007574275
0.008334154
0.008807149
0.009032945
0.009154724
0.009149645
0.008531773
0.007010696
0.006029901
0.005424042
0.005052647
0.004809247
0.004687476
0.004641817
0.004738897
0.005136742
0.005941456
0.00669124
0.006340829
0.006555633
0.006608663
0.006300854
0.002898105
0.00317836
0.003645495
0.004545094
0.005664651
0.007086128
0.008120788
0.008391071
0.008394475
0.00825371
0.008355044
0.008581742
0.008874299
0.008126661
0.007076122
0.006336165
0.005769262
0.005363552
0.005244384
0.005552977
0.006454613
0.008010499
0.009700421
0.01044168
0.008916856
0.00761766
0.007229019
0.006749541
0.002730465
0.003016485
0.003277571
0.003757926
0.004787217
0.006134698
0.007888455
0.007913644
0.007096629
0.006764444
0.006760425
0.007107694
0.007672279
0.008334586
0.008898607
0.008556468
0.007801048
0.007505104
0.007769228
0.009052521
0.01176251
0.01371076
0.01417248
0.01302981
0.01104562
0.008733523
0.006259016
0.005612537
0.005267734
0.004564264
0.002837048
0.003052082
0.003316985
0.003849813
0.004989682
0.00672833
0.00815397
0.006458986
0.005724608
0.005588917
0.005780604
0.006261204
0.007012016
0.008022076
0.009238897
0.01053488
0.01166888
0.01246052
0.01336919
0.01418557
0.01371049
0.01192852
0.00951317
0.008203434
0.007237566
0.00626938
0.004576242
0.00362598
0.003109536
0.002685907
0.002939578
0.003130016
0.003384853
0.003947041
0.00523668
0.007324563
0.007376591
0.005395547
0.005072454
0.004967897
0.004985395
0.005133824
0.005408446
0.005806708
0.006295299
0.00681063
0.007262349
0.00752694
0.007458007
0.00716393
0.00704423
0.007051137
0.006786736
0.006137909
0.005553818
0.004540751
0.003382718
0.002557159
0.002657047
0.002853175
0.003036089
0.003218077
0.003465589
0.00398029
0.005351238
0.007308294
0.007089971
0.005444605
0.005121471
0.004919061
0.004738584
0.004587665
0.004467783
0.004393893
0.004360923
0.004365342
0.004416482
0.004542248
0.004769411
0.005082712
0.005333976
0.005361758
0.005142382
0.004616631
0.004035761
0.003481438
0.003149271
0.00311055
0.003114897
0.003170068
0.003140859
0.003315591
0.003553877
0.003957848
0.005110021
0.006706454
0.006990302
0.00622839
0.005790542
0.005456903
0.005127482
0.00478266
0.004436699
0.004147582
0.003936975
0.003805948
0.003766808
0.00382966
0.003974862
0.004146994
0.004267593
0.004275258
0.004152161
0.003937406
0.003723526
0.003545459
0.003439463
0.003455195
0.003375353
0.003327406
0.003256922
0.003422131
0.00364528
0.003919096
0.004701097
0.0059203
0.006682256
0.006774046
0.00676922
0.006461431
0.005990976
0.005459053
0.004882735
0.004388434
0.004036485
0.00380063
0.003667271
0.003637604
0.003698476
0.003813615
0.00393671
0.004028705
0.004086343
0.004077168
0.004017272
0.003932119
0.003836154
0.003796423
0.003624062
0.003489517
0.003363582
0.003517028
0.00372113
0.003878868
0.004347807
0.005134099
0.005764986
0.006248633
0.006837254
0.007277951
0.007124975
0.006503307
0.005674982
0.004910587
0.004389516
0.004055788
0.003842118
0.003734153
0.003726042
0.003798077
0.003920077
0.004070095
0.004188922
0.004244179
0.004254186
0.00422759
0.004149099
0.004099069
0.003885921
0.003690244
0.003558091
0.003650257
0.003822821
0.003878439
0.004120714
0.004526357
0.004977776
0.005442263
0.006070314
0.00688851
0.007576885
0.007589005
0.006721549
0.005632952
0.004871003
0.004427718
0.004145074
0.003967236
0.003885242
0.003889532
0.003959418
0.004076256
0.004163183
0.004214635
0.00424091
0.004244734
0.004214253
0.004233171
0.004095111
0.003879163
0.003885223
0.004034625
0.004014186
0.004081551
0.004246615
0.00443446
0.004635078
0.00501888
0.005770765
0.006779152
0.007645137
0.007635742
0.0064742
0.005402704
0.004818816
0.004480222
0.004251673
0.004103219
0.0040286
0.004029201
0.0040633
0.004087184
0.004099586
0.004102631
0.004082193
0.004080332
0.004133961
0.00406268
0.004043617
0.004177801
0.004324351
0.004280698
0.004319213
0.004355855
0.004384002
0.004484203
0.004849862
0.005623052
0.006669221
0.007433595
0.00711169
0.005909487
0.005145607
0.004758293
0.004508243
0.004321553
0.00419581
0.004135283
0.004097563
0.004071896
0.004051867
0.004034375
0.004011226
0.004024938
0.003907425
0.003810555
0.004078911
0.004149181
0.004283055
0.004205784
0.004167663
0.004140146
0.004082172
0.004052417
0.004200408
0.004668513
0.005503523
0.006391331
0.006773534
0.006186179
0.005338085
0.004890406
0.004635426
0.004462074
0.00433635
0.004240832
0.004161678
0.00410646
0.00405067
0.003987792
0.003946989
0.00394234
0.003799483
0.003623174
0.00426066
0.004328671
0.004405263
0.004266183
0.004168909
0.004073759
0.003984716
0.003981603
0.004180162
0.004649192
0.005263381
0.005738435
0.00574947
0.005272735
0.004819272
0.004586954
0.004464565
0.004367935
0.004278837
0.00419028
0.004129084
0.004056718
0.004012315
0.004015342
0.003946777
0.003772341
0.004282834
0.004327753
0.004347988
0.004142589
0.004004557
0.00387038
0.003786026
0.003823907
0.004025095
0.004357652
0.004687118
0.004823539
0.004772491
0.004578597
0.004388705
0.004317654
0.00428282
0.004227697
0.004121279
0.004046629
0.003957825
0.003908071
0.003819015
0.003713527
0.004116135
0.004056864
0.00403767
0.003999821
0.003771739
0.003616357
0.003490622
0.003450487
0.003522821
0.003690302
0.003865292
0.003984222
0.004074473
0.004134439
0.004097301
0.004074958
0.004096829
0.004091614
0.00395966
0.00391777
0.003825403
0.003713248
0.003620359
0.003437995
0.003924412
0.003800014
0.003722797
0.003633413
0.003367844
0.003208147
0.0031274
0.003120738
0.003181232
0.00325972
0.003347516
0.003472315
0.003623403
0.003717625
0.003756625
0.00382706
0.003889102
0.003754225
0.003787286
0.00366875
0.003537383
0.003385178
0.003655376
0.00356035
0.003383899
0.003261231
0.003140075
0.002946265
0.002843667
0.002803299
0.002817116
0.002888135
0.003013643
0.003172051
0.003305184
0.0034006
0.003570545
0.003659426
0.003562958
0.003629858
0.003536018
0.003291785
0.003212105
0.003061109
0.002920511
0.002794934
0.00268625
0.002619831
0.002604032
0.002648858
0.002751496
0.00289081
0.003019651
0.003126668
0.003353168
0.003448353
0.00331775
0.003348473
0.002786808
0.002664455
0.002559314
0.002458111
0.002420995
0.002420981
0.002464607
0.002551303
0.002665877
0.002771495
0.002866114
0.003107624
0.003243416
0.003110511
0.002321125
0.002290714
0.002292905
0.002332577
0.00240619
0.0024998
0.002581532
0.00265684
0.006697163
0.007041345
0.007262904
0.007336717
0.007362997
0.007384455
0.005381771
0.005943914
0.0064102
0.006916851
0.007024644
0.007378297
0.007617097
0.007720915
0.007785105
0.007896972
0.008059905
0.007540937
0.00688648
0.006092846
0.004368185
0.004899386
0.005293821
0.005895245
0.006342374
0.006479362
0.006889591
0.007383865
0.007684271
0.007834122
0.007903038
0.00790642
0.007933249
0.007879562
0.007290678
0.006530613
0.006419989
0.005675729
0.003757539
0.00407141
0.004549516
0.004805798
0.00551442
0.005983733
0.006165028
0.006786503
0.007416413
0.007836011
0.008096289
0.00823649
0.00823657
0.008143507
0.008119233
0.007498688
0.006661189
0.006782191
0.006072368
0.005850659
0.003171832
0.003430552
0.003732633
0.004062619
0.004380294
0.00510107
0.005533948
0.005671966
0.006388583
0.007158499
0.007724126
0.008146931
0.008441672
0.008548154
0.008554744
0.008558241
0.007937356
0.006972108
0.0069631
0.006457427
0.006161939
0.005798567
0.002760416
0.002937273
0.003096361
0.003528359
0.003830775
0.00416396
0.004961853
0.005479236
0.005463833
0.006124335
0.006908966
0.007517914
0.007985099
0.008328199
0.00853198
0.008717829
0.008870335
0.008349305
0.007451331
0.007202731
0.006740951
0.006169596
0.005869144
0.005413789
0.002513957
0.002659056
0.002803459
0.003047997
0.003670287
0.00416552
0.004718676
0.005655679
0.006327029
0.006351053
0.006677223
0.007101911
0.007473246
0.007814415
0.008117693
0.008277264
0.008461111
0.00873892
0.008449867
0.007725886
0.007417395
0.006912676
0.006175377
0.005684274
0.005255378
0.00466224
0.002314679
0.002496061
0.002642241
0.002922678
0.003389526
0.004346255
0.005452827
0.006645084
0.007891487
0.008696353
0.00884302
0.008756448
0.008545638
0.008283625
0.008080896
0.008005639
0.007959333
0.008026314
0.008296051
0.008167079
0.007580521
0.007289606
0.006824752
0.006076992
0.005453732
0.004934439
0.004348617
0.003658155
0.002162645
0.002359793
0.002603826
0.002837354
0.003383903
0.004258118
0.00587371
0.008043322
0.01024142
0.01188999
0.01270921
0.01262317
0.01193079
0.0109296
0.00983376
0.008861529
0.008157205
0.00771464
0.007517737
0.007611333
0.007571316
0.007190063
0.006930229
0.00654885
0.005910541
0.005336642
0.004687084
0.004263489
0.003614754
0.00297771
0.002243349
0.002491107
0.002805122
0.003277252
0.004104435
0.005613564
0.00796797
0.01044245
0.01203622
0.01276612
0.0130054
0.01286198
0.01219861
0.01111533
0.009877719
0.00872333
0.00780555
0.007194368
0.006848895
0.006782787
0.006759895
0.006557539
0.006411114
0.006226356
0.005856194
0.005547159
0.005024106
0.004745954
0.004305846
0.003770744
0.002260424
0.002430891
0.002608054
0.003064868
0.003729882
0.004904568
0.006798069
0.008906129
0.01030433
0.01113757
0.0115959
0.01177474
0.01172307
0.01126951
0.01014053
0.008878812
0.007794129
0.006949901
0.006389743
0.006072665
0.005967745
0.005950207
0.005893516
0.005948021
0.006156957
0.006376615
0.006533803
0.006411038
0.005886155
0.005377383
0.004976322
0.004322546
0.002320816
0.002562658
0.002779786
0.003313564
0.004102072
0.005489868
0.007239698
0.008810058
0.01029087
0.01122775
0.01155501
0.01158699
0.01163037
0.01170943
0.01132927
0.009495113
0.008015894
0.006983169
0.006284907
0.005851773
0.005640344
0.005595568
0.005726716
0.006272585
0.007350334
0.008570474
0.009101208
0.009066822
0.00841601
0.007057168
0.006718313
0.006002168
0.002453025
0.002702725
0.002974022
0.003536842
0.004376364
0.005665179
0.007198844
0.009103801
0.01090743
0.01114785
0.01056712
0.01008366
0.01008059
0.01038819
0.01094612
0.0106146
0.009116957
0.007931105
0.007060271
0.006479912
0.006269985
0.006603538
0.00767376
0.009690823
0.01209658
0.01352653
0.012833
0.01091535
0.009084553
0.007232482
0.006660837
0.005923634
0.002618214
0.002742148
0.003065125
0.003597544
0.004373999
0.005570556
0.007299884
0.009869476
0.01106117
0.009326808
0.008243881
0.007981882
0.008286022
0.008947911
0.009834701
0.01078661
0.01079691
0.009897518
0.009285402
0.009367071
0.0107093
0.01339935
0.01594714
0.01740506
0.01683362
0.01459424
0.01165576
0.008874269
0.007149076
0.005901145
0.005008884
0.004668138
0.002529759
0.002736187
0.002823941
0.003146923
0.00362643
0.004351743
0.005589245
0.007651182
0.01062139
0.009317533
0.007180434
0.006629966
0.006673149
0.00711641
0.007891763
0.008993152
0.01039503
0.01198459
0.01349437
0.01457145
0.01563727
0.01670101
0.01646397
0.0149451
0.0126287
0.01083821
0.009447485
0.008081669
0.006578451
0.005528283
0.004821424
0.004282393
0.00381398
0.003612602
0.002603242
0.002789567
0.002894623
0.003202443
0.003650908
0.004335321
0.005619384
0.00798899
0.01022759
0.00766493
0.006240202
0.005896395
0.005832086
0.005940261
0.006174376
0.006540345
0.007033044
0.007607391
0.008182744
0.008638646
0.008796201
0.008673542
0.00863946
0.00872853
0.008512443
0.007857816
0.00701495
0.005631323
0.004491277
0.004261737
0.004105799
0.003758531
0.00349691
0.003361986
0.002706633
0.002870421
0.002966979
0.003249001
0.003669391
0.0043023
0.005523596
0.007757108
0.009226315
0.007567966
0.006327178
0.00593146
0.005724671
0.005563416
0.005384191
0.00521413
0.005097057
0.00506358
0.005135732
0.005337575
0.00568051
0.006121185
0.006486459
0.006569964
0.006292505
0.005657052
0.004880633
0.004168336
0.003737535
0.003726649
0.003750248
0.003547253
0.003342724
0.00307274
0.002830819
0.002977188
0.00305447
0.00330573
0.003690763
0.004259395
0.00527931
0.007022187
0.008260133
0.007951202
0.007193129
0.006647806
0.00633498
0.006036785
0.005639043
0.00520126
0.004828598
0.004585863
0.004503643
0.004588692
0.004805147
0.005072619
0.005283657
0.005343756
0.005210002
0.004909935
0.004542438
0.004267908
0.004072088
0.00392836
0.003761976
0.003481529
0.003194537
0.002847476
0.00296022
0.003099765
0.003158845
0.003381565
0.003724721
0.00421256
0.004970659
0.006202766
0.007312596
0.007703074
0.00787131
0.007750084
0.007409232
0.007033058
0.006468949
0.005795549
0.005201491
0.004779336
0.00454097
0.004482233
0.004574477
0.004759225
0.004962681
0.005116019
0.005174839
0.005192434
0.005128516
0.004992034
0.00477461
0.004460757
0.00406075
0.003579125
0.003194068
0.002802051
0.003117105
0.003233494
0.0032529
0.003449382
0.003751424
0.004156466
0.004690384
0.005478223
0.006288401
0.006833604
0.007392766
0.008039299
0.008422223
0.00827422
0.007656106
0.006750427
0.005908355
0.005305765
0.004923583
0.004731895
0.004707188
0.004809519
0.004982429
0.005164138
0.005367921
0.00550169
0.005545703
0.005479325
0.005262349
0.004876703
0.004360685
0.003778806
0.003403655
0.002905713
0.00346961
0.003415111
0.003535649
0.003803557
0.004139623
0.004522746
0.004970116
0.005480092
0.005897229
0.006376728
0.007175518
0.00818406
0.008964562
0.008873862
0.007895334
0.00678066
0.005978783
0.005466425
0.005154141
0.005001867
0.004979452
0.005045471
0.005167237
0.005328682
0.005434749
0.005463048
0.00538681
0.005167592
0.004798279
0.004316189
0.003944851
0.003757271
0.003612766
0.003791294
0.003831455
0.004030143
0.004292218
0.004579626
0.004857979
0.005119048
0.005353401
0.005588534
0.006090136
0.007027721
0.008240974
0.009176647
0.008899886
0.007667974
0.006650792
0.006026773
0.005632769
0.005377048
0.005222316
0.00514256
0.00515122
0.005213632
0.005238834
0.005201582
0.005079169
0.004853036
0.00453762
0.004169931
0.003897906
0.003618819
0.003715319
0.003899981
0.003954179
0.004144029
0.004385248
0.004638881
0.004855343
0.004996979
0.005075628
0.005144826
0.005322639
0.005862677
0.00689166
0.008135723
0.008886913
0.008313434
0.007190794
0.006464036
0.006039334
0.005745384
0.00550778
0.005313487
0.005213807
0.005189452
0.00513717
0.005024362
0.004827692
0.004548144
0.004217653
0.003893587
0.003728157
0.003478743
0.003758084
0.003914315
0.003905065
0.004031825
0.004269533
0.00450551
0.004693615
0.004790035
0.004771056
0.004716916
0.004745145
0.005007079
0.005675789
0.006716019
0.007723907
0.008078088
0.007440276
0.006664297
0.006228538
0.005960638
0.005715491
0.005478927
0.005311854
0.0052248
0.005111975
0.004934167
0.004670061
0.004326342
0.003947299
0.003664184
0.003542292
0.003225238
0.003983565
0.004146348
0.004155455
0.004259186
0.004435641
0.004575353
0.004637902
0.004597754
0.004483976
0.004421982
0.004501745
0.004853388
0.005521772
0.006343476
0.006952995
0.0070351
0.006552135
0.006113626
0.005902156
0.005734715
0.005514597
0.005323479
0.005193717
0.005027023
0.004799681
0.004504904
0.004138379
0.003842375
0.003623523
0.003396486
0.003911755
0.004007856
0.004147277
0.004185914
0.004280304
0.004353727
0.004366243
0.004306869
0.004174034
0.004047937
0.004023369
0.004186895
0.004594934
0.005174288
0.005711675
0.006022978
0.006004403
0.005726269
0.005572266
0.005530219
0.005361183
0.005173247
0.005016568
0.004791035
0.004512038
0.004203798
0.003864775
0.003631207
0.003367028
0.003105336
0.00403088
0.004089805
0.003965109
0.003941481
0.003954815
0.00393259
0.003859375
0.003728305
0.003580253
0.003523132
0.003613974
0.003883142
0.004276683
0.004674056
0.004973984
0.005135082
0.005117597
0.005051391
0.005142535
0.005037869
0.00486586
0.004714661
0.004461341
0.004139226
0.003821065
0.003535249
0.003347424
0.003007618
0.003966353
0.003934409
0.003759767
0.003659646
0.003590462
0.003504918
0.003383993
0.003248683
0.003169574
0.003212089
0.003375044
0.003616216
0.003871635
0.004095431
0.004278596
0.004387711
0.004422307
0.004639792
0.004618782
0.004423044
0.004311811
0.004090884
0.003762164
0.00354422
0.003389056
0.003012612
0.003810173
0.003748883
0.003503347
0.003363123
0.003250494
0.003134108
0.003010624
0.00292116
0.002907046
0.002969693
0.003085534
0.003228666
0.003391211
0.003573987
0.003735588
0.003825149
0.004078279
0.00414276
0.003917043
0.003861267
0.003690672
0.003443017
0.003330836
0.003070197
0.003556629
0.003438106
0.003358339
0.003136666
0.002986662
0.002829593
0.00270549
0.002631467
0.002619654
0.002666674
0.002759679
0.002896098
0.003063081
0.003211194
0.003299406
0.003544876
0.003658622
0.003450095
0.003503007
0.003334134
0.003280584
0.003008191
0.003179802
0.003034148
0.00293307
0.002674021
0.002502451
0.002396574
0.002340009
0.002334003
0.002374147
0.002454026
0.002565675
0.002695924
0.00280504
0.002868582
0.003123217
0.003247473
0.003151168
0.003268399
0.003069511
0.003016977
0.002801738
0.002680196
0.002541305
0.002455148
0.002389688
0.002269013
0.00221672
0.002225976
0.002278286
0.002356721
0.002446863
0.002518278
0.002625965
0.002917719
0.003021844
0.002997429
0.003037532
0.002866199
0.00257097
0.002461386
0.002360553
0.002296449
0.002266068
0.002257419
0.002271304
0.002309652
0.00236561
0.002420138
0.002573515
0.002689064
0.002754842
0.002738112
0.002201157
0.002166158
0.002155772
0.002173592
0.00220827
0.002252494
0.005898404
0.006437987
0.006882295
0.007088854
0.007318761
0.007370481
0.007378943
0.007391622
0.007402883
0.00707002
0.005155939
0.005726049
0.00622982
0.006358611
0.006877835
0.006968261
0.007287956
0.007519699
0.007576354
0.007584881
0.00762285
0.007870885
0.007501894
0.006888834
0.006052455
0.005568839
0.004877819
0.005205395
0.005550163
0.006195072
0.006640755
0.007288403
0.007508866
0.008132341
0.008396803
0.008443674
0.008394736
0.008219316
0.008251418
0.00767304
0.006952383
0.006106029
0.005962615
0.005532678
0.003892033
0.004390681
0.004486462
0.005150336
0.005654943
0.006552528
0.007214897
0.007955703
0.008404416
0.009045198
0.009361346
0.009425444
0.009347893
0.009152665
0.009005642
0.008357179
0.007599646
0.006624713
0.006355508
0.005578385
0.005534433
0.004905341
0.003382978
0.003686443
0.003987777
0.004332598
0.0051608
0.005834639
0.006759791
0.007532174
0.008305342
0.008886367
0.009611944
0.01007204
0.01027163
0.01027142
0.01008974
0.009841501
0.009179211
0.008418751
0.007507024
0.007099591
0.006104423
0.005834578
0.00532859
0.005003892
0.002896034
0.003147086
0.003370821
0.003739816
0.004222431
0.004982901
0.005631
0.006475733
0.007243677
0.007975271
0.008587631
0.009444436
0.01013391
0.01061833
0.01089672
0.01090685
0.01072189
0.01008678
0.009318633
0.008390919
0.00791247
0.006964146
0.006352281
0.005762224
0.005286759
0.004772682
0.002505428
0.002697378
0.002883932
0.003173365
0.00358442
0.004034176
0.004678605
0.00530233
0.006094922
0.006828628
0.007410789
0.007953739
0.008842129
0.009663326
0.01036248
0.01091887
0.01120176
0.01131691
0.01085728
0.01017899
0.009248911
0.008684294