/*--------------------------------*- C++ -*----------------------------------*\
  =========                 |
  \\      /  F ield         | OpenFOAM: The Open Source CFD Toolbox
   \\    /   O peration     | Website:  https://openfoam.org
    \\  /    A nd           | Version:  6
     \\/     M anipulation  |
\*---------------------------------------------------------------------------*/
FoamFile
{
    version     2.0;
    format      ascii;
    class       volScalarField;
    location    "49.8";
    object      nut;
}
// * * * * * * * * * * * * * * * * * * * * * * * * * * * * * * * * * * * * * //

dimensions      [0 2 -1 0 0 0 0];

internalField   nonuniform List<scalar> 
140018
(
0.000187555
0.0002955529
0.0002881124
0.0001764213
0.0001977324
0.0003259634
0.0004403744
0.0005413386
0.0005300412
0.0004148946
0.0002981621
0.0001766508
0.0001633693
0.0002766306
0.000414084
0.0005448046
0.0005939623
0.0006172556
0.0006103853
0.0005745591
0.0005189457
0.0003909814
0.0002763106
0.0001616971
0.0001551043
0.0003506038
0.0004814477
0.0005281508
0.0005618068
0.0006000517
0.0006214444
0.0006232177
0.0006063375
0.0005743732
0.0005266524
0.0004701233
0.0003434527
0.0001560691
0.0002668797
0.0004868455
0.0005530593
0.0005751861
0.0005752232
0.00057477
0.0005939073
0.0006030422
0.0005969464
0.0005815536
0.0005583951
0.0005266544
0.0004672781
0.0002587291
0.000157199
0.0003868044
0.0005521332
0.000605125
0.0006221551
0.0006223585
0.0006140447
0.0006028008
0.0005975805
0.0005963846
0.0005930999
0.0005877258
0.0005784344
0.0005535661
0.0004001075
0.0001704109
0.0002756318
0.0005135823
0.0006032976
0.0006436559
0.0006589184
0.0006620273
0.0006598483
0.0006560703
0.0006509643
0.0006447787
0.0006416398
0.0006359725
0.0006196416
0.0005912252
0.0005094889
0.0002783297
0.0001374732
0.0003759291
0.0005581921
0.0006292275
0.0006605805
0.0006716198
0.0006721624
0.0006679455
0.0006611092
0.0006517094
0.0006405453
0.0006292162
0.0006184689
0.0006075589
0.0005902715
0.0005436177
0.0003845522
0.0001613448
0.0002298891
0.0004715546
0.0005857491
0.0006453217
0.0006734121
0.0006824381
0.0006825823
0.0006774878
0.0006677975
0.0006567739
0.0006467391
0.0006381003
0.0006335893
0.0006317083
0.0006222653
0.0005891739
0.0005046422
0.0002765997
0.0002270113
0.0004716925
0.0005912229
0.0006524869
0.0006827205
0.0006932254
0.0006946139
0.00069062
0.0006818471
0.0006713979
0.0006621869
0.0006551296
0.0006525806
0.0006518883
0.0006421987
0.0006077183
0.000520865
0.0002830772
0.0001467052
0.0003783672
0.0005732485
0.0006466867
0.0006837661
0.0006984916
0.0007012834
0.0006982875
0.0006918676
0.0006821216
0.0006719808
0.0006652534
0.0006626925
0.0006593124
0.0006441101
0.0005937807
0.0004241825
0.0001798951
0.0002952837
0.0005423767
0.0006282303
0.0006763444
0.0006974215
0.0007031034
0.0007014627
0.000696552
0.0006877281
0.0006778905
0.0006704258
0.0006648911
0.0006558123
0.0006288472
0.0005551665
0.0003167384
0.0001890977
0.0004475077
0.0005966895
0.0006576999
0.0006882754
0.000698632
0.0006999381
0.000697207
0.0006899073
0.0006805741
0.0006705991
0.0006592177
0.0006400689
0.0005921371
0.0004299311
0.0001927798
0.0003195321
0.0005530373
0.0006225808
0.0006655475
0.0006834173
0.0006898186
0.0006907783
0.0006858186
0.000676527
0.0006619384
0.0006412687
0.0006069384
0.0005363947
0.0003071102
0.0001906147
0.0004160423
0.0005553274
0.0006125737
0.0006467811
0.0006634953
0.0006713465
0.0006690412
0.0006566713
0.0006325485
0.0005926994
0.000535978
0.0003943916
0.0001836878
0.0001881349
0.0003145949
0.0004481216
0.000565091
0.0006026516
0.0006244576
0.0006248232
0.0006003344
0.0005553305
0.0004294027
0.0003064581
0.000183129
0.0001867914
0.0003140159
0.0004259149
0.0005270016
0.0005288462
0.0004243915
0.0003137212
0.0001888674
0.0001688365
0.0002807855
0.0002841536
0.0001751367
0.0001669248
0.0002871
0.0003216139
0.0003451098
0.0003667737
0.0003893722
0.0004103705
0.0004198502
0.0004039281
0.0002483776
0.000176816
0.0003107099
0.0004484034
0.0005555122
0.0005891136
0.0006131694
0.0006327958
0.0006525476
0.0006765492
0.0006979291
0.0006985116
0.0005765764
0.0004232709
0.0002448955
0.0002020283
0.000462521
0.0006224248
0.0007027373
0.0007659894
0.0008081005
0.0008450729
0.0008617481
0.0008459689
0.0008092761
0.0007834039
0.0007830841
0.0007636316
0.0007120692
0.0005349805
0.0002433981
0.0002032316
0.0004778854
0.0006757891
0.0007915173
0.0008876942
0.0009880619
0.001108778
0.001073332
0.001032533
0.0009842003
0.0008516783
0.0009698425
0.0008743785
0.0008262303
0.0007961799
0.0007199671
0.0005229473
0.0002313445
0.0001905518
0.0004548273
0.0006668655
0.000814561
0.0009679687
0.001138339
0.001197514
0.001196512
0.001181575
0.001134681
0.001085414
0.0009366746
0.0009459527
0.000908399
0.0009760764
0.0008782922
0.000795603
0.0006972333
0.0004878614
0.0002088297
0.0001740432
0.0004171645
0.0006231281
0.000787735
0.001018522
0.001215109
0.001219663
0.001305899
0.001314461
0.001242762
0.001183365
0.001131057
0.001049464
0.00101868
0.0009658922
0.0009688969
0.0008999524
0.0009154543
0.0007719553
0.0006503836
0.0004382406
0.0001860372
0.0003093252
0.0005620433
0.0007204906
0.0009278092
0.001105303
0.001317062
0.001523928
0.001613357
0.001616688
0.001491689
0.001321074
0.001226454
0.001155401
0.001106172
0.001045113
0.001022532
0.0009539559
0.0009712845
0.0008768325
0.0007425472
0.0006039903
0.0003268176
0.0001633112
0.0004179618
0.0006263922
0.0008037506
0.001096638
0.001164484
0.001458541
0.001548874
0.001579406
0.001577502
0.001541466
0.001389572
0.001313094
0.001251836
0.001191621
0.001124088
0.001109421
0.001078385
0.001029822
0.001113705
0.0009071499
0.0007703411
0.0005236275
0.000216042
0.0002829613
0.0005341121
0.0006868396
0.0009143457
0.0007551379
0.001043095
0.001318341
0.001385025
0.001432652
0.001478709
0.001519247
0.001530964
0.001456981
0.001392856
0.00135564
0.001356126
0.001450013
0.001584262
0.001556833
0.001347156
0.001290597
0.0009794738
0.0007142084
0.0003493902
0.0003118513
0.0005745463
0.0007351699
0.001018858
0.000783414
0.001093998
0.001198266
0.001262864
0.001327381
0.001406354
0.001501857
0.001604646
0.001695494
0.001745549
0.001774627
0.001817182
0.001847196
0.001769273
0.001517743
0.001011755
0.001184943
0.0008346625
0.0006071194
0.0002975354
0.0003291287
0.0006024939
0.0007798203
0.0005803225
0.0007791232
0.001041766
0.001115385
0.001151559
0.001178791
0.001207852
0.001241309
0.001278219
0.001313758
0.001341415
0.001351885
0.001341363
0.001321907
0.001294116
0.001222489
0.000961965
0.0006950965
0.0007959003
0.0005809577
0.0002923721
0.0003408919
0.0006250014
0.0008036967
0.0006431397
0.0009231492
0.001050585
0.001096425
0.001110236
0.001110962
0.001107548
0.001100707
0.001094133
0.001088311
0.001088253
0.001098359
0.001121908
0.001152835
0.001166638
0.001142757
0.001083273
0.0009574534
0.0008352986
0.000617343
0.0003147329
0.0003473526
0.0006509354
0.0008125541
0.0007538638
0.0009980714
0.001111023
0.001138721
0.001133708
0.001115497
0.001094389
0.001070347
0.001050051
0.00103255
0.001024763
0.001030167
0.001048842
0.001071026
0.001083447
0.001071446
0.001013801
0.0009356284
0.000868092
0.0006479241
0.000332998
0.000346991
0.0006597237
0.0008100131
0.001091081
0.001180065
0.001224705
0.001232848
0.001203707
0.001161738
0.001121857
0.001082486
0.001054684
0.001029887
0.001013488
0.001009857
0.001020077
0.001038687
0.001055352
0.001050602
0.00101658
0.0009555723
0.0008628219
0.0006635894
0.0003460034
0.0003373433
0.0006428139
0.0007872391
0.0009742438
0.00113401
0.001299784
0.001352291
0.001311916
0.001241584
0.001176387
0.001115171
0.00108125
0.001052799
0.001031406
0.001019185
0.001019627
0.001032408
0.001047673
0.001056763
0.00104899
0.001052028
0.000826394
0.0006532525
0.0003458566
0.0003128602
0.000604212
0.0007623901
0.0009045766
0.001033269
0.001247901
0.001375194
0.001406705
0.001343432
0.001251329
0.001155821
0.001114231
0.001083989
0.001060352
0.001040579
0.001028775
0.001028206
0.001031002
0.001022558
0.0009922039
0.0009355179
0.0007733923
0.0006101993
0.0003210071
0.0001941661
0.0004791323
0.0007098896
0.0008509067
0.00105423
0.001122965
0.001243667
0.001360416
0.001405448
0.001334715
0.001195888
0.001140571
0.001108696
0.001087665
0.001065161
0.001040316
0.001024851
0.001016074
0.001018278
0.001041933
0.0008358037
0.0006953516
0.0004715841
0.0001933024
0.0003475796
0.0006396833
0.000792578
0.0009409535
0.0009811063
0.001073662
0.001210128
0.001334954
0.001366236
0.001227211
0.001153629
0.001117239
0.001101454
0.001082411
0.001044086
0.001016097
0.0009669933
0.0009392535
0.0009011089
0.0007522507
0.0006085223
0.0003328816
0.0002047513
0.0004682048
0.0006842466
0.0008155164
0.0009774645
0.0009892784
0.001071246
0.001168643
0.001255825
0.001207531
0.001141014
0.001096505
0.001079326
0.001083375
0.001033553
0.001018195
0.0009448631
0.0009502911
0.0007830543
0.0006513599
0.0004459784
0.0001943301
0.0002176974
0.0004875699
0.0006925266
0.0008012805
0.0009021112
0.001011863
0.001015977
0.001088692
0.001083755
0.001070291
0.001042742
0.001020134
0.001054268
0.0009881909
0.001034913
0.000898079
0.0007809188
0.0006659228
0.0004656027
0.0002055755
0.0002180451
0.0004775813
0.0006577895
0.0007408882
0.0007930229
0.0008555412
0.0009462908
0.0009214679
0.0009464248
0.000952045
0.0009320499
0.001017546
0.0009072698
0.0008197727
0.0007432944
0.0006446872
0.0004618165
0.0002065434
0.0002053364
0.000434716
0.0005788737
0.0006389075
0.0006855773
0.0007202236
0.0007680233
0.000816284
0.0008399469
0.0008248452
0.0007797373
0.0007321321
0.0006697977
0.0005935219
0.0004354504
0.0002004908
0.0001834624
0.0003060185
0.0004186676
0.0005244501
0.0005536511
0.000575634
0.0005951053
0.0006103527
0.0006142632
0.0005980629
0.0005623697
0.0004454611
0.0003212563
0.0001854719
0.0001651312
0.0002666515
0.0002851001
0.0002938245
0.0003005376
0.0003070371
0.0003113699
0.0003073219
0.0002870623
0.0001759493
0.0002354715
0.0004027545
0.0004499671
0.0004710681
0.0004780913
0.0004722079
0.0004397536
0.0002676403
0.0002083471
0.0003849329
0.0004625967
0.0006189119
0.0007981298
0.0008717173
0.0009146036
0.0009381076
0.0009425607
0.0009129834
0.0007427332
0.0005705026
0.0004738341
0.0002581532
0.0002212723
0.0004933921
0.0006961566
0.0008151155
0.0009239413
0.001021761
0.001108727
0.001178524
0.00123189
0.001264657
0.001264201
0.001223068
0.001118142
0.0009555817
0.0006703473
0.0003124992
0.0001771106
0.0003318897
0.0005124276
0.000726558
0.0009010254
0.000907242
0.001022507
0.001112106
0.001182511
0.001238305
0.001284429
0.001317639
0.00131911
0.001288908
0.001227252
0.001365759
0.001086675
0.0007673173
0.0004874832
0.0002582088
0.0001738951
0.0004082665
0.0006109989
0.0007867773
0.0009387658
0.001124156
0.001210496
0.001298615
0.00135661
0.001395911
0.00141608
0.001417962
0.001404655
0.001368381
0.001320063
0.001271172
0.001387953
0.001186864
0.001203581
0.0009282409
0.0006081054
0.0002546683
0.0001652922
0.0004031816
0.0006177769
0.0008228902
0.001120893
0.001357884
0.001532733
0.001631332
0.00168472
0.001705865
0.001699891
0.001665108
0.001607318
0.001531679
0.001441735
0.001352748
0.001281255
0.001353502
0.001221318
0.001218632
0.001212493
0.0009068959
0.0005680194
0.000223919
0.0003022887
0.0006032224
0.0008366431
0.001190988
0.001495456
0.001710509
0.001865679
0.001948045
0.001962387
0.001936821
0.001889843
0.001832008
0.001748506
0.001626557
0.001515444
0.001399726
0.001292803
0.0013064
0.001217668
0.001194691
0.001183067
0.001126752
0.0007990822
0.0003843339
0.0001961441
0.0005016789
0.0008175412
0.001126965
0.001413931
0.001641891
0.001834058
0.0019767
0.002057426
0.002071569
0.00200056
0.001906571
0.001818629
0.001725316
0.001609906
0.001520292
0.001413409
0.001306547
0.001270872
0.001193037
0.001165474
0.001163812
0.001132746
0.0009862544
0.0005820588
0.0002250707
0.0001594469
0.0004343724
0.0007265858
0.0009502767
0.001233177
0.001497039
0.001745681
0.001956603
0.002120472
0.002210991
0.002250896
0.002199696
0.002030288
0.001849906
0.001703299
0.001580722
0.001496222
0.001414457
0.001329813
0.001261467
0.001186601
0.001159979
0.001185936
0.001189709
0.0009909581
0.0008983166
0.0005486741
0.0002084495
0.0002849387
0.0005993595
0.0009002172
0.00110967
0.001344589
0.00159348
0.001846536
0.002052408
0.002205834
0.002286487
0.002319995
0.002308474
0.002201832
0.00194938
0.001765703
0.001632936
0.001541779
0.001467565
0.001395941
0.001319982
0.001263983
0.001279196
0.001361254
0.001391756
0.00104395
0.001257091
0.0008899722
0.0004360177
0.0003441747
0.0007047569
0.000873138
0.001092558
0.001363055
0.001670322
0.001891861
0.002033143
0.00212342
0.002125648
0.002132832
0.002140313
0.002135343
0.002012444
0.001859304
0.001745268
0.00165978
0.001590304
0.00154308
0.001507502
0.001522696
0.001675345
0.001820856
0.001830015
0.001382754
0.0009077799
0.001069331
0.0005296716
0.0001592535
0.0004599721
0.0007904907
0.0009279789
0.001178402
0.001456178
0.001775859
0.00178012
0.001806463
0.001831643
0.001840376
0.001884684
0.001955893
0.002039825
0.002111593
0.002070733
0.001983278
0.001918817
0.001903052
0.00198873
0.002137854
0.002275068
0.002251326
0.00213286
0.001859436
0.001483388
0.0008491764
0.00104539
0.0006157809
0.0002086805
0.0002669808
0.000574799
0.0008388907
0.0009779239
0.001227813
0.00153899
0.001774363
0.001567791
0.001591307
0.001607253
0.001641865
0.001702795
0.001792657
0.001913044
0.002055859
0.0021995
0.002310475
0.00236632
0.002419799
0.002454945
0.002379033
0.002157039
0.00176267
0.001627633
0.001480215
0.001270085
0.0008132724
0.0008838084
0.0005852237
0.0002621851
0.000293398
0.0006086637
0.0008681838
0.001011295
0.001272982
0.001606898
0.00154452
0.00139085
0.00146037
0.001490969
0.001513842
0.001532274
0.001548763
0.00157137
0.001604735
0.00164577
0.001686231
0.001715909
0.001727054
0.00172693
0.001716628
0.001675443
0.001499523
0.001313976
0.001324343
0.001115582
0.0009283135
0.0007589521
0.0005636012
0.0002904733
0.0003046791
0.0006253575
0.0008861274
0.001023452
0.001292245
0.00159793
0.001511429
0.001406153
0.001449098
0.001480981
0.001498946
0.001500229
0.001481196
0.001448401
0.001415314
0.001392206
0.001387061
0.001404879
0.001444532
0.001493291
0.001520426
0.001500153
0.001432943
0.00131545
0.001169836
0.001010908
0.0008971302
0.0008449258
0.0006188539
0.0003128715
0.0003096877
0.0006345407
0.0008972564
0.001020301
0.001250318
0.001519761
0.001524571
0.001475487
0.001526503
0.001550786
0.001561592
0.001553669
0.001519411
0.001462099
0.001400798
0.001351092
0.001325134
0.001327754
0.001353438
0.001386137
0.001404832
0.001391241
0.001333871
0.001240315
0.00114294
0.001044305
0.0009519384
0.000890379
0.0006439823
0.00032043
0.0003085032
0.0006358205
0.0009006052
0.001006444
0.001183463
0.001409541
0.001535681
0.001569648
0.00163638
0.001678581
0.001679582
0.001659336
0.001609449
0.001531321
0.001448367
0.001377419
0.001330919
0.00131459
0.001324776
0.001348636
0.001368859
0.001367986
0.001346381
0.001294078
0.001218026
0.001125541
0.001016251
0.0009249621
0.0006581426
0.0003210054
0.0002909549
0.00061685
0.000887837
0.0009765873
0.001112544
0.001277367
0.001416803
0.001524684
0.001645742
0.001762752
0.001818497
0.001802717
0.001738009
0.001636132
0.001532397
0.001443356
0.0013782
0.001342318
0.001334985
0.001347546
0.001365084
0.001377769
0.001366892
0.001322487
0.001252848
0.001161985
0.001042277
0.0009371941
0.0006517293
0.0003061234
0.0001825785
0.0005074321
0.0008536929
0.0009288479
0.001036476
0.001149413
0.001265241
0.001385903
0.001528217
0.001687783
0.001839915
0.001923308
0.00188291
0.001757503
0.001629284
0.001523652
0.001442622
0.00138761
0.001358904
0.001351335
0.001352215
0.001356504
0.001334061
0.00128556
0.001215468
0.001123332
0.001003957
0.0009023731
0.0005388322
0.000190895
0.0003995666
0.0007952715
0.0008847315
0.0009686893
0.001061383
0.001137808
0.00121211
0.001325305
0.001493891
0.001689283
0.001878137
0.001970983
0.001872313
0.001718803
0.001596455
0.001504
0.001434324
0.001384755
0.001351973
0.001334554
0.001315956
0.001278753
0.001223261
0.00115045
0.001049075
0.0009383933
0.0008076404
0.0004095313
0.0003507582
0.0007120988
0.001028872
0.001070408
0.001131903
0.001178435
0.001214658
0.001253485
0.001338076
0.001488077
0.001692092
0.001879079
0.001917801
0.001781343
0.001642702
0.001541624
0.001463491
0.001399328
0.001350468
0.001316183
0.001277576
0.001230064
0.001172884
0.001109243
0.001039686
0.0009966896
0.0006894543
0.0003408897
0.0002021509
0.0005227486
0.0008486906
0.0009207903
0.0009825773
0.001041285
0.001075032
0.001102396
0.001159988
0.001281028
0.001467909
0.00166626
0.001796424
0.00177325
0.001644953
0.001534025
0.001448465
0.001384854
0.00133667
0.001291083
0.001240904
0.001184921
0.001111529
0.001017408
0.0009179919
0.0008163665
0.0005009206
0.0001910277
0.0002471963
0.0006086635
0.0009628183
0.001001449
0.001037003
0.001068649
0.00108662
0.001112775
0.001178513
0.00129266
0.001435869
0.001565813
0.001626494
0.001574982
0.001468994
0.001386625
0.001330576
0.001289521
0.001245618
0.001192405
0.001143657
0.001072567
0.0009967094
0.0009201233
0.0005804135
0.0002330747
0.000391678
0.0007524451
0.001003223
0.001016131
0.001033492
0.001044401
0.001053448
0.001082896
0.001142872
0.001228751
0.001320517
0.001387745
0.001410798
0.001366204
0.00129139
0.001239625
0.001210087
0.001178004
0.001111186
0.001067139
0.00100738
0.0009493809
0.0007071279
0.0003646061
0.0002123837
0.0005003833
0.0007519265
0.0009638862
0.0009482661
0.000948712
0.0009501891
0.0009654036
0.001001851
0.001055727
0.001114366
0.001167692
0.001210169
0.001222297
0.00118022
0.001130389
0.001106796
0.001099835
0.001001076
0.0009796166
0.0009401653
0.0007196444
0.0004714349
0.0001942362
0.0002138411
0.0004852857
0.0006984295
0.0008770033
0.0008430011
0.0008478567
0.0008596385
0.0008829321
0.0009152873
0.000951
0.0009890609
0.001030129
0.00106277
0.001056236
0.001011377
0.000976764
0.001017961
0.0008842676
0.0008917257
0.0006912993
0.0004667102
0.0001982178
0.0001999492
0.0003573889
0.0005392639
0.0007432664
0.0008808246
0.0008209911
0.0008048442
0.0008084157
0.0008262423
0.000853013
0.0008835234
0.0009102997
0.0009133439
0.0008824814
0.0008528361
0.0009462505
0.0007736465
0.0005566606
0.0003551208
0.000189268
0.0002157458
0.0004517824
0.0005972005
0.0006649142
0.0007188542
0.0007479363
0.0007636431
0.0007747558
0.000788614
0.0008022197
0.0007997156
0.0007720097
0.000725147
0.0006466657
0.0004669208
0.0002190931
0.0001677315
0.0002857382
0.0003255247
0.0004173786
0.0005132646
0.0005362652
0.0005478025
0.0005569916
0.0005617309
0.0005475733
0.0004482933
0.0003570313
0.0003137022
0.0001766008
0.0001476673
0.0002406472
0.0002594781
0.0002673327
0.0002713601
0.0002704711
0.0002546145
0.0001569344
0.0002738946
0.0004587928
0.0004943356
0.0004973985
0.0004693083
0.0002872832
0.0002459736
0.0004483924
0.0005507379
0.0006550109
0.0008596812
0.001074421
0.001127978
0.001136053
0.001103398
0.0009093985
0.0007045252
0.0005954218
0.0004814445
0.00026107
0.000223931
0.0004464108
0.0007001764
0.0009907936
0.001180107
0.0008530763
0.001056093
0.001258682
0.001323241
0.001340543
0.001307624
0.001148674
0.001016792
0.001307711
0.001097422
0.0007715154
0.0005061085
0.0002534703
0.0002420807
0.0005708977
0.0009033067
0.0007952288
0.001055265
0.001156826
0.0009724371
0.001207846
0.001417011
0.001511991
0.001562505
0.001559563
0.001443249
0.001300849
0.001534588
0.001319578
0.0009977905
0.001090731
0.000690803
0.0002997546
0.0002461633
0.0005808646
0.000926736
0.0008684203
0.0008337225
0.001073503
0.001134585
0.001000898
0.001221241
0.001439848
0.00156742
0.00166361
0.001717125
0.001670543
0.001608597
0.001810299
0.001610977
0.001242315
0.001300587
0.001204128
0.0007713334
0.0003305563
0.0002357999
0.0005758564
0.0006435047
0.00090722
0.0008971217
0.0008966766
0.00113322
0.001205836
0.001059772
0.001240745
0.001442365
0.001566785
0.001663377
0.001730985
0.00173878
0.001765745
0.001990068
0.00185646
0.001538654
0.001504669
0.001395366
0.000992796
0.0008083646
0.0003293033
0.0002180819
0.0005465604
0.0006350051
0.0007138179
0.0009928809
0.001063741
0.001119241
0.001357314
0.00147125
0.001370051
0.00144312
0.001550178
0.001619937
0.001677411
0.001723151
0.001719105
0.001749962
0.001981453
0.001959553
0.001736061
0.001697653
0.001567274
0.001157809
0.0009622696
0.0007666908
0.0002969514
0.0001888016
0.0004926484
0.0006146474
0.0007257743
0.0008615825
0.00118087
0.001407898
0.001613736
0.001867278
0.002022492
0.00201531
0.001987829
0.001947828
0.001887037
0.001826561
0.001779754
0.001719429
0.00170476
0.001871496
0.001915934
0.001767145
0.001744418
0.001634923
0.001274238
0.001025174
0.0008557616
0.0006517796
0.0002380796
0.0001562458
0.0004317762
0.000764464
0.0007319535
0.0009021114
0.001144425
0.00155019
0.001995919
0.002421205
0.002757615
0.002942574
0.002949768
0.002829302
0.002632128
0.002396165
0.002164982
0.001968108
0.001805445
0.00169971
0.001747542
0.001793684
0.001716317
0.001701857
0.001622837
0.001334244
0.001095084
0.0008441393
0.0009813665
0.0005368659
0.0001837194
0.0002991111
0.0006600701
0.0008129147
0.0009133016
0.001156296
0.001540513
0.002068356
0.00260217
0.002977459
0.003187679
0.003292643
0.003308388
0.003204091
0.002984523
0.002697027
0.002397257
0.002124322
0.001900439
0.001727771
0.00166698
0.001664957
0.001615686
0.001609756
0.001580503
0.001397564
0.001227788
0.001004181
0.0009294896
0.0008672741
0.0003876261
0.0001592553
0.0004699622
0.0006522123
0.0008725908
0.001081994
0.00141712
0.001875717
0.002348242
0.002656407
0.002848275
0.002970584
0.003036618
0.003056296
0.003010246
0.00284636
0.002607913
0.00235529
0.00211475
0.00190991
0.001739923
0.001631203
0.001579192
0.001531426
0.001541431
0.001581488
0.001537371
0.00144695
0.001331694
0.001068595
0.0007333478
0.0006725355
0.0002199987
0.0002793417
0.0006497718
0.000740477
0.0009587941
0.001223216
0.001616349
0.002024113
0.002325005
0.002581098
0.002777296
0.002879041
0.002911668
0.002922623
0.00292118
0.00286281
0.002592326
0.002335652
0.002119927
0.001941842
0.001793536
0.001675651
0.001597664
0.001561195
0.001625138
0.001765528
0.001868055
0.001796533
0.001769702
0.001514157
0.0008989366
0.001052352
0.0004501224
0.0003396824
0.0007658688
0.0008551422
0.001068266
0.001343428
0.001688156
0.001984744
0.002287202
0.002582415
0.002699971
0.00267089
0.002609772
0.002595032
0.002613562
0.002651776
0.00260073
0.002397668
0.002213452
0.002065026
0.001942929
0.00185004
0.001804847
0.001851342
0.002054851
0.002317702
0.002452911
0.002254324
0.001832106
0.001570044
0.000967363
0.001212998
0.0005320524
0.0004010078
0.0006158011
0.0008267039
0.001064845
0.001324669
0.001618343
0.00193142
0.002321659
0.00253255
0.00239764
0.002270664
0.002224499
0.002252674
0.002332418
0.002447306
0.002575909
0.00258713
0.002487324
0.002374578
0.002311902
0.002362226
0.002502135
0.002719956
0.002853182
0.002795325
0.002522273
0.002115636
0.001603596
0.001386549
0.0009868498
0.0006843408
0.000540986
0.0001679222
0.0005343119
0.0006572723
0.0008506972
0.001068739
0.001313342
0.001604767
0.001949405
0.002357226
0.002265117
0.002046887
0.001977617
0.001979159
0.002024641
0.002105374
0.002226159
0.00238539
0.002562139
0.002716529
0.002804779
0.00287048
0.002922832
0.00288162
0.002711848
0.002399601
0.00216104
0.001961322
0.001718388
0.001384955
0.001251838
0.001022717
0.0007712505
0.0006363969
0.0002017557
0.0002784131
0.0006587574
0.0007418368
0.0009090433
0.001108488
0.001334218
0.001616037
0.00196774
0.002228809
0.001998471
0.001863195
0.001852175
0.001868874
0.001883177
0.001883265
0.001881836
0.001896732
0.001933362
0.001985452
0.002041538
0.002088293
0.002121904
0.002139423
0.002127427
0.001998812
0.001815737
0.001703842
0.001441418
0.001222252
0.001102558
0.0009670917
0.0008146488
0.0007425043
0.0003181079
0.0003020463
0.0006920104
0.0007843125
0.0009454932
0.001136138
0.001343888
0.001600711
0.001916716
0.002089061
0.001933003
0.001842812
0.001857221
0.001893483
0.001913501
0.001890611
0.00182939
0.00176023
0.00171204
0.001700405
0.001729906
0.001794414
0.001873387
0.001928175
0.001922499
0.001843625
0.001693708
0.001499955
0.001299049
0.001135732
0.001063839
0.0009889411
0.0008619046
0.000749678
0.0003226999
0.0003083859
0.0007039299
0.0007988923
0.0009556443
0.001139274
0.001337037
0.001563203
0.001816785
0.001967602
0.001939393
0.001923466
0.001941554
0.001986584
0.002020213
0.002000207
0.001918115
0.001809468
0.001719046
0.001673307
0.001678555
0.001723671
0.001784208
0.001829357
0.001831708
0.001776124
0.001666088
0.001526011
0.00140457
0.001291374
0.001178775
0.001050319
0.0008870695
0.0007323741
0.0003103223
0.0002968061
0.0006942807
0.0007931469
0.000947086
0.001123714
0.00131196
0.001501292
0.001703367
0.001858086
0.00191383
0.001977686
0.002056174
0.002118252
0.002168264
0.002160587
0.002070804
0.001933728
0.001806906
0.001726082
0.001701001
0.001722967
0.001770782
0.001817852
0.001839287
0.001818741
0.001778557
0.001708203
0.001610941
0.001484435
0.001325251
0.001134813
0.0009082675
0.0007078577
0.0002897666
0.0001871258
0.0005836101
0.0007106831
0.0008794852
0.001061097
0.00124646
0.001413748
0.001574719
0.00170814
0.001798006
0.001900779
0.002048031
0.002203144
0.00231685
0.00234432
0.002263371
0.002108745
0.001951011
0.001835572
0.001775745
0.001766899
0.001792917
0.001830728
0.001855414
0.001874459
0.001861386
0.001812337
0.001722357
0.001580077
0.001379628
0.001127986
0.0008387323
0.0006005098
0.0001812739
0.0004637091
0.0006208207
0.0007745095
0.0009734049
0.001164249
0.001327436
0.001452474
0.001563215
0.001645655
0.001741924
0.001898936
0.002110266
0.00233356
0.002481468
0.002450548
0.002295305
0.002115352
0.001970991
0.001877215
0.001830509
0.001819161
0.001825367
0.001835149
0.00184681
0.00183059
0.00178049
0.001686639
0.001532302
0.001306758
0.00101278
0.0007489847
0.0004835965
0.0004127165
0.0009094737
0.0009647225
0.00109765
0.001241828
0.001376325
0.001478073
0.001547709
0.001603354
0.001653479
0.001744357
0.001911388
0.002156268
0.002425288
0.002555433
0.002449396
0.00226278
0.00210064
0.00198379
0.001904597
0.001851125
0.00181182
0.001790772
0.001777255
0.001742124
0.001679398
0.001582949
0.001447462
0.00127735
0.001081869
0.0009247741
0.000414291
0.0003532889
0.0008015492
0.0009201769
0.001074519
0.001229213
0.001371508
0.001483034
0.001550472
0.001585262
0.00160792
0.001632029
0.001714422
0.001902003
0.002180216
0.002445809
0.002507747
0.002358024
0.0021901
0.002064775
0.001971405
0.001889484
0.001812365
0.001759076
0.001721036
0.001662462
0.001574236
0.001448843
0.001286601
0.001098862
0.0009097511
0.0007865941
0.000342535
0.0002054342
0.0005991212
0.0007399632
0.0008843304
0.001064533
0.001226037
0.001353622
0.001434134
0.001460793
0.001463692
0.001474056
0.001523196
0.001656584
0.00188615
0.002162476
0.002368152
0.002360041
0.002210195
0.002081812
0.001991133
0.001902761
0.001808829
0.001735054
0.001680733
0.001607117
0.001503023
0.001358847
0.001172048
0.0009520085
0.0007506048
0.0005691752
0.0001902562
0.0003999974
0.0008545013
0.0009444175
0.001052784
0.001188669
0.001299941
0.001373764
0.001402278
0.001393276
0.00138645
0.001400154
0.001471604
0.001625537
0.00184911
0.002075262
0.002202454
0.002141945
0.002012535
0.001930088
0.001863146
0.001766714
0.001681889
0.001613864
0.001523411
0.001409757
0.001271123
0.001100874
0.0009520996
0.0007981242
0.0003685236
0.0002101942
0.0005625168
0.0009664633
0.001027159
0.00111784
0.001198612
0.001250164
0.001271464
0.001259669
0.001238814
0.001236577
0.001279005
0.001389417
0.001563504
0.001760815
0.001919964
0.001963252
0.001869888
0.001791991
0.00176559
0.001673721
0.001582384
0.001503232
0.001382453
0.00124249
0.00109948
0.0009546874
0.0009035453
0.0005144628
0.000187432
0.0002483214
0.0006295808
0.0007309539
0.0008240904
0.0009191572
0.0009875387
0.001026193
0.001034203
0.00102414
0.001035599
0.001084983
0.001183953
0.001324864
0.001483285
0.001625655
0.001707177
0.001677253
0.001601208
0.001623904
0.001540443
0.001443124
0.001369376
0.001225484
0.001045854
0.0008819942
0.0007162812
0.0005678819
0.0002145133
0.0002727661
0.0006633027
0.0007313661
0.0007897838
0.0008479697
0.0008875985
0.0009042392
0.0009058146
0.000917756
0.0009625097
0.001040036
0.001141513
0.001253891
0.001361986
0.00144219
0.001449087
0.001385977
0.00145544
0.001391313
0.001261851
0.001219034
0.001082008
0.0008633183
0.0007410656
0.0006134697
0.0002375343
0.0002752237
0.0006485402
0.0006894863
0.0007433915
0.0007776203
0.0008097418
0.0008270934
0.0008437346
0.0008761622
0.0009252111
0.0009845027
0.001052523
0.001129962
0.001204209
0.00122989
0.001177846
0.001263417
0.001226326
0.001051028
0.001045792
0.000952337
0.0006967007
0.0006090826
0.0002465288
0.0002586818
0.0005801672
0.0008708989
0.0008331992
0.0008253256
0.0008111679
0.0008044913
0.0008074378
0.0008191721
0.0008437606
0.0008864236
0.0009482775
0.001010603
0.001024094
0.0009597904
0.001061844
0.001040751
0.000841793
0.0008891235
0.0008647315
0.0005630727
0.0002371824
0.0002211561
0.000492084
0.0007200343
0.0006637558
0.0006611597
0.0006782565
0.0006868615
0.0006944463
0.0007164112
0.0007560675
0.0008050475
0.0008451208
0.0008295975
0.0007358704
0.0008795306
0.0008519926
0.0006805933
0.000758265
0.0004916571
0.0002145409
0.0001780374
0.0003287404
0.0004839088
0.0006394419
0.0007255505
0.0006035561
0.0005887472
0.0006195683
0.0006576421
0.0006896844
0.0007031186
0.0006488585
0.0005661844
0.0007947084
0.0007050318
0.0005234232
0.0003488911
0.0001799815
0.0001708061
0.0002887538
0.0003352153
0.0003779598
0.0004886476
0.0005933614
0.0006162391
0.0006211567
0.0006064856
0.0005026751
0.0003976471
0.0003552286
0.0003039685
0.0001747777
0.0001573389
0.0002541666
0.0002698083
0.0002708568
0.0002562962
0.0001584364
0.0002537259
0.0004632753
0.0005580616
0.0006173376
0.0006438187
0.0006481973
0.000632696
0.0005814826
0.0005001248
0.0002776653
0.0002535181
0.0004892889
0.000634747
0.0008726461
0.001176908
0.0008757743
0.0009549292
0.0009955016
0.001001528
0.0009878228
0.0009811963
0.001261343
0.0009440037
0.0006641009
0.0005021421
0.0002621907
0.0003387235
0.0007765028
0.000714594
0.0009073647
0.001161504
0.001408087
0.001252829