/*--------------------------------*- C++ -*----------------------------------*\
  =========                 |
  \\      /  F ield         | OpenFOAM: The Open Source CFD Toolbox
   \\    /   O peration     | Website:  https://openfoam.org
    \\  /    A nd           | Version:  6
     \\/     M anipulation  |
\*---------------------------------------------------------------------------*/
FoamFile
{
    version     2.0;
    format      ascii;
    class       volScalarField;
    location    "49.8";
    object      nut;
}
// * * * * * * * * * * * * * * * * * * * * * * * * * * * * * * * * * * * * * //

dimensions      [0 2 -1 0 0 0 0];

internalField   nonuniform List<scalar> 
140018
(
0.0001865875
0.0002938587
0.0002863319
0.0001750939
0.0001983408
0.0003262099
0.0004394413
0.0005395302
0.0005276426
0.0004122501
0.0002962794
0.0001752656
0.0001677791
0.0002815288
0.0004195013
0.0005496624
0.0005962055
0.0006174836
0.0006089667
0.0005717577
0.0005157101
0.0003882469
0.0002749812
0.0001611543
0.0001571778
0.0003537039
0.0004848064
0.0005324225
0.0005679986
0.0006045523
0.000623482
0.0006229133
0.0006041559
0.0005715187
0.0005243631
0.0004694481
0.0003446137
0.0001574803
0.0002678897
0.0004867946
0.0005523386
0.0005741498
0.0005748067
0.0005784241
0.0005962281
0.0006038271
0.0005967167
0.0005816821
0.0005596515
0.0005296713
0.0004730826
0.0002629612
0.0001560984
0.0003853245
0.0005501527
0.0006027327
0.0006197259
0.0006203934
0.0006130789
0.0006035107
0.0006009395
0.0006002445
0.0005980378
0.0005942214
0.00058707
0.0005672938
0.000407516
0.0001728559
0.0002746928
0.0005120933
0.0006016981
0.000642339
0.0006582068
0.0006621849
0.0006610756
0.000658409
0.000654051
0.0006497475
0.0006477632
0.0006418782
0.0006229138
0.0005935588
0.000510996
0.0002799854
0.0001371211
0.0003746648
0.0005560317
0.0006268932
0.0006584355
0.0006699449
0.0006711564
0.0006677301
0.000661687
0.0006529352
0.0006421752
0.0006310761
0.0006205386
0.0006098823
0.0005931983
0.0005467617
0.0003870178
0.0001623221
0.0002290429
0.0004691496
0.0005826026
0.0006422115
0.0006704305
0.0006797329
0.0006802565
0.0006756099
0.0006664325
0.0006559663
0.0006465177
0.0006385089
0.0006347034
0.0006335396
0.0006245939
0.0005914815
0.0005063656
0.0002771401
0.0002253972
0.0004690011
0.0005880371
0.0006498068
0.0006802269
0.0006909682
0.0006926998
0.000689071
0.0006806878
0.0006706591
0.0006618925
0.0006553325
0.0006533467
0.0006531899
0.000643812
0.0006092249
0.000521817
0.0002833428
0.0001425007
0.0003751511
0.0005701284
0.0006446328
0.000682017
0.0006968485
0.0006999272
0.000697194
0.0006910141
0.0006815388
0.0006717127
0.0006653744
0.0006632723
0.000660329
0.0006453864
0.0005949937
0.0004248968
0.0001801013
0.0002890159
0.0005390122
0.000626218
0.0006752659
0.0006962934
0.0007022193
0.0007007688
0.0006959713
0.0006872804
0.0006776329
0.0006704516
0.0006652883
0.0006565921
0.0006298967
0.000556223
0.00031732
0.0001875912
0.0004433827
0.0005931859
0.0006571187
0.0006876154
0.0006981618
0.0006996312
0.000696932
0.0006896357
0.0006803556
0.0006705297
0.0006594049
0.0006405581
0.0005928728
0.0004306262
0.0001931029
0.0003170201
0.000549002
0.0006215712
0.0006654258
0.0006833199
0.0006898719
0.0006908675
0.0006858048
0.0006764386
0.0006618472
0.0006412939
0.0006071416
0.0005367574
0.0003074057
0.0001896776
0.0004147848
0.0005540337
0.0006125416
0.0006470249
0.0006638164
0.0006718397
0.0006693565
0.0006568325
0.0006325709
0.0005927155
0.0005360565
0.0003945383
0.0001838046
0.0001875992
0.0003143871
0.0004480219
0.0005655877
0.0006030432
0.0006253484
0.0006254579
0.000600809
0.0005555685
0.0004295387
0.0003065411
0.0001832244
0.0001867389
0.0003148347
0.0004262593
0.0005281486
0.0005296491
0.0004250145
0.0003140241
0.0001890788
0.000169386
0.0002819076
0.0002847705
0.0001755512
0.0001657658
0.0002843822
0.0003179473
0.000340468
0.0003612618
0.0003834085
0.0004047444
0.0004152843
0.000400684
0.0002467216
0.00017614
0.0003093475
0.000446169
0.000552885
0.0005857968
0.0006084624
0.0006256028
0.0006429173
0.0006654717
0.0006872078
0.0006896089
0.0005706789
0.00041981
0.0002432235
0.0002019484
0.0004617095
0.000621546
0.0007013261
0.0007641142
0.0008051797
0.0008414428
0.0008570547
0.0008394401
0.0008004546
0.0007728425
0.0007720384
0.0007536348
0.0007040628
0.0005299594
0.0002411228
0.0002044859
0.0004802964
0.0006785324
0.0007930827
0.0008874104
0.0009859198
0.001104598
0.001067776
0.001026367
0.0009798155
0.0008408162
0.00096091
0.0008643699
0.000815925
0.000786643
0.0007121954
0.0005174995
0.0002288688
0.0001924425
0.0004590184
0.0006722035
0.0008189316
0.0009701686
0.00113816
0.00118924
0.001185325
0.001170343
0.001125724
0.001082145
0.0009318635
0.0009426842
0.0009047567
0.0009669246
0.0008693659
0.0007878783
0.000690648
0.0004835228
0.0002070019
0.000175659
0.0004213467
0.0006281144
0.0007933658
0.00102284
0.00121593
0.001218581
0.001293882
0.001293545
0.001224809
0.001171547
0.001125482
0.001049896
0.001022739
0.0009693333
0.000967713
0.0008951008
0.000910103
0.000768038
0.0006482339
0.0004373861
0.0001860583
0.0003120159
0.0005671307
0.0007253872
0.000935134
0.001142216
0.001347395
0.001539155
0.001618381
0.001606051
0.001468789
0.001312411
0.001226111
0.001161819
0.001116318
0.001052923
0.001027973
0.0009535079
0.0009762933
0.0008822403
0.0007500885
0.0006131503
0.0003327101
0.0001649682
0.0004224672
0.0006318422
0.0008082826
0.001109402
0.001212807
0.001500548
0.001589322
0.001611926
0.001597054
0.00153684
0.001381691
0.001315271
0.001260194
0.001202217
0.00113363
0.001123867
0.001105147
0.001068271
0.001154593
0.0009423075
0.0007999252
0.0005396383
0.0002204446
0.0002850696
0.0005389584
0.0006919304
0.0009199389
0.0008002389
0.001085932
0.001360513
0.0014208
0.001463021
0.001502735
0.00153432
0.001530681
0.001457043
0.001403801
0.001374906
0.001387841
0.001513045
0.001689331
0.001612237
0.001334942
0.001296363
0.0009741605
0.0007046348
0.0003434249
0.0003138453
0.0005791427
0.0007390897
0.001033816
0.000816454
0.001121627
0.001224418
0.00129091
0.001359608
0.001443458
0.001542729
0.001646333
0.001734028
0.001778824
0.001812872
0.001859662
0.00187038
0.001745328
0.001480562
0.0009854119
0.001169454
0.0008236515
0.0005995477
0.0002938534
0.0003307789
0.0006062378
0.0007862865
0.0006026396
0.0007908739
0.001050947
0.001125372
0.001164412
0.001195637
0.001229045
0.001266341
0.001305485
0.001340631
0.001364681
0.001368657
0.001350085
0.001317715
0.001288255
0.00121948
0.0009533343
0.0006839827
0.0007908766
0.0005787429
0.0002922705
0.0003423426
0.0006264736
0.0008072055
0.0006435765
0.000916545
0.001043821
0.001091979
0.001108622
0.001112232
0.001111462
0.001106667
0.001101205
0.001095699
0.001095475
0.001105411
0.001128687
0.001158124
0.001168652
0.001141174
0.001078862
0.000952615
0.0008345119
0.0006163623
0.0003142735
0.000348874
0.0006502722
0.000810053
0.000731389
0.0009703449
0.001089768
0.001122864
0.001122731
0.00110868
0.001091158
0.001069937
0.001051409
0.001035126
0.001028278
0.00103444
0.001053469
0.001075249
0.00108648
0.00107276
0.001013422
0.00093456
0.0008674571
0.0006473079
0.0003327075
0.0003486169
0.0006595647
0.0008045806
0.001062395
0.001118022
0.001190042
0.001205021
0.001183171
0.001147607
0.001113239
0.001078118
0.001052683
0.001029462
0.00101437
0.001011942
0.001023139
0.001042231
0.001058698
0.001053033
0.001017839
0.0009558088
0.0008626773
0.0006631442
0.0003456385
0.0003388982
0.0006435964
0.0007811827
0.0009643559
0.001122522
0.001279501
0.001321162
0.001282336
0.001219234
0.001162177
0.001107703
0.001077159
0.001050543
0.001030501
0.001019548
0.001021175
0.001034835
0.001050523
0.00105944
0.001051058
0.001053051
0.0008268555
0.000653299
0.000345717
0.0003141345
0.000605596
0.0007596231
0.0008943891
0.001043746
0.001262429
0.001366839
0.001382605
0.001314526
0.001230881
0.001145408
0.001108981
0.001080943
0.001058514
0.001039754
0.001029029
0.001029358
0.001032898
0.001024481
0.0009937317
0.0009367583
0.0007742714
0.0006107226
0.0003211676
0.0001946779
0.0004803754
0.0007096531
0.000846505
0.001044881
0.00112126
0.001247463
0.001359542
0.001386648
0.001309453
0.001181923
0.001134669
0.001105706
0.00108576
0.001063781
0.001039745
0.001025181
0.001017226
0.00101974
0.001043066
0.000836825
0.0006962624
0.0004722196
0.0001935363
0.0003484021
0.0006401039
0.0007910875
0.0009369319
0.0009816115
0.001080287
0.001219315
0.00133433
0.001350453
0.001209339
0.001147123
0.001114886
0.001100386
0.00108118
0.001043577
0.001015747
0.000967308
0.00093975
0.0009017524
0.000752928
0.0006091765
0.0003332987
0.0002050809
0.0004687325
0.0006840709
0.0008138229
0.0009739866
0.0009893838
0.001076052
0.001171823
0.001254663
0.001193865
0.001134251
0.001094924
0.001079885
0.001083259
0.001033898
0.001018177
0.0009454582
0.0009509174
0.0007836739
0.0006519892
0.0004464759
0.0001945844
0.0002177528
0.0004873065
0.00069127
0.0007987118
0.0008983499
0.00100762
0.001015003
0.001091534
0.001080883
0.001067879
0.00104271
0.001022093
0.001055248
0.0009896538
0.001036009
0.0008989804
0.0007818142
0.0006667997
0.0004663333
0.0002059529
0.0002179017
0.00047694
0.0006562997
0.0007385612
0.0007903604
0.0008535523
0.0009463873
0.0009225488
0.0009494727
0.0009539049
0.0009347274
0.001019971
0.0009090794
0.0008211396
0.0007444322
0.000645789
0.000462638
0.0002069611
0.00020514
0.0004341274
0.0005777054
0.0006375194
0.0006844901
0.0007204017
0.0007701725
0.0008202714
0.000844464
0.0008283964
0.0007821853
0.0007341532
0.0006713673
0.0005946645
0.0004364198
0.0002009023
0.0001831591
0.0003053905
0.000418132
0.0005239912
0.0005538501
0.0005770045
0.0005977213
0.0006136993
0.0006174721
0.0006005523
0.0005643429
0.0004468604
0.000321945
0.0001859294
0.0001648742
0.0002664018
0.0002852186
0.0002944898
0.0003017658
0.0003086655
0.0003131007
0.0003088216
0.0002882663
0.0001765755
0.0002344081
0.0004011749
0.0004484703
0.0004698284
0.0004771466
0.0004715221
0.0004392546
0.0002673696
0.0002068637
0.0003820685
0.0004589854
0.0006141801
0.0007922384
0.0008660197
0.0009097145
0.0009342971
0.0009398551
0.0009112085
0.00074191
0.0005701607
0.000473697
0.0002579667
0.0002197833
0.0004893689
0.0006894732
0.0008062246
0.0009129441
0.001009065
0.001095604
0.00116648
0.001221932
0.00125723
0.001259146
0.001220149
0.001116404
0.0009547558
0.0006698731
0.0003121596
0.0001764656
0.0003307387
0.0005104527
0.0007220788
0.0008934896
0.0008989924
0.001012462
0.001101011
0.001170821
0.00122607
0.001272031
0.001306211
0.001309391
0.001281161
0.001220897
0.001363049
0.001084931
0.000765991
0.0004865932
0.0002575115
0.0001738946
0.0004080914
0.000610851
0.0007861825
0.0009280057
0.001108869
0.001196256
0.001283355
0.001340168
0.001379135
0.001401456
0.001405318
0.001392517
0.001356274
0.001307114
0.001258854
0.001377862
0.001180543
0.001199745
0.000925046
0.0006055638
0.0002531524
0.0001656184
0.0004044585
0.0006197295
0.0008245475
0.001105026
0.00133352
0.001505474
0.001603976
0.00165724
0.001679773
0.001673823
0.001640649
0.001587051
0.001515471
0.001427365
0.001337488
0.00126486
0.001337078
0.001209043
0.00120818
0.001205623
0.0009007297
0.0005628943
0.0002206513
0.0003038351
0.0006063051
0.0008403273
0.001175255
0.001471368
0.001683408
0.001834759
0.001913597
0.001926725
0.001902405
0.001857405
0.00180207
0.001720799
0.00160423
0.001498699
0.001384211
0.001274992
0.001286951
0.001200394
0.00118066
0.001171488
0.001115774
0.000788737
0.0003770971
0.0001970902
0.0005047196
0.0008222359
0.001116798
0.001396611
0.001622153
0.001811226
0.001949548
0.002024468
0.002031181
0.001958814
0.001868411
0.001785249
0.001695384
0.001585916
0.001503303
0.001400962
0.001292456
0.001253379
0.001175475
0.001152681
0.001157455
0.001131373
0.0009793051
0.0005791954
0.0002253664
0.0001601964
0.0004366857
0.0007307179
0.000948917
0.00122184
0.001484827
0.001732241
0.001944965
0.002109316
0.002196426
0.002222434
0.002155365
0.001985147
0.001812325
0.001673899
0.001560504
0.001485341
0.001410613
0.001326104
0.00125399
0.001178683
0.001162919
0.001204977
0.001209293
0.0009981758
0.0009188683
0.0005623196
0.0002130073
0.0002865801
0.0006028615
0.0009054951
0.001107487
0.001340291
0.001586276
0.001845037
0.002065342
0.00222725
0.002309619
0.002334911
0.002304112
0.002169826
0.001922465
0.001748681
0.001624567
0.001542192
0.00147436
0.001404077
0.001328936
0.00128269
0.001323261
0.001431793
0.001465127
0.001086405
0.001297482
0.0009121369
0.0004440428
0.0003463433
0.0007093003
0.0008768006
0.00108778
0.001358794
0.001665398
0.001910964
0.002080182
0.002180466
0.002183229
0.002180896
0.002172111
0.002139499
0.001990242
0.001851832
0.001748328
0.001670915
0.00160707
0.001565744
0.001550412
0.001601348
0.001797276
0.001949652
0.001915184
0.001405063
0.000895036
0.001065718
0.0005257447
0.0001598717
0.0004621968
0.0007946835
0.0009324888
0.001180923
0.0014561
0.001778749
0.001841707
0.001874767
0.001889976
0.001890479
0.001929474
0.001994914
0.002069642
0.002126576
0.002074894
0.001995825
0.001944554
0.001945893
0.002069265
0.002280638
0.002403215
0.00229652
0.002113203
0.001805632
0.001434256
0.0008229824
0.001020762
0.0006027119
0.0002030279
0.0002680796
0.0005773851
0.0008430395
0.0009828342
0.001233417
0.001541173
0.001803664
0.001629784
0.001632437
0.001641019
0.001676305
0.001743003
0.001840537
0.001967351
0.00211284
0.002254303
0.002359827
0.002415771
0.002472339
0.00248603
0.002355819
0.002106323
0.001718084
0.001588812
0.00144814
0.001242846
0.0007973321
0.0008657937
0.000578583
0.0002626735
0.0002945562
0.000611352
0.0008724642
0.001017642
0.001279929
0.00161785
0.001585537
0.001417957
0.001473148
0.0015008
0.001524994
0.001547695
0.001570468
0.001599361
0.001636659
0.001677782
0.001714099
0.001736213
0.001738822
0.001723472
0.001709926
0.001669061
0.001486257
0.001293784
0.001297236
0.001094441
0.0009119794
0.0007626129
0.0005711453
0.000293296
0.0003058343
0.0006280623
0.0008904903
0.001031616
0.00130377
0.001618063
0.001525553
0.001401609
0.001440351
0.001473151
0.001492531
0.001495879
0.001480089
0.001451253
0.00142136
0.001400053
0.001395686
0.001413933
0.001453517
0.001499974
0.00152216
0.001495624
0.001422508
0.001301192
0.001153408
0.001000572
0.0008935763
0.0008455942
0.0006193738
0.0003135874
0.0003108631
0.0006373118
0.0009017526
0.001029111
0.001268074
0.001542489
0.001524028
0.001449548
0.001499592
0.001529574
0.0015444
0.001539735
0.001509101
0.001456218
0.001398999
0.001352319
0.001328532
0.001332713
0.001359152
0.001391265
0.001407847
0.001391028
0.001330423
0.001236048
0.001138569
0.001041358
0.000950746
0.0008895712
0.0006434333
0.0003200387
0.0003096803
0.000638614
0.0009051247
0.001014781
0.001199583
0.001431592
0.001541881
0.001544674
0.001604979
0.001646647
0.001652206
0.001636422
0.00159143
0.001518873
0.001440995
0.001373896
0.001330322
0.001316346
0.001328273
0.001352952
0.001372877
0.001370796
0.001348038
0.001294197
0.001217156
0.001124255
0.001014837
0.0009229087
0.0006565223
0.0003201565
0.000292019
0.0006194511
0.0008920817
0.0009838044
0.001125471
0.00129959
0.001433069
0.001526355
0.001637081
0.00174436
0.001789755
0.001772633
0.00171243
0.00161791
0.001520765
0.0014364
0.001374561
0.00134134
0.001336246
0.001350489
0.00136894
0.001382022
0.001370463
0.001325032
0.001254381
0.001162555
0.001041831
0.0009354688
0.0006501475
0.00030528
0.0001831496
0.0005094149
0.0008574601
0.0009347577
0.001045805
0.001164645
0.001285933
0.001406036
0.001546263
0.001698467
0.001837349
0.001901436
0.001852824
0.001734181
0.001614542
0.001514664
0.001437128
0.001384652
0.001358149
0.001352567
0.001355189
0.001360174
0.00133776
0.001288853
0.001218052
0.001125039
0.001004591
0.0009018196
0.0005381499
0.0001906082
0.0004010741
0.0007984735
0.0008887599
0.0009740365
0.001068738
0.001148251
0.001228922
0.001349118
0.001519795
0.001710582
0.001885928
0.001953401
0.001846274
0.001701666
0.001586667
0.001498022
0.001430575
0.001382702
0.001351482
0.00133585
0.00131815
0.001281331
0.001225855
0.001152684
0.001050651
0.0009394677
0.0008085141
0.0004099295
0.0003519085
0.0007145494
0.001032499
0.001073903
0.00113429
0.001179534
0.001216762
0.001261366
0.001354263
0.001511178
0.001714523
0.001887847
0.001901987
0.00176291
0.001632738
0.001536357
0.001460462
0.00139744
0.001349719
0.001316597
0.001278732
0.001231655
0.001174806
0.001111394
0.001041801
0.0009980075
0.0006904354
0.0003414304
0.0002026644
0.0005242195
0.0008511238
0.0009237559
0.0009853583
0.001042849
0.001074415
0.001102097
0.001166184
0.001296449
0.001489451
0.001684091
0.001800493
0.00176096
0.001634951
0.001529809
0.001447219
0.001384825
0.001337388
0.001292023
0.001242295
0.001186334
0.001112931
0.001018706
0.0009193405
0.0008176198
0.0005017329
0.0001913678
0.0002477207
0.0006099339
0.0009645765
0.001002351
0.001036425
0.001066283
0.001084042
0.001113833
0.001185698
0.001305791
0.001450357
0.001575213
0.001627542
0.001568178
0.001466245
0.001387499
0.00133286
0.001291954
0.001247817
0.001195141
0.00114621
0.001075057
0.0009991585
0.0009223256
0.0005818598
0.0002336689
0.0003922991
0.0007534364
0.001004156
0.001016458
0.001032782
0.001043641
0.001054292
0.001087362
0.001151226
0.001239116
0.001329853
0.001394648
0.001413777
0.001365993
0.001293516
0.00124364
0.001213952
0.001180937
0.001114905
0.001070198
0.001010178
0.0009519649
0.000709226
0.000365823
0.0002125707
0.0005007904
0.0007524958
0.000964302
0.0009485829
0.0009489395
0.0009512994
0.0009686235
0.001007527
0.00106302
0.001121978
0.001175475
0.001217829
0.001227481
0.00118354
0.001134846
0.001111681
0.001102758
0.00100512
0.0009825212
0.0009425584
0.000721685
0.0004728722
0.0001948412
0.0002138767
0.0004851965
0.0006980578
0.0008762776
0.0008425034
0.0008476354
0.0008610314
0.0008860859
0.0009197521
0.0009564602
0.0009958787
0.001038623
0.001070602
0.001061374
0.001015476
0.0009821292
0.001020468
0.0008877067
0.0008940806
0.0006930318
0.0004680555
0.000198779
0.0001997996
0.0003569963
0.0005384198
0.0007419636
0.0008792953
0.0008204977
0.0008053881
0.0008104305
0.0008300015
0.0008583652
0.0008899431
0.0009169232
0.0009188775
0.0008867549
0.0008573848
0.0009492321
0.0007760381
0.000558258
0.0003559685
0.000189728
0.0002153776
0.0004509897
0.000596224
0.000664044
0.0007185029
0.0007484765
0.0007653533
0.0007776935
0.0007925462
0.0008066583
0.0008039967
0.0007758599
0.0007287203
0.0006490307
0.0004682473
0.0002196512
0.0001673882
0.0002851662
0.0003250028
0.0004172606
0.0005136732
0.0005373538
0.0005496213
0.0005594376
0.0005645433
0.0005503414
0.0004504921
0.0003588415
0.0003149975
0.0001770386
0.0001475387
0.0002406937
0.0002598578
0.0002680599
0.0002723752
0.000271659
0.00025578
0.0001576069
0.00027365
0.0004584578
0.0004939818
0.000496994
0.0004688325
0.0002869078
0.000245556
0.0004476651
0.0005498935
0.0006541055
0.000858612
0.001073297
0.001127029
0.00113521
0.001102567
0.0009086871
0.0007040729
0.0005949583
0.0004810161
0.0002606986
0.0002232159
0.0004449168
0.0006979516
0.0009877707
0.001176822
0.0008492829
0.001052049
0.001254834
0.00132028
0.001338629
0.001306694
0.001148218
0.001016551
0.00130738
0.001097155
0.0007711424
0.0005059096
0.0002533157
0.000240893
0.0005680828
0.0008986943
0.0007894286
0.001047874
0.001148103
0.0009632809
0.001196713
0.001405843
0.001502232
0.001555069
0.00155504
0.001440987
0.001299939
0.00153592
0.001321147
0.0009985938
0.001090722
0.0006907335
0.0002995951
0.0002449106
0.0005776511
0.0009210835
0.0008629747
0.0008258093
0.001063694
0.001123494
0.0009866745
0.001204215
0.001421391
0.001548661
0.001646155
0.001703103
0.001660487
0.001602598
0.001810157
0.00161233
0.001243688
0.001300931
0.001204048
0.000770887
0.0003300764
0.0002350098
0.0005736261
0.0006402182
0.0009041747
0.0008947318
0.0008900029
0.001125154
0.001199443
0.00105034
0.001226526
0.001424422
0.001547313
0.001643607
0.001709789
0.001716643
0.001747768
0.001979709
0.001851852
0.00153694
0.001503029
0.001393831
0.0009906716
0.0008066568
0.0003282362
0.0002178563
0.0005459967
0.0006353363
0.0007126248
0.0009908671
0.001063127
0.001116226
0.001348882
0.001463544
0.001365448
0.001434415
0.001536816
0.001603595
0.001658744
0.001702279
0.001694802
0.001726448
0.001957619
0.001941971
0.001724144
0.001688041
0.001559258
0.0011509
0.0009567101
0.000763396
0.0002953466
0.0001888467
0.0004934666
0.0006153734
0.0007298419
0.0008638299
0.001175224
0.001399304
0.00160026
0.001846075
0.001999501
0.001996138
0.001970583
0.001931111
0.001870889
0.001810481
0.001762375
0.001698557
0.001679829
0.001842551
0.001889984
0.001743834
0.001723365
0.001617018
0.001258928
0.001015908
0.0008533462
0.0006484646
0.0002367836
0.0001565585
0.0004331968
0.0007672882
0.0007389736
0.0009091383
0.001145512
0.00153857
0.001972697
0.002387688
0.002715716
0.002895894
0.00290306
0.002786108
0.002594437
0.002365383
0.00214102
0.001948975
0.001787603
0.001678136
0.001719755
0.001763798
0.001687859
0.001675297
0.001602061
0.001319517
0.001090845
0.0008490353
0.0009807707
0.000537475
0.0001845329
0.0003004098
0.0006633873
0.0008179698
0.0009234598
0.001162673
0.001539123
0.002054969
0.002583095
0.002959437
0.003168893
0.003265923
0.00326809
0.003153014
0.002931286
0.002648409
0.002357686
0.002095132
0.00187977
0.001709615
0.001644578
0.001638264
0.001588394
0.001586378
0.001567353
0.001397967
0.001245503
0.001023173
0.0009256318
0.0008776469
0.0003925153
0.0001597225
0.0004727316
0.0006559801
0.0008773222
0.00109075
0.001420309
0.001874281
0.00234446
0.002654512
0.002846932
0.002968201
0.003028615
0.003033493
0.002964339
0.002787708
0.002552081
0.002308298
0.002080144
0.001888473
0.001727606
0.001619453
0.001564322
0.001517059
0.001539069
0.00160081
0.001578946
0.001499645
0.001384286
0.001090737
0.0007398424
0.0006814081
0.0002224067
0.0002803454
0.0006533516
0.0007470323
0.0009666348
0.001231404
0.001621919
0.002027247
0.002326418
0.002581846
0.002787408
0.002901893
0.002941105
0.002945031
0.002921259
0.002824478
0.002546126
0.002299575
0.002094707
0.001929624
0.001792471
0.001679211
0.001604761
0.001580755
0.001674705
0.001852776
0.001981053
0.001895429
0.001843675
0.001558679
0.0009147952
0.001057658
0.0004492845
0.0003411592
0.0007699784
0.0008636536
0.001079115
0.001352828
0.001697731
0.001991056
0.002287955
0.002593223
0.002743439
0.002736582
0.002678234
0.002654115
0.002655006
0.002662786
0.002569058
0.002373445
0.002203122
0.002067858
0.001956621
0.001874322
0.001853593
0.001944406
0.002204961
0.002490033
0.002585658
0.002313626
0.001837135
0.001556881
0.0009586862
0.001198483
0.0005243816
0.0004028897
0.0006180946
0.0008306609
0.001071769
0.001329491
0.001624452
0.001937154
0.002323486
0.002577833
0.002473377
0.002337496
0.002282665
0.002306114
0.002381614
0.002488458
0.002602159
0.002593855
0.002497107
0.002399529
0.002358465
0.002452008
0.002660744
0.002892351
0.002957351
0.002803614
0.002465446
0.00204533
0.001551742
0.001350105
0.0009677795
0.0007028584
0.0005347943
0.0001683469
0.0005364309
0.0006609828
0.0008563609
0.001077193
0.001321097
0.001614544
0.001957776
0.002374019
0.002330275
0.00209555
0.002013524
0.002013602
0.002065076
0.002155538
0.002285524
0.002449998
0.002626489
0.002775999
0.002861403
0.002931086
0.00296685
0.002875863
0.002666613
0.002345019
0.002108862
0.001912097
0.00167381
0.001352216
0.001222162
0.0009978615
0.000788893
0.0006326662
0.0002011634
0.0002791848
0.0006611098
0.0007465567
0.0009163484
0.001119113
0.001346167
0.00163
0.00198318
0.002266324
0.002033611
0.0018769
0.001859491
0.001875133
0.001892437
0.001899447
0.001906646
0.001928125
0.001966836
0.002016064
0.00206565
0.002104548
0.00212178
0.00213349
0.002118376
0.001981282
0.001784713
0.00166017
0.001404423
0.001203446
0.001093173
0.0009664597
0.0008255655
0.0007415043
0.0003162584
0.0003028811
0.0006943776
0.0007886542
0.0009524477
0.001146483
0.001357682
0.001617892
0.001942026
0.002119834
0.001932702
0.0018323
0.001846864
0.001883093
0.001903388
0.001882745
0.001826422
0.001762781
0.001718659
0.001709491
0.001740604
0.001805694
0.001882032
0.001930413
0.001915557
0.001827318
0.001670686
0.001475665
0.001281702
0.001133633
0.001068046
0.0009925151
0.000864287
0.0007469115
0.0003203432
0.0003092245
0.000706307
0.0008029225
0.000962131
0.001149062
0.001350534
0.001581111
0.001843697
0.001988901
0.001929422
0.001896812
0.00191848
0.001966908
0.002001898
0.001983431
0.001905198
0.001802274
0.001717137
0.001675394
0.00168351
0.00173014
0.001790066
0.001832079
0.001829262
0.001768172
0.001654555
0.001516808
0.001399026
0.001289979
0.001179769
0.001050925
0.0008856952
0.0007292701
0.0003085683
0.0002975939
0.0006966042
0.000797068
0.0009534942
0.001133401
0.0013251
0.001519877
0.001727426
0.001879439
0.001912153
0.001959799
0.002030681
0.002091634
0.002143239
0.002136826
0.00205003
0.001918707
0.001798144
0.001722461
0.001701388
0.0017262
0.001775294
0.001821809
0.001841226
0.001818465
0.001776337
0.001704651
0.001607164
0.001481188
0.00132263
0.001132224
0.0009057901
0.00070547
0.0002887622
0.0001875707
0.0005854826
0.0007140897
0.0008853492
0.001070133
0.001258491
0.0014276
0.001592473
0.001727883
0.001810511
0.001905147
0.002045539
0.002189759
0.002292622
0.002317669
0.002237595
0.002088099
0.001937114
0.001827381
0.00177203
0.001766797
0.001795481
0.001834758
0.001859726
0.001878683
0.001864228
0.00181373
0.001722443
0.001579137
0.001378116
0.001126402
0.0008374149
0.0005985608
0.0001807783
0.0004651963
0.0006237888
0.0007794436
0.00098142
0.00117504
0.001338735
0.001466587
0.001577972
0.001660586
0.001759504
0.001917234
0.002124068
0.002334863
0.002464769
0.002425241
0.002272226
0.002098761
0.001960158
0.001870558
0.001827273
0.001818988
0.001827698
0.001840171
0.001852269
0.001835842
0.00178507
0.001690054
0.001534014
0.001306445
0.00101084
0.0007474609
0.0004824612
0.0004139073
0.0009125486
0.0009698111
0.001105528
0.001252134
0.001386757
0.001485788
0.001555669
0.001608603
0.001661192
0.001760092
0.001934878
0.002181336
0.002439133
0.002544463
0.002428398
0.002246111
0.002089642
0.001976366
0.001899578
0.001848522
0.00181183
0.001794026
0.001781516
0.001747016
0.001684677
0.001588382
0.001452663
0.001281748
0.00108469
0.0009251384
0.0004143544
0.0003541937
0.0008040053
0.0009243985
0.001081248
0.00123831
0.001381313
0.001490127
0.001552496
0.001586171
0.001607925
0.001636938
0.001730801
0.001930827
0.00221281
0.002465172
0.002499903
0.00234381
0.002180972
0.002059214
0.001967242
0.001886506
0.001811554
0.001761292
0.001724081
0.00166603
0.001578055
0.001452765
0.001290453
0.001102389
0.0009124764
0.0007878312
0.0003430645
0.0002058633
0.0006006886
0.0007428727
0.0008887301
0.001070923
0.001233547
0.001359966
0.001436553
0.001458745
0.001461031
0.001473546
0.001531859
0.001679182
0.001920003
0.00219678
0.002386202
0.002354723
0.00220363
0.002079615
0.001990289
0.001901797
0.001809729
0.001738145
0.001685093
0.001611941
0.001507773
0.001363002
0.001175194
0.0009539278
0.0007521898
0.0005703394
0.0001906201
0.0004008885
0.0008564991
0.0009472449
0.001056389
0.001192926
0.00130371
0.00137576
0.001400671
0.001389888
0.00138454
0.001404423
0.001486871
0.001653008
0.001883425
0.002105729
0.002215928
0.00213989
0.002013069
0.001933245
0.001865729
0.001770551
0.001687471
0.001620494
0.00153079
0.001417325
0.001277974
0.001106229
0.0009556546
0.000800597
0.0003696229
0.0002105224
0.0005635233
0.0009682135
0.001029503
0.001120563
0.001202073
0.001252921
0.001272656
0.0012594
0.00123987
0.001241449
0.001291462
0.001411609
0.001593165
0.00179135
0.001943161
0.00197192
0.00187222
0.001798051
0.001771139
0.001679953
0.001590263
0.001510679
0.001390372
0.001250769
0.001106932
0.0009607801
0.0009068557
0.0005162813
0.0001880003
0.000248615
0.000630308
0.0007320904
0.0008253195
0.0009200578
0.0009877327
0.001025249
0.001032257
0.001023476
0.001038907
0.001094857
0.001201677
0.001348762
0.001509206
0.001648658
0.001722709
0.001683633
0.001608765
0.001631366
0.001547477
0.001451842
0.001376389
0.001232026
0.001052563
0.0008868861
0.0007195989
0.0005700599
0.0002153067
0.0002729307
0.0006635593
0.0007315585
0.000789208
0.0008466249
0.0008854203
0.0009014998
0.0009038456
0.0009194183
0.000969616
0.001053037
0.001158988
0.001273451
0.001380775
0.001458452
0.001459806
0.001394393
0.001464864
0.001397277
0.00127011
0.001225255
0.001086706
0.0008686013
0.0007446673
0.0006154768
0.0002382827
0.0002751723
0.0006482112
0.0006889327
0.0007415304
0.0007748295
0.0008063993
0.0008245808
0.000843944
0.0008805802
0.0009334861
0.0009955772
0.001065835
0.001145075
0.001220089
0.001242318
0.001186453
0.001273606
0.001231226
0.001056928
0.001050991
0.0009551011
0.0007000794
0.0006109613
0.0002471629
0.0002584486
0.0005794188
0.0008696164
0.0008314525
0.0008240515
0.0008106394
0.0008053643
0.0008102981
0.0008240341
0.0008506733
0.0008959525
0.0009602988
0.001023214
0.001034542
0.0009671514
0.001070615
0.001046067
0.0008449618
0.0008931984
0.0008672633
0.0005646066
0.0002375782
0.0002208299
0.0004911421
0.0007185127
0.0006625344
0.0006599455
0.0006777135
0.0006878007
0.000696878
0.0007207732
0.0007625419
0.000813072
0.0008535878
0.0008368064
0.0007410825
0.0008860305
0.0008563344
0.0006828395
0.0007606017
0.0004928144
0.0002149264
0.000177657
0.0003278954
0.0004824618
0.0006375955
0.0007238453
0.0006026233
0.0005889135
0.0006214307
0.0006609597
0.0006938879
0.000707644
0.0006527575
0.0005693994
0.0007985486
0.0007080077
0.0005252202
0.0003499539
0.0001803235
0.0001702371
0.0002878347
0.000334312
0.0003772478
0.0004883888
0.0005937248
0.000617242
0.0006227203
0.0006084331
0.000504499
0.0003993095
0.0003567086
0.0003051437
0.0001753244
0.0001572131
0.000254153
0.0002700229
0.0002712954
0.0002568783
0.000158838
0.0002536587
0.0004631309
0.0005578404
0.0006170084
0.0006433697
0.0006475874
0.0006319047
0.0005805603
0.0004991844
0.000277023
0.0002534685
0.0004891509
0.0006345285
0.0008723197
0.001176478
0.0008751307
0.0009543769
0.0009950069
0.001000949
0.0009870162
0.0009800443
0.001259578
0.0009424682
0.0006629384
0.0005009733
0.0002614878
0.0003384384
0.0007759451
0.0007133252
0.0009059184
0.001159852
0.001406231
0.001251026
0.001463666
0.001533355
0.001543162
0.001515681
0.001427059