/*--------------------------------*- C++ -*----------------------------------*\
  =========                 |
  \\      /  F ield         | OpenFOAM: The Open Source CFD Toolbox
   \\    /   O peration     | Website:  https://openfoam.org
    \\  /    A nd           | Version:  6
     \\/     M anipulation  |
\*---------------------------------------------------------------------------*/
FoamFile
{
    version     2.0;
    format      ascii;
    class       volScalarField;
    location    "49.8";
    object      p;
}
// * * * * * * * * * * * * * * * * * * * * * * * * * * * * * * * * * * * * * //

dimensions      [1 -1 -2 0 0 0 0];

internalField   nonuniform List<scalar> 
140018
(
308022.4
307849
307858
308056.7
308150.6
308057.1
307953.6
307827.3
307855.6
308029.2
308159.6
308240.7
308031.6
308037
307994.5
307925.9
307981.1
308046.9
308106.1
308139
308126.7
308180.2
308157.6
308074.6
308048.3
307925
307924.5
308024
308110.5
308212.8
308335.5
308426.9
308451.2
308403.7
308290.6
308125.8
308055.3
308111
308103
307989.2
308135.2
308296.3
308422.7
308539.6
308675.2
308784.3
308813.4
308753.7
308607.8
308398.9
308197
308255.3
308181.8
308109.6
308173.4
308400.7
308619.8
308792.3
308932.5
309058
309151.3
309177.5
309113.5
308958.2
308724.1
308466.4
308358.4
308368.4
308068.3
308042.1
308311.8
308618.8
308894.1
309113.1
309287.8
309423.6
309497.9
309493.8
309410.8
309236.1
308968.3
308643.5
308325.8
308276.9
307852
307882.5
308036.3
308385
308744.5
309051.8
309301.4
309498.6
309633.6
309696
309676.4
309567.3
309370.6
309079.2
308703
308303.8
308063.6
307891.7
307613.4
307659.3
307988.9
308392.7
308785.2
309111.5
309382.7
309582.1
309706.6
309752.9
309719.4
309591
309377.3
309079.4
308688.3
308251.9
307845.5
307668.3
307542.1
307577.6
307910.7
308330.6
308742.5
309086.7
309369.3
309573
309694.1
309732
309688.4
309549
309328.6
309024.6
308633.2
308202
307805
307650.3
307652.4
307642
307815.1
308210.4
308627.9
308989.7
309275.1
309484.6
309611.3
309644.9
309586.8
309444
309224.7
308918.4
308542.7
308155.8
307928.6
307833.7
307715.8
307731.5
308065.9
308464.7
308832
309121
309326.1
309448.6
309479.2
309421.3
309284.2
309063.4
308763.4
308419
308098.9
308056.4
307786.5
307772.6
307925.2
308270.9
308622.6
308909.1
309110.9
309225.6
309253.6
309198.4
309059.8
308839.1
308554.4
308258.8
308124.8
308135.1
307781.8
307780.7
308064.6
308380.4
308642.8
308830.7
308932.2
308956.8
308904.9
308770.6
308564.2
308307.7
308070.4
308106.2
307758.2
307749.4
307887.2
308140.7
308348.9
308500.4
308579.9
308598.3
308556.1
308447.9
308288.4
308087.2
307988.9
308029.9
307843
307973.5
308056.1
308078.4
308168.6
308201.5
308213.3
308207
308155.1
308176.8
308137.1
308043.3
308092.3
308076.1
307993.9
307865
307874.2
308026.3
308138.5
308194.9
307927.7
307776.7
307785.5
307961.5
304419.6
304507.3
304720.7
304871.6
304939.8
304920.5
304810.6
304611.2
304342.9
304202
304387
304598
304753
304874.1
305050.8
305163.3
305209.2
305201.5
305133
304981.2
304746.3
304548.3
304325
304064.1
304581.4
304665.3
304893.7
305163.6
305350.8
305505.2
305538.2
305513.5
305515.1
305537.8
305471.6
305263.1
305005.1
304666
304370
304245
304619.2
304752.3
305011.9
305316.7
305583
305687.6
305649.3
305566.8
305343.9
305356.1
305600.1
305659.5
305655.7
305482.9
305143.6
304774.3
304460
304297.8
304481.2
304702.5
305021.9
305389.2
305611.7
305670.8
305642.1
305387
305174.4
304771.3
304799.2
305242.8
305473.8
305711.1
305652.6
305516.6
305226.6
304798.7
304436
304194.7
304197.2
304508.3
304921.2
305356.5
305542.6
305564.3
305382.9
305185.1
304752
304670.6
304661.3
304720.5
304823.5
304934.3
305337.1
305475.5
305579.3
305463.8
305218.5
304724.1
304268.8
303937.6
304376.3
304713.4
305208.8
305572.3
305574
305198.1
304805
304719.2
304669.4
304684
304754.8
304846.7
304910.3
304936.8
304950.3
304968.9
305293
305605.4
305526.5
305096.8
304537.7
304150.7
304131.4
304488
304968.1
305480.5
305657.7
305441.4
304864.6
304774.1
304796.3
304842.1
304901.9
305001.4
305105.7
305153.1
305138.7
305076.4
305008.7
305046
305564.8
305711.5
305469.6
304872.7
304301.8
303889.7
304196
304596
305157.4
305597.5
305664.8
305290
304858.9
304890.7
305005.9
305124.7
305234
305341
305423.2
305458.2
305423.7
305327.8
305202.8
305142.4
305521.8
305822.1
305636.8
305071.4
304381.8
303868.6
304388.4
304758.1
305303
305542.6
305387.8
304864.5
304859.4
305012.6
305206
305384.3
305535.4
305655.4
305729
305737.4
305676.7
305548.5
305367.2
305197
305147.7
305563.7
305547
305150.1
304450.1
303944.1
304519.7
304845.5
305301.2
305412.2
305106.2
304726.9
304849.5
305082.6
305325.1
305538.6
305711.5
305834.1
305895.7
305887
305803.3
305645.9
305423
305170.3
304985.4
305256.6
305397.4
305117.1
304509.9
304065.9
304568.3
304854.7
305218.9
305113.5
304602.4
304602.2
304810.8
305093
305365.4
305599.8
305779.8
305896
305943
305916.8
305812.1
305634.5
305393.1
305109.3
304857.3
304763.1
305114.4
305057.4
304569.2
304197.1
304537.6
304812.3
305162.7
305044.4
304516.1
304517.6
304742.5
305045.2
305336.1
305583.2
305768.5
305882.4
305921.7
305884.7
305768.9
305582
305333.7
305048
304800.2
304718.4
305100.5
305076.3
304633.2
304310.1
304438.5
304726.9
305132.7
305210.8
304861.9
304496
304659.9
304951.8
305249.3
305501.4
305689.7
305804.2
305839.2
305794.7
305675
305488.9
305247.7
304991.7
304820.9
305119.2
305343.8
305146.8
304662.9
304353.5
304277.2
304590.1
305058.5
305247.6
305055.9
304542.3
304596
304838.5
305122.6
305370.5
305554.4
305665.4
305697.4
305652.1
305536.2
305357.5
305137.9
304940.4
304887.7
305340.2
305423.5
305149.6
304618
304297
304073.9
304408
304889.2
305264.4
305299.2
304943
304582.7
304733.3
304977.3
305204.8
305375.7
305477
305505.4
305463.4
305355.2
305193.3
305013.5
304910
305273.8
305585.7
305474.4
305026.7
304497.5
304156.1
304019
304304
304710
305163.2
305314.1
305121.8
304626.7
304667
304842.8
305026
305166.4
305248
305271
305237.4
305149.6
305026.3
304909.2
304909.7
305414.7
305565.8
305369.4
304868.7
304428.5
304137.4
304197.4
304472.2
304919.6
305263.9
305295.9
305003.3
304731.6
304797.8
304882.7
304962
305006.6
305022.1
305012.6
304978
304945.6
304930.4
305234.8
305536.9
305484.9
305105.6
304631.8
304337.1
304043.3
304288.1
304651.9
305068.2
305276.2
305373.9
305300.3
305219.3
304884
304849.2
304820.5
304829.7
304885.4
304958.8
305335.9
305457.4
305559.6
305467.3
305254.9
304816.9
304436.7
304171.9
304275.5
304446.3
304740.4
305119.6
305381
305509.8
305581.3
305388.2
305203.7
304805.6
304815.1
305234.5
305448.1
305674.2
305635.2
305528.8
305276.8
304895.9
304589.8
304408.5
304375.2
304480.2
304729.5
305051.2
305359.4
305517
305520.5
305479.7
305265.4
305274.8
305508.8
305572.6
305592.6
305460.4
305171.5
304859.1
304609.3
304499.7
304321.8
304376.8
304605.4
304891.9
305109.3
305294.5
305354
305333.3
305340.1
305377.1
305337.6
305170
304973.4
304703.8
304482.9
304430.6
304123.6
304323
304470.2
304602.7
304795
304923.4
304975.3
304978.7
304938.2
304826.2
304649.9
304535
304399.9
304208
304160.8
304253.6
304478.1
304641.6
304719.3
304718.1
304645.3
304492.6
304286.1
304214.8
300474
300488.4
300623.3
300702.5
300698.9
300612.1
300460.8
300463.3
300342.7
300581.1
300938.7
301049
301132.5
301258.7
301323.1
301303.8
301201.4
301034.1
300905.9
300780.5
300399.4
300157.2
300784.7
300872.4
301170
301437.9
301619.3
301803.2
301938.3
302000.6
301974.6
301860.4
301671.7
301434.9
301212.4
300895.6
300555.8
300477.2
300340.8
300817
301197.3
301436.4
301615.3
301810
301807.5
301958.7
302074.9
302128.1
302105.4
302004.1
301833.1
301621.2
301568
301308.3
301078.7
300801.4
300392.7
299885.9
300364.3
300715.4
301220.1
301554.4
301761.7
301752.2
301747.8
301529
301588
301638.5
301659
301642.6
301584.1
301483.6
301362.7
301513.4
301457
301414.1
301151.1
300778.1
300236.9
299870.8
300274.2
300673.5
301215.9
301607.4
301819.6
301686
301495.3
301547.8
301577.1
301571.7
301540.5
301517.6
301508.3
301507.2
301496.6
301441.7
301341
301220.9
301356.8
301451.8
301189.3
300768.6
300204.4
299794
300708.6
301128.9
301559.7
301826.9
301716.2
301499.5
301553.4
301587.1
301562.5
301487.3
301377.9
301298
301299.7
301375.8
301456
301474.9
301426.7
301321.4
301210.2
301386.4
301469.8
301159.8
300706.9
300274.3
300592.5
301020.2
301411.3
301717.8
301667.6
301474.1
301503.9
301521
301488.5
301382.9
301251.5
301126
301039.2
301060.3
301175.1
301295.2
301382.2
301411.3
301364
301279.9
301200.9
301363.2
301389.3
301042.5
300630.4
300190.7
300110.6
300630.9
301211.6
301566.4
301536.2
301409.2
301466.7
301450.8
301369.8
301257.1
301111.7
300961.5
300879.2
300868.1
300921.6
301011.3
301106
301209.7
301278.3
301307.8
301314.1
301273.8
301173.3
301264.4
301262.4
300852.2
300247.9
299733.2
300315.9
300888.4
301347
301514.1
301316.5
301438.5
301474
301373.4
301200.8
301043
300927
300836.2
300804
300842.3
300927.4
301005.1
301059
301100.8
301142.9
301225.3
301332.5
301374.3
301287.2
301113.2
301252.6
301028.5
300524.3
299957.7
300634.7
301122.3
301503.6
301481.3
301353.5
301470.4
301463.8
301305.6
301099
300982.6
300935.5
300917.7
300923.3
300983.1
301076.5
301141.1
301164.5
301159.7
301157.9
301215.7
301362.9
301465.2
301414.1
301227.4
301260
301207.5
300760.1
300279.1
300144.3
300708.6
301274.6
301470.2
301247.8
301376.4
301455.7
301384.4
301204.4
301051.5
301017.5
301052
301108.2
301171.6
301249.5
301320.7
301366.5
301368
301331.2
301286.1
301288.9
301384
301480.4
301452
301264.8
301005.8
301088.5
300812.9
300251.3
299720.9
300153.9
300783.1
301441.1
301599
301289.5
301359.3
301370.3
301236.5
301057.3
301004.1
301062.3
301172.4
301291.7
301402.4
301498
301565.8
301588.2
301559.1
301486.7
301388.1
301308.8
301297.2
301352.4
301333.4
301169.9
300947.8
301097.8
300857.9
300206.1
299639.8
300295.7
300907.3
301563.4
301695
301315.6
301294.5
301210.3
301044.2
300917.9
300948.8
301077.4
301240.4
301399
301534
301634.6
301690.7
301694.3
301643.1
301539.5
301395.3
301242
301136.1
301132.1
301131.6
301056.7
300940.3
301187.4
300985.3
300336.1
299787.4
300381.6
300974.7
301622.3
301732.6
301305.2
301222
301058
300857.2
300789.6
300879.6
301055.6
301254
301437.2
301584.3
301683.3
301727.4
301712.7
301638.9
301511.4
301343.3
301160.5
301013.4
300960.7
300992.5
301007.7
300981.5
301322.1
301172.4
300529.9
299974.3
300385.9
300970.3
301608.7
301706.8
301261.6
301160.9
300981.9
300769.9
300698.3
300800.1
300997.7
301217.8
301417.2
301572.6
301672
301710.2
301685.7
301600.5
301462.3
301286.1
301100.6
300958.1
300919.6
300980.3
301032.4
301049.1
301436.9
301318.1
300683.7
300120.9
300317.6
300897.2
301525.4
301623.2
301194.2
301120.9
300993.7
300797.7
300669.1
300730.6
300916.9
301143
301349.7
301509.3
301609.2
301644.4
301615.6
301527.6
301390.9
301224.2
301064.6
300973
301005
301074.1
301097.6
301104.5
301493.2
301382.4
300753
300180.8
300201.2
300774.4
301386.8
301495.6
301115.9
301108
301051.2
300880.8
300703.7
300696.6
300842.7
301050.4
301251
301406.7
301503.5
301536.8
301508.5
301425.3
301300.1
301158
301046.5
301030
301126.3
301197.9
301174
301127.6
301476.5
301355
300731.6
300149.3
300226.4
300712.1
301216.7
301351.9
301051.6
301095.7
301097.9
300981.5
300809
300719.3
300797.9
300965.4
301141.1
301280.2
301366.4
301396.3
301372.4
301301.2
301198.2
301094.9
301049.6
301124.6
301238.9
301282.7
301219
301131.4
301406.3
301256.3
300734.6
300220.7
300664.6
301072.6
301383.3
301290.8
301075.6
301122.4
301074.8
300927
300791.3
300802.4
300909.7
301040.8
301149.3
301214.8
301238.4
301223.9
301175.8
301110.4
301058.3
301077.3
301206
301316.7
301316.6
301227.4
301407.9
301477.3
301147.7
300709.3
300366.8
300854.8
301242
301334.7
301054.5
301114.4
301117.2
301030.6
300927.5
300890.1
300926.4
300984.2
301041.5
301077.8
301093.3
301098
301092.6
301089.9
301100.7
301164.6
301267.9
301333.4
301299.9
301211.3
301461.1
301346.2
300933.3
300409.8
300184.6
300619.1
301118.4
301398.7
301299
301108.7
301133.1
301124.9
301100.9
301087
301064.8
301026.7
301009.1
300998.7
301011.5
301053.8
301113.1
301195.6
301257.4
301294.9
301324.2
301323
301279.8
301449.8
301524
301220.9
300688.1
300222.5
300619.4
300956.7
301269.2
301503.1
301395.2
301158.7
301180.4
301226.4
301259
301239.8
301183.7
301105.9
301035.3
301047.5
301144.2
301253.7
301344.4
301397.1
301387.1
301349.3
301323.6
301545.5
301636.3
301378
301037.2
300665.8
300659.7
301009.4
301374.3
301577.2
301426.9
301183.2
301240.6
301307.8
301334.9
301314
301245.7
301185.2
301195.1
301276.1
301370.5
301420.2
301421.7
301376.2
301328.2
301568.9
301709.3
301486.2
301100.7
300718.6
300246.3
300574.4
301052.4
301390.6
301549.9
301386.7
301186.1
301254.1
301311.2
301339.9
301337.3
301331.5
301337.8
301359.7
301384.9
301381.6
301348.8
301300.3
301508.5
301674.1
301506.5
301152.1
300647.8
300286
300294.7
300582
301026.1
301314.9
301490.7
301459.7
301456.6
301249.1
301328.8
301399.3
301434.7
301438.6
301414.6
301362.7
301305.5
301532.6
301553.6
301589
301422.8
301127.2
300661.2
300346.1
300242.5
300659.9
300984.8
301190.7
301354
301536.2
301530
301691.5
301820.4
301885.3
301887.4
301829.6
301714.1
301572.1
301593.3
301430.1
301279.8
301079.9
300740.6
300298.1
300608.5
300659.1
300932.6
301186.4
301369.5
301565.7
301715
301789.8
301791.4
301724.2
301586.8
301409.3
301244.9
301002.4
300734.5
300684.9
300169.9
300388.1
300724.8
300822.2
300915.6
301058
301135.9
301139.3
301072.2
300941.6
300863.3
300780.8
300447.7
300234.7
300261.1
300281.1
300429.7
300522
300528.5
300449.9
300313.5
300304.7
296753.5
296669.3
296725.7
296743.4
296712
296839.3
296455.5
296715.2
297127.8
297428.1
297358.5
297341
297387.4
297388.6
297338.3
297339.9
297412.2
297112.7
296688.5
296420.8
296336.6
296846.2
297116.4
297348.4
297594
297763.5
297650.2
297693.8
297728
297714.9
297653.6
297576.1
297662
297471.1
297192.3
296921.9
296619.1
296082.8
296770
297065.7
297374.6
297608.7
297674.7
297828
297815.6
297557.7
297578.2
297596.3
297571.8
297505.3
297435.3
297641
297610.6
297415.6
297316.5
297045.3
296689
296387.8
297056.1
297302
297589.6
297839.5
297675.5
297475.7
297535
297595.1
297647.2
297699.3
297720.2
297688.7
297605
297490.7
297377.4
297262.3
297151.5
297308.1
297430.2
297139
296821.5
296565.6
297098.8
297341.7
297647.1
297776.5
297802.7
297515
297515.6
297542.7
297581
297640
297689.4
297704.3
297670.8
297588.6
297470.9
297343.4
297241.6
297155.9
297108.8
297350.8
297283.3
297127.6
296796.1
296548.2
296990
297306.8
297583.6
297580.5
297476.3
297517.8
297516.6
297525.9
297535.9
297541.5
297567.4
297585.8
297583.4
297553.4
297494
297409
297311.7
297234.2
297162.1
297102.2
297058.9
296982.5
297060.2
297044.5
296752.3
296429.1
296640.5
297200.7
297572.9
297541.6
297417.5
297483.8
297520.2
297512.8
297513.3
297528.3
297530.6
297519.6
297496.4
297472.3
297450.7
297427.1
297391.1
297330.8
297251.7
297169.4
297114.7
297082.2
297013.5
296926.3
297037
297063.8
296675
296115.8
296158.9
296907
297449.3
297651.7
297390.6
297438.3
297495.8
297509
297510.2
297527.9
297529.9
297497.2
297438.4
297372
297325.4
297315.5
297333.7
297350.7
297338.2
297290
297216.9
297146.9
297110.5
297073.8
296996.9
296937.9
297197.5
296977.4
296432.7
295683.6
296633.8
297180.4
297653.4
297636.1
297384.8
297425.5
297461.6
297480.2
297495.2
297492.3
297453.4
297374.5
297277.9
297192.3
297144.6
297152
297200.4
297253.5
297285.3
297282.9
297244.9
297190.3
297138.3
297099.7
297049.9
296992.8
297229.8
297237.3
296751.5
296200.8
296177
296876.6
297379.3
297451.9
297307.7
297335.3
297372.6
297418.7
297453.7
297441.8
297382.9
297290.9
297175.4
297061.6
296988.9
296976.1
297015.1
297077.8
297140.4
297193.1
297224.1
297231.8
297222.2
297188.2
297128
297063.2
297001.3
296942.7
297066.6
296993.8
296493.9
295820.1
296428.9
297085.9
297409.6
297217.8
297268.8
297303.8
297339.3
297402.7
297423.3
297370.8
297266.2
297146.6
297031.4
296928.8
296871.7
296885.7
296957.8
297033.2
297090.3
297133.3
297169.9
297211.9
297251.7
297254.5
297195.5
297095.9
297017.4
296938.5
296858.2
297055.1
296750.5
296126.5
296830.5
297304.4
297531.7
297246.2
297261.3
297283.8
297330.5
297390.3
297390.8
297310.1
297188.2
297083.3
297007.9
296953.4
296920
296946.3
297026.8
297099.3
297142.6
297166.2
297188.3
297232.3
297294.1
297323.3
297276.1
297159.8
297040.9
296952.3
296897.7
297185.5
296991.8
296564.5
297097.7
297443.4
297501
297283.8
297272.5
297267
297316.7
297360.2
297332.2
297230.7
297126
297071.5
297058.9
297068.2
297091.8
297142.7
297202.7
297255
297283.5
297285.9
297283.4
297302
297342
297360.7
297304.9
297167.4
297003.1
296901.9
296862.7
297090.9
297067.2
296797.5
296370.4
297026.4
297330.4
297241.2
297322
297312
297271.5
297286.5
297291.7
297223
297112.8
297055.6
297064
297114.8
297182.9
297254.8
297326.2
297386.9
297421.6
297421.3
297392.6
297348.5
297312.6
297296.6
297278.9
297208.7
297065.6
296902.1
296812.4
296775
296721.3
296874.3
296682.7
296053
296301.4
297020.3
297385.8
297266.1
297368.8
297347.7
297267.3
297232
297181.4
297077.7
296984
296975.7
297037.8
297136.9
297244.5
297342.8
297421.7
297472.6
297488.6
297468
297412
297328.6
297236.1
297159.9
297110.1
297051.6
296955.9
296855.4
296823.8
296808.4
296741.2
296935.7
296667.7
295997.3
296372.3
297078.3
297430.4
297292.4
297393
297355.9
297242.6
297165.3
297068.5
296939.3
296861.3
296888.1
296989.9
297124.3
297258.8
297372.8
297454.1
297495.8
297494.7
297451.7
297371.9
297265.8
297151.6
297055
296996.2
296961.4
296921.6
296891.9
296929.5
296944.4
296872.6
297068.6
296782.9
296107.3
296384.5
297083.1
297429.3
297285.5
297378.1
297329.6
297200.4
297103.9
296988.6
296850.4
296767.8
296800
296922.1
297080.2
297233.8
297359.3
297443.9
297481.9
297472.5
297418.7
297328
297213.9
297097.4
297007.1
296965.6
296961.5
296963.5
296979.2
297054.7
297088.4
297014.5
297191.8
296883
296193.9
296354.2
297047.7
297391.6
297249.7
297327.6
297274.3
297149.5
297061
296957.7
296825.4
296725.6
296736.3
296850.5
297016.1
297179.5
297311.5
297398.4
297435.3
297423.1
297367.2
297277.8
297171.5
297073.6
297014.5
297009.6
297027.3
297039.2
297065.8
297150.8
297190.8
297117.2
297268.7
296936
296233.5
296467.2
297087.9
297355.2
297224.6
297264.2
297205.8
297101.1
297040.8
296967.4
296851.2
296740.4
296717.3
296804.6
296954.5
297112
297241.8
297326.9
297362.9
297352.1
297301.2
297222.6
297136.2
297070.6
297054.4
297084.5
297112.9
297115.9
297127.3
297199.3
297241.7
297193.9
297315.8
297041.9
296388
297205.2
297491.4
297489.7
297218.8
297149.4
297070.6
297036.3
296994.7
296907.3
296803.9
296753
296798.6
296915.2
297051.3
297165.4
297240.6
297273.5
297266.8
297227.1
297167.6
297109.9
297084
297110.2
297158.2
297182.2
297171.1
297166.4
297216.5
297267.5
297523.8
297501.2
297189.6
296953.4
297372.1
297532.1
297181.6
297133
297083
297045.2
297026.1
296972.5
296888.9
296827
296837.4
296910.6
297009
297097.3
297155.4
297181.6
297181.6
297160.1
297128.1
297104
297113.7
297164.5
297214.6
297225.8
297207.2
297214.2
297237.8
297264.5
297588.7
297400.1
296951
296573.3
297158.9
297421.7
297162.5
297147.1
297112
297067.3
297056.3
297029.6
296976.6
296929.2
296921
296952.9
297002.5
297052.9
297089.2
297109.8
297120.4
297125.1
297129.2
297139.2
297168.6
297214.2
297248.1
297247.5
297231.6
297250.3
297262.7
297253.1
297484.1
297193.2
296563
296353.3
296965.3
297400.3
297415.3
297200.4
297157.5
297122.6
297097
297080.3
297058.8
297042.7
297040.9
297046.1
297050.4
297056.9
297065.3
297082.9
297112.2
297147.4
297186.7
297218.8
297242.4
297262.4
297273.9
297273.7
297279.9
297291.3
297309.4
297494.8
297457.6
296986.3
296322.4
296753.3
297225.3
297628.9
297551.4
297224.8
297197.6
297169.8
297135.3
297123.5
297133
297148.9
297153.2
297142.8
297122.3
297106.3
297120.7
297166.9
297221.2
297267.5
297296.4
297302.5
297300.3
297307.9
297331.1
297342.2
297346.8
297642.7
297693.5
297256
296742.3
296295.8
296970.8
297441
297577.8
297249.6
297234.2
297232.8
297198.4
297166.1
297177
297206.5
297227.3
297229.6
297213.7
297199.1
297209.6
297248.1
297293.4
297322.3
297331
297323.3
297322.1
297354.7
297381
297365.9
297358.9
297657.5
297486.5
296975.8
296263.6
296746.2
297218
297510.5
297423.7
297239.8
297251
297242.1
297205.2
297194.5
297222
297254.9
297282.3
297295.6
297301.4
297308.9
297321.4
297333.1
297334.6
297328.7
297322.5
297344.3
297384.7
297387.3
297358.9
297517.6
297576.1
297237.7
296717.6
297042.9
297277.1
297482.5
297432.3
297271
297271.6
297242.2
297236.8
297251.5
297275.1
297328.9
297377.9
297405.7
297411.4
297397.8
297369.7
297342
297343.3
297349.9
297366.1
297400.4
297393.6
297534.8
297563
297316.7
297033.2
297101.8
297272.3
297514.4
297590.4
297585.3
297272.6
297260.4
297286.8
297336.6
297418.1
297495.4
297540.2
297544.7
297511.3
297451.9
297393
297364.5
297358.2
297382.5
297698.9
297699.5
297601.9
297330.3
297116.4
297014.5
297194.5
297431.7
297645.2
297462.6
297249.3
297306.5
297379.3
297453
297532.4
297581.5
297585.8
297547.7
297484.3
297430.3
297377
297334.3
297555.3
297742.9
297525.6
297267.9
297050.9
296685.6
296929.7
297199.2
297416.4
297467.8
297612.8
297608.7
297376.4
297424.8
297469
297474
297441.5
297407.8
297656.8
297678.1
297541.7
297498.6
297292.3
297009.1
296738.5
296216
296676.4
296921.2
297149.2
297393.7
297555.9
297455.1
297521.7
297579
297585.8
297541.2
297487.5
297601.9
297456.1
297225.7
297012.5
296765.1
296277.4
296236.3
296491.4
296913.4
297195.8
297127.5
297122.2
297186.6
297196.9
297147.3
297163.3
297248.1
296978.7
296580.3
296329.5
296432.8
296361.1
296433.5
296448.6
296394.5
296473.8
292686.9
292950.7
293172.9
293266.9
293356.4
293382
293319.9
293240.3
293054.7
292820.4
292570
292956.6
293367.5
293540.8
293680
293782.9
293626.5
293651
293659.3
293638.6
293795.5
293706.9
293563.6
293377.1
292928.9
292522.9
293223.2
293246
293548.3
293661.5
293862.2
293950.3
293846.6
293484.3
293456.2
293451.7
293466.4
293807.4
293895.9
293796.4
293561.8
293404.5
293070.5
293029.6
292808.6
293392.3
293636.6
293598.7
293633.3
293474.4
293543.8
293558.2
293507.3
293454.9
293438.1
293422.5
293407.9
293424.8
293436.6
293390.7
293277
293388.9
293307
293303.3
292995.7
292353.3
293046.2
293440.1
293754
293662.1
293454.4
293436.4
293453.5
293501.4
293507
293476.8
293459.7
293447.8
293421.9
293383.1
293350.2
293328.6
293273.8
293176.8
293115.2
293082.8
293239.3
293280.3
292920.6
292496.8
293105.5
293578.7
293903.1
293789.8
293543.8
293504.8
293456.7
293440.1
293459.5
293476.5
293485.3
293490.4
293481.6
293447.5
293389.3
293319.5
293248.4
293174
293101.9
293071.4
293067.1
293062.9
293263.4
293339.6
292994.1
292505
292977.8
293549.2
293945.7
293833.4
293547.6
293525
293503.8
293458.5
293444.9
293451.2
293463.3
293477.9
293484.2
293472.1
293433.6
293369.5
293288.9
293203
293126.1
293062
293026.3
293022.8
293002.4
292993.4
293252.4
293348.3
292941.5
292360.5
292686.6
293355.9
293848
293804.6
293522
293470.4
293463.6
293462
293450.5
293447.1
293447.8
293447.6
293448.6
293441.6
293421.6
293384.2
293328.7
293258.8
293180.6
293109
293046.2
292998.8
292966.6
292932.2
292912.3
292946.5
293219.7
293258.7
292759.1
292087.3
293250.6
293642.1
293705.3
293487.1
293437.6
293421.7
293433.7
293444.1
293444.2
293445.5
293445.2
293434.5
293414.6
293386.8
293356.7
293325.1
293289.1
293243.6
293184.4
293118.1
293053
293000.6
292960.7
292920.1
292887.4
292892.2
292941.7
293160.9
293102.9
292705.6
293014.7
293476.8
293527.4
293430.4
293428.4
293392
293393.7
293414.6
293430.5
293441.6
293450.7
293442.9
293409.5
293359.7
293306.9
293265.8
293242.7
293231.3
293217.3
293187.1
293139.4
293081.4
293026.3
292982.9
292944.8
292908.4
292899.6
292938.9
292945.9
293050.5
293004.4
292537.6
292296.4
293035.6
293415.4
293296.2
293360
293372
293349.7
293359.8
293385.7
293413.3
293433.3
293431.6
293399.3
293336.8
293257.5
293185.8
293142.9
293133.8
293146.5
293161.2
293162.2
293143.2
293106.5
293061.9
293017.5
292977.3
292940.6
292921.5
292940.9
292933.3
292876.6
293005.8
292629.4
291886.6
292667.5
293308.4
293427.2
293253.7
293282.4
293288.7
293293.9
293315.6
293353.5
293389.4
293395.4
293359.5
293287.6
293190.7
293091.6
293021.1
292997.9
293018.1
293055.8
293091.3
293115.6
293123.8
293116.1
293095.8
293061.7
293015.2
292965.9
292927.3
292907.9
292897.7
292878.3
293063.6
292969.6
292333
293054.4
293402.4
293255.8
293246.8
293235
293238.8
293250.9
293279.4
293326.3
293352.3
293329.9
293263.6
293169.7
293063.3
292958.5
292886.4
292879.6
292934.8
292999.3
293048.5
293083.1
293107.2
293124.8
293131.4
293113.7
293064.6
292996.1
292936.4
292897.1
292883.8
292908.7
292939.5
293115.9
292787.1
292315.4
293241.4
293602.7
293311.7
293274.4
293228.9
293214.9
293220.7
293251.7
293294.5
293308.1
293270.6
293192.3
293103.6
293020
292947.1
292888.1
292887.4
292953.7
293024.7
293073.3
293105.3
293130.5
293157.6
293177.9
293170.4
293120
293035.9
292953.1
292903.7
292901.5
292960.7
293025.6
293347.1
293001.6
292098.9
292580.1
293375.6
293679.8
293311
293266.4
293227.6
293203.4
293196
293219.6
293251.5
293252.8
293198.5
293121.3
293063
293026.9
293006.7
293001.4
293030.5
293078
293130.8
293173.4
293195.7
293210.2
293227.2
293236.7
293216.5
293147.8
293036.6
292923.6
292860.7
292862.2
292919.4
293000.9
293414.9
293122.5
292333.5
292776
293458.4
293565.2
293255.6
293229.3
293224.8
293201.3
293175.9
293177.3
293187.3
293158.9
293089.1
293036.2
293021.4
293036.6
293068.9
293110.4
293161.5
293214.3
293256.3
293275.2
293273.7
293259.2
293240.6
293214.4
293163.5
293069.5
292936.2
292804.1
292737.1
292749.3
292798.6
292891.3
293275.3
293193.6
292525.3
292876.4
293310.3
293220.1
293213.7
293217.4
293228.9
293199.1
293150.3
293121.2
293096.3
293034.4
292964.8
292940.6
292966.4
293023.8
293093.6
293162.8
293223.6
293269.5
293294.9
293297.1
293274.9
293229.4
293168
293099.8
293024
292929.4
292818
292720.8
292689.3
292719.8
292770.3
292851.2
292937.6
293064.6
292646.2
292981.3
293350.2
293206.5
293210.5
293217.7
293228.6
293187.7
293116.5
293057.5
292999
292915.6
292843.6
292840.2
292898.5
292989.3
293087.2
293174.7
293241.2
293280.8
293290.9
293272.1
293227.3
293162.1
293085.3
293007.1
292933.6
292861.2
292790.1
292744.7
292758.3
292807.4
292853.5
292918.2
292975.5
293142.7
292775.2
292997.4
293359.8
293212
293211.5
293212.7
293215.6
293164.1
293078.7
293001
292921.1
292826.9
292748.8
292745.7
292821.3
292936.3
293056.1
293158.2
293230.9
293269.2
293272.6
293243.9
293188.9
293116.3
293038.3
292968.1
292914.8
292876.1
292849.8
292850.7
292894.2
292948.8
292982
293025.6
293060.5
293213.8
292836.4
292942.9
293351.3
293244
293221.2
293204.9
293192.4
293132.6
293043.9
292963
292879.3
292783
292699.8
292684.9
292755.2
292877.6
293010.3
293122
293199.5
293238.6
293240.5
293210
293155.6
293088.8
293024.4
292976.8
292952.2
292943.5
292945.3
292970
293028.1
293083.1
293107.6
293138.9
293169.1
293265.4
292828.9
292894.1
293533.9
293610.8
293274.2
293214.4
293171.8
293103.2
293019.3
292947.5
292873.8
292784.7
292703.6
292675.5
292725.6
292837.6
292966
293077.5
293154.9
293194.4
293198.1
293171.9
293125.8
293073.3
293030.5
293010.2
293012.2
293022.5
293034.9
293064.4
293122.6
293180
293217.6
293270.9
293597.2
293494.1
292813.1
292719.6
293473.9
293742.7
293338.4
293250.5
293165
293087.1
293012.1
292952.5
292894.5
292821.7
292750.1
292715.1
292743
292828
292938.8
293037.9
293106.8
293143.2
293149.9
293132.2
293099.9
293066.8
293048.1
293052.3
293070.4
293087.6
293100.6
293126.3
293177.2
293238.6
293309.4
293379
293761.2
293458
292655.5
292481.4
293360.4
293682.6
293347.7
293262.1
293164.2
293092.1
293029
292976.2
292931.4
292878.2
292821.5
292786.9
292797.2
292852.5
292932
293010.4
293066.6
293096.1
293105.8
293099.9
293085.6
293073.4
293075.3
293094.7
293118.6
293135.4
293147.8
293173.5
293214
293265.5
293342
293404.9
293713.5
293351
292412.3
293229.8
293508.3
293301.6
293241.2
293174.9
293119.1
293064.1
293014.6
292977.1
292939.3
292900.3
292874.2
292875.5
292905.5
292952.1
293001.1
293041.3
293066.9
293080.6
293088.7
293094.3
293101
293114.8
293136.6
293157.7
293171.7
293185.7
293213.1
293247
293280.2
293322.4
293356.2
293525.4
293192
292862
293427.5
293486.7
293257.6
293231.7
293178.4
293118.1
293069.4
293032
293000.6
292975.2
292962
292964.5
292979.4
293000.4
293022.3
293042.9
293064.8
293087.7
293109.4
293130.8
293148.9
293164.1
293179.7
293195.4
293210.4
293230.3
293259.4
293297.6
293326.1
293326.5
293524.8
293428
292809.5
292499.7
293166.3
293486.4
293312.1
293318.1
293272.7
293188.4
293134.7
293095.3
293061.7
293040.6
293037.2
293045.8
293057.9
293068.3
293075.1
293082.2
293098.5
293126.3
293156.8
293182.1
293200.4
293211.3
293221.5
293237.7
293259.6
293283.5
293317.8
293378.4
293397.4
293362.2
293506.9
293150.9
292437.4
293185.3
293566.4
293563.4
293403.6
293342.2
293248.6
293191.3
293155.1
293121.4
293096.1
293093
293106.5
293124
293137.7
293144.8
293150.2
293162.2
293183.8
293208.9
293228.5
293239.4
293246.4
293258.7
293283.3
293309
293329.9
293366.4
293434.5
293464.6
293587.3
293563.5
293143.5
293379.2
293693.7
293697.7
293418
293315
293245.6
293206.3
293175.2
293146.3
293136.7
293150
293173.4
293198.3
293217.3
293229.6
293238.8
293247.7
293255.9
293261.6
293266.7
293274.5
293294.8
293326.4
293351.5
293375.4
293422.5
293497.2
293739
293699.7
293335.4
292842.6
293433.7
293851.2
293758.2
293419.4
293320.2
293268
293231.9
293196.1
293183.6
293194.4
293220.6
293258.1
293292.4
293314.2
293321.7
293317.5
293306.6
293296.6
293297.6
293308.4
293333.3
293373.2
293404
293441
293517.4
293822.7
293883.6
293414.9
292767.6
293093.6
293583.9
293910.7
293754
293419
293355.9
293308
293245.7
293226.4
293241.6
293276.4
293323.6
293368.7
293397.5
293404.4
293391.7
293367.8
293344.8
293333.7
293338.4
293370.7
293438.1
293481.9
293528.8
293838.5
293967
293590.9
293040.1
293162.2
293565.7
293833.3
293681.5
293398.7
293334.3
293276.2
293257.4
293286.9
293325.7
293363.9
293405.1
293434.4
293441.9
293428.9
293406.8
293389.4
293371.2
293358.8
293389.3
293452.8
293512.5
293779.6
293910.1
293604.9
293145.4
293041.2
293383.4
293648.3
293530.8
293298.8
293271.1
293289.6
293347.3
293371.9
293367.2
293383.6
293405.4
293413.4
293408.1
293409.5
293432.2
293426.2
293383.4
293376.3
293407.9
293630.8
293738.9
293448.1
293064.3
292753.6
293286.1
293500.2
293437.5
293456.6
293305.8
293386.7
293411.8
293378.6
293356.3
293368.3
293377
293382.1
293421.1
293470.5
293462.2
293397.7
293561.4
293541.2
293592.1
293369.1
292803.2
293056.2