/*--------------------------------*- C++ -*----------------------------------*\
  =========                 |
  \\      /  F ield         | OpenFOAM: The Open Source CFD Toolbox
   \\    /   O peration     | Website:  https://openfoam.org
    \\  /    A nd           | Version:  6
     \\/     M anipulation  |
\*---------------------------------------------------------------------------*/
FoamFile
{
    version     2.0;
    format      ascii;
    class       volScalarField;
    location    "49.8";
    object      p;
}
// * * * * * * * * * * * * * * * * * * * * * * * * * * * * * * * * * * * * * //

dimensions      [1 -1 -2 0 0 0 0];

internalField   nonuniform List<scalar> 
140018
(
122714.7
122718
122726.6
122747.8
122613.2
122584
122599.1
122614.5
122642.7
122675
122685.5
122700.6
122636
122565.4
122497.4
122448.3
122444.6
122486.9
122546.7
122603.6
122646.8
122678.2
122680.1
122672.4
122652.9
122597.5
122513
122418
122339.2
122318.2
122375.6
122468
122555.2
122623.7
122672.5
122702.5
122716.4
122706.6
122628.2
122574.1
122495
122406.1
122322.7
122288.7
122343.1
122451.5
122555.6
122639.5
122701.4
122744.2
122770.8
122773.8
122632.8
122603
122557.3
122502.9
122444.3
122393.2
122382.1
122427.7
122517.3
122618
122702.1
122768.1
122814.5
122845.3
122856.2
122836.1
122580.1
122551.9
122527.4
122505
122487
122480.9
122501.8
122554.1
122626.7
122702.8
122772.3
122824.8
122854.6
122866.3
122853.2
122816.5
122521.7
122510
122487.1
122480
122482
122490
122511.4
122547.6
122598.8
122660.2
122723.7
122776.7
122812.8
122827.6
122817.1
122782.4
122727.7
122606.3
122457.7
122424.8
122412.6
122422.4
122444.7
122472.2
122509.6
122548.4
122595.2
122641.1
122686.3
122720.9
122745.9
122753.2
122740.9
122708
122651.2
122558.1
122383.1
122342
122332.7
122358.7
122401.1
122447.3
122496.9
122540.8
122585
122623.2
122658.3
122681.6
122699
122699.6
122685.9
122657.2
122609.1
122536.7
122317.8
122269.2
122263.4
122303.2
122364.1
122427.8
122486.6
122537.5
122582.3
122616.6
122642.1
122660.9
122672
122669.3
122657
122632.7
122588
122538.7
122228.5
122244.9
122282.9
122350.2
122423.2
122488.5
122542
122583.3
122614.4
122639.1
122655.6
122661.4
122658.4
122648.3
122628.6
122592.8
122243.5
122271.9
122311.2
122371.3
122441.5
122505.8
122558.6
122599
122627.4
122647
122658
122661.2
122657.7
122649
122630.4
122603.3
122311.4
122366.8
122421.1
122484
122538.7
122582.8
122615.1
122639.5
122656.2
122665.4
122667.4
122663.8
122655.6
122635.2
122366.3
122423.3
122474.2
122531.4
122578.6
122614.6
122638.7
122656.8
122669
122676.2
122677.4
122671.6
122659.8
122635
122451.3
122504
122560.6
122605.7
122641.9
122658.2
122669.5
122679.4
122681.8
122679.6
122664.5
122648.6
122558.2
122607.6
122646.1
122665.8
122674.8
122678.1
122669.3
122659.2
122623.4
122651.8
122660.5
122657.1
122870.7
122887.1
122887.1
122880.3
122868
122847.1
122814.6
122770.6
122714
122645.1
122843.5
122870.8
122899.5
122902.7
122897.7
122892.2
122887.7
122878.6
122858
122820.2
122763.5
122682.8
122584.5
122507.9
122808.9
122858.9
122871.8
122874.4
122861.9
122846
122832.4
122833
122833.9
122828.4
122804.1
122763
122704.2
122632.4
122553.1
122463.1
122760.8
122807.9
122826.3
122820.9
122800.6
122771.9
122750.9
122728.5
122734
122745.9
122760
122755.6
122732.6
122692.6
122640.4
122581.3
122507
122431.1
122702.8
122751.6
122775.3
122770.8
122747.1
122704.6
122640.6
122610.2
122606.9
122610.2
122637.7
122674.6
122694.5
122704.9
122680.1
122645.4
122601.1
122546.3
122482.5
122416.1
122643.5
122694.4
122727.5
122733.4
122718.3
122663
122592.6
122520.9
122452.8
122435.2
122469.5
122528.9
122587.4
122630.9
122666.1
122677.8
122670.4
122632
122591.5
122531.1
122459
122389.7
122636.6
122680.1
122703.7
122702
122671.2
122613.3
122527.6
122430.7
122343.3
122310.1
122352.8
122444.3
122532.2
122600.6
122649.2
122679.2
122697.2
122694.3
122653.7
122594.9
122514.2
122423.9
122568.7
122620.9
122664.6
122687
122683.3
122645.5
122582.2
122502.6
122414.7
122334.9
122293.2
122334.8
122436.9
122536.3
122618.1
122679.9
122723.8
122753.4
122763.6
122738
122682.8
122586
122461.6
122360.3
122559.9
122608.6
122650.6
122666.3
122650.6
122614.5
122558.2
122500.8
122444.8
122399.8
122387.3
122428.9
122508.4
122603.6
122687.1
122753.9
122802.6
122837.2
122850.2
122823.9
122729.5
122599.6
122439.2
122282.2
122538
122587.8
122621.9
122622.3
122594.2
122550.5
122517.3
122490.9
122472.8
122468.8
122489
122539.2
122611.6
122687.5
122756.1
122812
122846.4
122863.2
122853.1
122801.8
122672.8
122523.1
122334.3
122148.8
122509.7
122554.1
122572
122550.8
122519.3
122476
122461.1
122459.6
122468.1
122488.6
122524
122574.8
122635.9
122698.6
122753.9
122793.9
122812.5
122803.9
122765.8
122709
122584.1
122441.1
122272.1
122108.8
122475.9
122508.8
122512.7
122478.4
122417.9
122392.3
122395.4
122415.4
122444.3
122480.3
122521.1
122567.1
122614.3
122659.4
122696.6
122722.4
122731.6
122719.3
122682.5
122621.8
122526.7
122401.7
122273.6
122150.3
122443.9
122464.2
122453.6
122407.2
122331.4
122306.5
122325.9
122366.9
122415
122464.5
122511.4
122555.8
122595.7
122630.2
122656
122671.9
122673.4
122657.9
122624.2
122574.4
122508
122412.2
122327.1
122253
122424.6
122430
122401
122348.7
122275.4
122245.4
122270.7
122328.1
122392.4
122453.2
122506
122550.7
122586.4
122613.9
122632.8
122642.3
122639.7
122624.5
122597.9
122565.1
122518.4
122451.8
122400.1
122367.7
122423.2
122414.5
122377.3
122329.8
122265.9
122232.7
122256.7
122317.6
122388.8
122455.7
122511.2
122554.8
122587.3
122610.9
122625.6
122630.9
122626.6
122613.9
122595
122572.5
122531.4
122495.1
122469.2
122463.8
122436.4
122417.4
122381.1
122334.2
122291
122274.6
122286.5
122342.8
122413.1
122477.5
122530
122570.2
122598.8
122618.1
122629
122631.8
122627
122617.9
122611.4
122588.8
122560.5
122537
122526
122533.2
122456
122434.4
122404.8
122369.8
122344.6
122331.1
122346.8
122393.6
122456.3
122515.3
122560.5
122592.6
122615.2
122630.2
122638.1
122639.5
122635.5
122629.3
122624.5
122601
122586.9
122576.2
122571.8
122584.7
122458
122437.3
122414.5
122397.6
122395.8
122419.5
122452.2
122505.8
122555.9
122595
122619.8
122634.4
122644.5
122650.2
122652.2
122649.2
122649.2
122636.1
122621.2
122609.3
122605.1
122603.4
122491.2
122472.4
122458.9
122448.9
122453.9
122474.2
122510.5
122555.6
122588.4
122622.8
122642.7
122652
122658.5
122662.7
122671
122666.1
122658.6
122645.8
122638.2
122630.6
122625.6
122620.8
122496.2
122497
122494.8
122499.7
122515
122543.6
122581.7
122614.8
122642.4
122654.6
122664.2
122673
122674.3
122673.4
122668.7
122664.1
122659.1
122652.9
122644.6
122631.8
122514.6
122529.7
122538
122550.3
122572.7
122597.6
122620.9
122644.5
122660.2
122669.9
122673
122672.9
122674.2
122674.7
122671.6
122669.2
122661.2
122641.2
122543.1
122564.9
122577.1
122595.9
122613.9
122632.4
122648.5
122658.4
122665.2
122670.8
122674.4
122674.7
122677.7
122675.6
122671.5
122652.4
122572.5
122588.2
122611.3
122626.9
122639.3
122650.5
122658.2
122662.2
122666
122669.8
122672.7
122675
122666.3
122660.2
122606.6
122627.5
122638.9
122645.3
122648.5
122648.3
122651.5
122656
122661.4
122660.2
122862.5
122866.4
122865.3
122862
122856.3
122848.1
122835.2
122853.7
122816.1
122832.5
122847.7
122871.2
122873.4
122866.1
122852.5
122831.4
122803.7
122767.7
122721.5
122685.7
122650.2
122629.7
122794.7
122838.2
122862.2
122880
122889.7
122887.8
122879.6
122862.6
122834.9
122796.5
122748.2
122694.7
122644.6
122580.4
122517.7
122487
122733.3
122765.1
122815.2
122849.2
122870.6
122895.4
122908.3
122909
122903.5
122890.2
122865.5
122826.8
122774.2
122710.5
122642
122552.2
122482.1
122413
122335.9
122275.1
122702.3
122742.8
122778.4
122815.6
122854.8
122878.3
122889.8
122886.4
122879.6
122870.3
122858.2
122839.7
122809.8
122765.3
122707.6
122643.3
122570.9
122495
122401.9
122329.2
122256.9
122199.7
122664.6
122699.8
122734.7
122770.3
122816
122848.2
122858.7
122859.8
122852
122837.3
122822.6
122811.6
122800.2
122782.8
122751.5
122703.3
122639.4
122571.1
122506.8
122438
122342.6
122276.6
122220.9
122175.5
122653.7
122684.4
122719.2
122765.3
122801.8
122820.5
122826.3
122814.5
122789.6
122760.5
122739.8
122732.6
122732.5
122732.3
122720.2
122690.9
122642.5
122583
122520.7
122462.5
122399.6
122311.5
122255.2
122211.6
122600.8
122633.4
122665.4
122708.7
122748.2
122773.3
122781.9
122766.1
122726.6
122674.7
122631.6
122611.1
122612.8
122632.8
122657.1
122669.6
122666.1
122640.5
122600
122548.8
122492.4
122439.3
122377.9
122293.1
122238.8
122191.9
122577.1
122592.7
122615.4
122649
122690.6
122723.1
122740.9
122732.7
122691.5
122623.6
122543.2
122471.6
122441.4
122464.6
122517.9
122571.5
122610.4
122632.8
122635.9
122620.7
122588
122542.4
122485.1
122420.8
122348.5
122257.7
122205.8
122191.4
122563.3
122572.3
122589.6
122628.9
122668.7
122701.7
122713
122692.5
122636.9
122553.3
122455.2
122361
122313.7
122341.5
122425
122509.3
122573.6
122616.9
122641.9
122651.5
122644.1
122610
122552.4
122473.2
122379.1
122282.8
122213.3
122197.4
122540.3
122551.6
122573.6
122610.8
122651.4
122685.5
122693
122664.5
122602.8
122520.9
122432.4
122350.6
122298.1
122321.8
122412.1
122507.6
122585.3
122643.8
122685.1
122711.5
122717.7
122694.1
122636
122541.6
122413.6
122307.9
122211.7
122188.1
122534.5
122524.3
122529
122553.3
122588.5
122633.4
122665.9
122661
122620.9
122565.6
122505.6
122448.8
122403.1
122384.2
122415.8
122484.6
122571.5
122652.6
122717.5
122766.2
122800.5
122807.5
122774.1
122687.9
122558.1
122392.7
122221.9
122107.9
122087.4
122116.6
122526.6
122510.9
122508.5
122531.5
122562.6
122603.5
122620.3
122595.3
122549
122510.4
122479.9
122459.4
122452.9
122467.8
122511.3
122577.8
122650.4
122716.3
122771.8
122808.1
122825.4
122811.6
122748.9
122631.9
122469.8
122278.6
122084.7
121966.5
121956.3
122015.8
122521.3
122498.3
122488
122505.4
122526.8
122552.9
122546
122505.2
122461.1
122440.6
122435.7
122442.9
122461.3
122492.7
122538.3
122594.1
122652.7
122706.9
122747.9
122767.7
122758.4
122714.7
122638.2
122519.2
122370.4
122206.9
122048
121947.8
121948.6
122019.9
122524
122489.6
122469.4
122476.3
122481.8
122490.3
122465.2
122405.4
122365.4
122362.1
122380.8
122411.2
122447.8
122488.2
122531.9
122576.4
122618.6
122654.2
122678.7
122686.3
122670.8
122627.4
122554.8
122450.6
122328.3
122207.7
122108
122050
122061.6
122124.3
122534.1
122488.1
122456.6
122449.8
122436.5
122427.1
122388.1
122318
122274.2
122281.4
122322
122374.7
122428.2
122477.8
122522.5
122561.6
122594.2
122618.3
122631.6
122630.3
122610.7
122570.3
122510
122432.4
122344.7
122265.8
122213.5
122189
122214.2
122274
122552.8
122495.1
122452.6
122431.7
122401.4
122375.6
122328.4
122260.8
122214.1
122222.4
122274.5
122345.2
122413.5
122471.4
122518.1
122554.3
122581
122598.1
122604.8
122599.2
122579.7
122546.6
122502
122447
122390
122345.2
122327.4
122326.2
122360.1
122419.4
122576.8
122508.6
122458.5
122426.8
122385
122349.2
122301.3
122244.1
122200.9
122206.8
122261.8
122337.9
122413.6
122475.8
122523.2
122557.1
122579.9
122592.5
122595.2
122587.7
122570.6
122545.6
122513.4
122475.9
122443.3
122422.2
122426.2
122437.6
122472.4
122528.9
122612.9
122530.7
122476.4
122435.7
122389.4
122349.9
122306.9
122261.8
122232.4
122238.8
122287.6
122361.1
122435
122494.6
122538.3
122568.4
122587.4
122596.5
122596.7
122588.7
122574.7
122557.2
122533.5
122510.2
122492.7
122487.4
122502.3
122522.4
122558.6
122613.5
122568.1
122506
122454.6
122417
122370.6
122335.7
122305.1
122289.3
122298.1
122340.3
122403
122470.5
122525.5
122561.6
122584.7
122599.1
122605.2
122603.8
122596.3
122585.3
122572.2
122555.1
122542.3
122536
122547.3
122556.8
122584.6
122619.4
122609.9
122539.1
122486.1
122447.2
122404.2
122375.8
122356.4
122350
122363.2
122398
122450.7
122506.7
122555.5
122587.8
122602.9
122611.4
122614.9
122613.5
122607.8
122600.5
122589.6
122578.2
122570.3
122570.2
122582.9
122594.9
122621.1
122659.2
122649
122577
122522.4
122480.7
122451.5
122421.1
122406.8
122405.8
122421.2
122451.6
122494.8
122538.2
122577.7
122605.7
122618.9
122622.7
122624.7
122625.5
122622
122616
122607.6
122601.1
122598.6
122607.2
122611.4
122628.9
122651.4
122690.8
122621
122566.7
122522.3
122491.3
122474.5
122455.3
122454.7
122467.8
122494.1
122529.7
122564.1
122594.5
122615.3
122627.7
122633.4
122634.8
122634.9
122633.1
122630.3
122626.4
122624
122629.7
122629.3
122635.1
122653
122674.7
122603.6
122562.6
122531.1
122511.8
122505.8
122497.6
122506.8
122528.8
122556.1
122583.6
122607.5
122622.8
122632.8
122638.1
122640.9
122642.6
122644
122644
122644.9
122651
122647.7
122647.8
122656.5
122664.5
122637.8
122598.4
122567.3
122547
122540.3
122542.8
122541.8
122558.4
122578.8
122600.6
122618.1
122628.8
122635.2
122640.5
122645.7
122649.8
122653.8
122657.2
122666.2
122666.4
122665.5
122670.1
122673.9
122676.3
122627.3
122603.9
122580.7
122570.4
122574.7
122577.7
122593
122600.1
122615.5
122628.6
122636.5
122640.7
122644.9
122650
122656.6
122668
122673.2
122677.1
122680.7
122683.3
122685.2
122681.4
122632.7
122607.2
122599
122596.9
122602
122615.2
122623.1
122634.6
122643.5
122648.9
122651.6
122655.2
122660
122666.9
122672.6
122679.9
122688.3
122693.5
122687.3
122689.9
122616.2
122621.8
122622.5
122625.3
122635.2
122644.6
122650.8
122655.2
122656.8
122660.8
122665.7
122673.2
122680.8
122690.1
122697.4
122690.9
122637.5
122637.8
122636.4
122648.4
122656.8
122662.2
122666.8
122668.6
122672.7
122677.4
122682.3
122686.3
122696.4
122704.9
122658.4
122665.3
122670.1
122674.9
122679
122684.6
122691.6
122696.3
123004.3
122999.5
123010
123023.7
123042.4
123100.1
122890.1
122889.6
122888.5
122897.6
122896.1
122896
122896.6
122895.1
122890
122881.7
122889.3
122873.1
122861.6
122862.1
122821.7
122830.7
122841.7
122846.2
122848.5
122854.5
122845.7
122834.7
122823.2
122808.1
122789.8
122770.5
122755
122725.2
122687.6
122646.1
122606.6
122569.4
122778.4
122797.3
122809.5
122822.5
122830.9
122836.6
122833.6
122810.9
122791.7
122770.6
122744.6
122714.8
122683.8
122653.4
122614.6
122569.5
122526.2
122478.1
122422
122396.9
122739.2
122763.2
122779.8
122801.5
122813.1
122814.8
122818.7
122815.1
122803.2
122784.1
122758.5
122725.4
122685.4
122640.2
122589.4
122538.1
122484.3
122441.7
122388.3
122326
122280.8
122246
122703.8
122728.5
122750.3
122773.4
122791
122800.2
122811.4
122820.4
122820.4
122811
122792.9
122766.7
122731.4
122686.7
122633.5
122572.6
122508.7
122441.7
122385.5
122333.3
122273.6
122223.8
122175.9
122144.1
122672.5
122693.7
122712.5
122729.4
122746.9
122771.1
122795.8
122813.7
122821
122818.8
122807.8
122789.4
122764.8
122732.4
122690.7
122638.8
122576.2
122506.3
122437.2
122369.6
122302.1
122244.4
122200.5
122162.5
122127.7
122100.5
122647.8
122661.6
122672.7
122688.1
122703.8
122730.6
122763.2
122791.8
122810.2
122815
122807.2
122790.5
122769.8
122748.3
122724
122692.5
122649.8
122592.7
122523.3
122451.7
122380.5
122313.6
122249.8
122202.2
122173.4
122152.5
122123.2
122108.3
122640.9
122639
122636.9
122644.2
122657.8
122682.6
122718.4
122756.3
122789.6
122807.8
122803
122777.9
122744.2
122715
122696
122683.6
122669.2
122645
122604.8
122548.2
122482.4
122413.1
122346.1
122286
122231.7
122195.7
122180
122154.1
122151.1
122150.1
122621.5
122613.7
122611.4
122621.4
122632.4
122663.3
122705.1
122747
122774.7
122776.2
122748
122699.4
122647.7
122610.8
122598.4
122604.1
122613.6
122614.4
122599.1
122565.4
122516.9
122458.6
122395.5
122335.6
122281.5
122234.1
122207.2
122186
122173.7
122174.9
122619.2
122601.4
122586.7
122585.2
122585.8
122605.8
122643.3
122690.8
122729
122737.5
122709.7
122650.3
122571.7
122495.9
122452.6
122457.9
122495.9
122537.7
122567.2
122579.6
122573.4
122549.1
122509.6
122457.1
122396.3
122332.9
122272
122219.6
122193.5
122193.1
122207.9
122243.6
122600.5
122577.3
122560.1
122550.1
122554.6
122580.6
122624.6
122672
122699.8
122694.4
122650.5
122573.3
122477.1
122379.3
122318.1
122327.6
122397.1
122473.4
122530.6
122567.7
122586.4
122587.2
122568.8
122528
122466.3
122387.6
122303
122231.6
122191.2
122198
122232.5
122287
122584
122555
122536.4
122521.1
122526.8
122555.8
122602.7
122649.4
122674.5
122661.2
122608.5
122529.9
122442.6
122358.5
122294.8
122299.2
122376.3
122465.9
122537.2
122590.5
122626.6
122646.5
122642.4
122608.4
122542.9
122447.9
122334.1
122239.9
122186.6
122191.4
122238.7
122315.8
122570.8
122536.3
122514.5
122493.1
122498
122528.4
122575.4
122622.9
122639.8
122610
122556.5
122497.1
122439.9
122391.7
122365.3
122386.3
122444.3
122521.7
122598.6
122659.3
122704
122732.7
122730.3
122685.7
122594.1
122462.3
122307.2
122168.1
122102.3
122119.3
122161.8
122265.6
122632.6
122570.3
122525.3
122486.6
122465.8
122468.2
122494.3
122536.5
122573.9
122568.8
122525.5
122485.8
122453.2
122430.7
122420.8
122429.8
122466
122525.6
122594.2
122656.6
122708.5
122742.6
122755.5
122734.5
122663.4
122540.1
122371.7
122182
122016.3
121951
121982.6
122068.3
122213.9
122296.5
122628.5
122567.8
122516.2
122468.1
122440.7
122435.9
122452
122482.3
122497.7
122469.1
122425.1
122401.4
122394.3
122400
122416.5
122444.5
122485.3
122536.1
122590.8
122642.6
122682.7
122701.1
122688.8
122639.5
122550.4
122421.9
122263.1
122095.2
121957.7
121910.3
121956.9
122067.7
122208.2
122312.7
122641.6
122573.3
122512.7
122455.4
122419.1
122403.4
122404.8
122417.3
122411.7
122366
122319.9
122310.2
122327
122358.1
122395.6
122436.2
122478.5
122520.9
122560.8
122594.5
122617.3
122622.8
122603.8
122554.2
122471.3
122357.6
122226.9
122102.2
122015
121995.1
122047.2
122155.1
122278.1
122374.3
122661.1
122584.7
122516.5
122450.8
122405
122377
122361.8
122354.9
122331.1
122277.8
122227.8
122221.7
122258.5
122313.6
122371
122423.7
122469.9
122509.1
122540.8
122563.8
122575.5
122572.1
122549.4
122504.2
122436.5
122351.1
122260.2
122180.7
122132.9
122135.4
122189.7
122281.4
122382.8
122466.8
122686.7
122601.9
122528.6
122456
122401.4
122362.2
122332.3
122309
122273.6
122220
122170
122163.7
122207.2
122278.9
122352.8
122416.3
122466.7
122504.7
122531.7
122548.2
122553.6
122546.5
122524.9
122488.3
122439
122381.1
122323.8
122279.9
122262.2
122279.6
122331.3
122407.8
122488.6
122562.3
122721.1
122626.4
122549.7
122472.7
122410.3
122361.8
122321.8
122288.5
122249.7
122201.6
122160.1
122153.4
122196.5
122271.8
122351.9
122420.9
122473.1
122510
122533.8
122546.2
122548.1
122539.6
122520.8
122493.3
122459.5
122422.8
122390.8
122371.5
122372.4
122398.5
122448.2
122513.8
122582.7
122642.2
122668.8
122578.5
122504.1
122430.1
122375.3
122330.4
122292.9
122256
122217.6
122190.2
122190.3
122228.1
122296.6
122374.8
122441.2
122489.7
122522.7
122543.2
122552.6
122552.4
122543.7
122527.8
122507.4
122484.5
122462.5
122446.8
122442.9
122454.3
122486.2
122542.8
122593.4
122655.8
122704.9
122617.7
122533.9
122456.9
122398.8
122353.4
122315.4
122283.6
122256.4
122242.2
122250.2
122285.4
122343.4
122411.3
122471.9
122514.5
122540.2
122555.9
122562.6
122561.2
122552.8
122539.6
122523.8
122508.4
122496
122490.7
122496.4
122511.9
122545.6
122596.3
122648.5
122699.4
122745.8
122650.6
122569.3
122493.2
122432.6
122387.2
122350.7
122323.8
122305.5
122299.7
122312.6
122345.8
122395
122450.4
122501.3
122538.3
122559.1
122568.9
122572.8
122571.1
122564.3
122553.8
122541.4
122530.6
122523.8
122524.2
122534
122554.3
122589
122636
122683.2
122732.9
122789.4
122690.6
122607.7
122543.7
122476.3
122426.2
122391.2
122367.1
122353.7
122352.5
122367.1
122397.6
122439.8
122484.6
122524.5
122554.4
122572.2
122580.2
122581.8
122580.7
122576.3
122568.8
122559.6
122552.4
122550.1
122554.7
122566.2
122591.1
122630.1
122665.4
122709
122761.5
122738.4
122657.1
122582.1
122530.9
122469.7
122432.4
122410.2
122398
122398
122411.6
122438.5
122474
122510.6
122542.1
122564.3
122578.6
122586.8
122589.8
122589.4
122587.5
122583.5
122578
122574.9
122576.6
122582.3
122597
122629.5
122653.5
122688.6
122727.4
122776.1
122699.9
122628
122568.8
122514.1
122474.9
122450.7
122439.5
122438.4
122449.2
122471.8
122501.2
122530.9
122555.5
122572
122582.6
122590
122595.3
122597.4
122597.9
122597.6
122597.1
122599.3
122603.1
122611.1
122627.3
122652.7
122675.7
122707.8
122746
122749.5
122677
122610.1
122566.5
122521.3
122492
122478.7
122477
122483.4
122500.8
122524.3
122548.4
122567.7
122580.1
122587.7
122593.7
122599.7
122605
122608.9
122613.1
122618.3
122623.9
122631.3
122643.9
122664.3
122677.2
122698.7
122725.3
122720.5
122659.3
122605.3
122573.3
122536.6
122519.2
122514.1
122517.3
122530.2
122546.4
122565.4
122580.6
122590.3
122596.3
122601.3
122607
122614.1
122622.6
122632
122640.4
122649.8
122661.1
122678.8
122689.3
122701.9
122714.2
122699.9
122653
122612.5
122583.9
122570.1
122552.4
122550.6
122559.5
122571.3
122585.5
122597.6
122605.6
122610.5
122614.8
122620.7
122628.6
122637.6
122649.5
122663.5
122682.6
122693.2
122702.3
122713.1
122717.7
122689.2
122652.4
122621.5
122603.5
122595.7
122585.2
122587.8
122597.6
122607.3
122616.2
122622.7
122626.8
122631.5
122638.2
122647
122657
122670.2
122689.4
122700.7
122715.1
122727.7
122728.2
122685.6
122659.8
122634.6
122625.9
122620.2
122621.4
122630.1
122632
122638.5
122644.1
122648
122652.8
122660
122672.9
122684.3
122696.6
122710
122725.9
122739.9
122742.6
122694.2
122665.4
122650.5
122642.6
122644.2
122652.6
122658.4
122664.3
122669.7
122674.5
122679.6
122687
122696.8
122710
122722
122736.9
122749.3
122760
122680.7
122666.7
122665.7
122667.5
122676.8
122681.6
122687.7
122695.5
122701.9
122709.7
122724
122736.3
122751.9
122765.5
122698.9
122699.7
122707
122719.3
122727.9
122737.3
123049.4
123047.8
123058.3
123067.1
123087
123106.3
123120.9
123136.8
123153.3
123179.3
122947.9
122933.6
122937.4
122932.8
122930.2
122926.3
122926.6
122931.2
122937.2
122942.9
122950.2
122960.4
122952.6
122948.9
122911.7
122898.5
122869
122857.8
122850.8
122851.7
122845.3
122836.7
122832.5
122810.2
122801.8
122796.5
122793.9
122800
122786.6
122777.7
122752.9
122713.2
122680.4
122668.3
122806.8
122801.6
122807.3
122799.8
122795.4
122779.8
122770.2
122761
122748.2
122728.4
122711.4
122695.2
122680.8
122667.2
122640.9
122616.3
122581.7
122553
122508.3
122468.2
122397.5
122349
122766.1
122762.2
122765.4
122764.8
122752.7
122747.4
122740.4
122731.3
122717.7
122699.5
122675.6
122650.6
122624
122597.2
122570.9
122536.7
122500.7
122461.1
122423.8
122378.9
122340.1
122286.8
122237.4
122214.1
122726.8
122728.8
122730.8
122733.6
122726
122725.9
122723.6
122720.8
122713.6
122700.3
122681.4
122655.2
122624.5
122589.3
122551.1
122511.2
122466.7
122422.4
122377.2
122333.6
122283.9
122241.2
122203.7
122161.2
122136.6
122118.4
122699.4
122699.8
122701
122703.2
122700
122703.9
122708.8
122714.2
122718.1
122716
122705.8
122687.5
122660.6
122627
122587
122541.4
122491.8
122437.1
122381.9
122326.5
122274.2
122221.1
122174.7
122139.1
122115.7
122093.6
122080.3
122070.9
122685.1
122678.9
122674.6
122674.2
122668.8
122672
122683
122697.4
122714.1
122725.6
122727.3
122718.8
122700.5
122673.6
122640.5
122600.8
122554.2
122501
122440
122376.3
122312.8
122251.2
122192.1
122142.6
122105
122083.5
122078.7
122073.1
122069.3
122071.9
122657.5
122651.3
122647.1
122637.5
122637.7
122647.8
122668.1
122693.1
122718.3
122735.7
122739.4
122728.1
122705.9
122676.9
122645.5
122611.1
122571
122522.6
122463.4
122397.2
122328.8
122261.3
122197.8
122143.7
122103
122081.4
122079.9
122089.3
122097.8
122099.2
122650.4
122641
122627.3
122610.2
122604.1
122608.5
122626.1
122655.6
122691.8
122726.8
122749.8
122750.1
122726.7
122690.8
122653.3
122622
122596
122569.4
122535.5
122488.9
122430.4
122365
122297.5
122232
122174.9
122130.4
122105.3
122102.5
122112.3
122135.6
122155.7
122165.5
122664
122640.9
122615.2
122592.6
122578.2
122573.5
122580.4
122604
122643.6
122691.7
122731.9
122746.7
122730.6
122688.4
122632.8
122583.4
122554.3
122542.9
122537.2
122525.8
122501
122460.9
122408.5
122348.6
122285.6
122226.5
122177
122143.9
122132.3
122139.6
122160
122192.4
122223.5
122247.3
122643.6
122615.9
122592.9
122562.4
122545.5
122538.9
122550.2
122581.6
122631.5
122684
122713.3
122703.5
122656.2
122582.4
122503.7
122448.3
122433.2
122451.9
122478.2
122495.3
122497.3
122482.1
122450.5
122405.3
122349.6
122288.8
122229.6
122181.2
122153.2
122151.9
122175.6
122215.9
122258.9
122291.4
122627.8
122593.9
122559.6
122530.1
122510.4
122504.4
122519.7
122558.5
122614.3
122659.3
122670.1
122640.3
122573.7
122482.9
122384.2
122311.1
122301.5
122353.8
122417.7
122464.6
122492.6
122502.4
122494
122466.5
122418.9
122354.6
122280.6
122210.9
122164.6
122154.9
122182.3
122231.9
122295.3
122346.5
122673
122627.9
122580.8
122535.3
122500.7
122476.6
122470.1
122488
122531.4
122586.8
122627.2
122630.4
122590
122519.9
122436.1
122351.1
122277.3
122263.3
122326.1
122406.4
122468.6
122513.5
122541.3
122551.5
122537
122493.2
122421.5
122330.3
122237
122171.6
122154
122184.1
122243.9
122323.4
122390.3
122463.4
122668.6
122620.6
122567
122513.6
122473.4
122443.7
122434.9
122452.7
122495.6
122549.9
122585.9
122572.8
122525.5
122470.2
122414.3
122364.2
122330.6
122341.5
122387.5
122454.1
122524.4
122578.4
122615.3
122634.1
122621.2
122567.3
122471.8
122346.1
122215.9
122121.7
122097.5
122134.6
122203.7
122299.5
122369.6
122430
122668.6
122610.5
122557.4
122496.1
122446.8
122412
122398.7
122411.6
122448.3
122494.6
122508.9
122478.1
122440.7
122409.4
122386.6
122374.3
122377.9
122406.9
122458.8
122522.1
122579.6
122625.8
122654.4
122660.3
122630.2
122551.4
122424
122260.6
122091.8
121974.2
121960.4
122026.3
122130.3
122257.5
122334
122408.6
122679.8
122610.9
122543.1
122481.4
122425.6
122383.8
122362.7
122365.2
122389
122416.2
122403.5
122367.1
122343
122336.1
122342.1
122357.8
122383.3
122419.9
122465.9
122516.6
122565.2
122602.5
122617.1
122599.1
122542.7
122443.5
122304.4
122142.1
121987.6
121890.3
121895.5
121986.3
122117.7
122253.9
122356
122434.3
122700.7
122619.8
122543.3
122475.4
122412.2
122361.9
122330.4
122318.8
122324.1
122328.1
122299
122254.1
122240.3
122256.6
122289.5
122328.9
122370.3
122411.9
122452.4
122489.9
122521.1
122540.9
122542.2
122517.4
122459.8
122366.9
122244.2
122109.1
121991.3
121932.3
121958.5
122054.7
122183.5
122309.8
122409.1
122487.3
122723.5
122634.3
122551.9
122478.5
122408.3
122349.4
122306.9
122280.9
122267.5
122250.6
122211.3
122161.1
122146.5
122178.5
122236.2
122298.2
122354.8
122403.1
122442.7
122473.7
122495.1
122504.4
122497.6
122470.2
122418.6
122343.5
122252.2
122160.4
122089.7
122063.7
122097.5
122183.4
122293.1
122398.1
122484.6
122556.5
122747.3
122654
122569.3
122491.4
122414.9
122348.4
122296.4
122258.5
122230.5
122199.9
122155.8
122107.3
122089.8
122125.7
122196.4
122275.9
122345.3
122400
122440.5
122468.1
122484.1
122488.1
122478.8
122454.3
122413.8
122360
122300.9
122247.3
122213
122212.3
122251.2
122323.2
122410
122492.7
122564.4
122628
122776.4
122678.2
122599.5
122513.5
122432.4
122359.8
122300.9
122254.7
122217.8
122181.8
122139.3
122100.2
122086.6
122117.7
122190.1
122274.1
122349
122406.3
122446.8
122472.4
122485.3
122486.8
122477.3
122457
122427
122391.8
122357.5
122330.7
122320.8
122335.3
122377.2
122440.3
122512.1
122586.2
122636.2
122690.9
122810.1
122719.3
122627.2
122537.9
122456.7
122381.4
122318.5
122268.3
122227.7
122192.3
122157.5
122131.1
122126.5
122155.2
122217.3
122297.2
122369.4
122422.8
122459.4
122482.2
122492.8
122493
122484.1
122467.5
122445.6
122422.8
122404.2
122393.9
122397.7
122419.6
122461.7
122519.1
122579.8
122643.3
122697.6
122739.6
122846.6
122752.4
122661.5
122569
122486.3
122411.1
122346.9
122295.5
122255.1
122222.8
122197.5
122183.3
122187.8
122216.1
122268.1
122333.9
122398.8
122447.1
122476.2
122494.1
122502.4
122501.9
122493.9
122480.3
122464.1
122449
122439.7
122439.3
122451
122476.8
122517.9
122569.6
122626.3
122687.5
122736.9
122773.2
122798.3
122697.6
122603.9
122522.5
122448.6
122383.3
122331.5
122292.3
122263.8
122245.4
122239.8
122250.2
122278.1
122322.3
122375.2
122426.7
122468.2
122494
122506.4
122511.9
122511.4
122504.9
122493.9
122481.6
122471.5
122467.4
122472.4
122488.5
122517.4
122558.4
122606.2
122658.4
122715.2
122763.3
122832.7
122729.2
122650.1
122564.7
122491.9
122426.1
122372.3
122333.4
122307.6
122292.4
122290.2
122303.1
122330.1
122368.4
122411.4
122451.6
122483.2
122505.3
122517.2
122521
122520.7
122516.3
122508.4
122499.5
122493.2
122492.7
122501
122519.8
122550.7
122590.8
122635
122688
122732.2
122781.6
122876.1
122776.6
122686.9
122607
122533.2
122470.7
122416.1
122375.7
122349.5
122335.4
122333.8
122346.5
122371.3
122404.4
122440.1
122472
122496
122512.3
122523.4
122529.3
122530.1
122528
122523.7
122518.7
122516.3
122519.3
122530.1
122550.8
122581.7
122616.8
122658.6
122706.2
122754.3
122802.3
122830.7
122733.9
122660.5
122580.9
122515.4
122461.9
122419.6
122391.2
122376.5
122374
122384.2
122405.7
122433.9
122463.6
122489.3
122507.9
122520.1
122528.7
122535.6
122539.9
122540.8
122540.3
122540
122542.4
122549.4
122562.8
122584
122611.9
122645.6
122688.1
122726.3
122775.9
122784.5
122699.4
122635.1
122564.8
122510.9
122466.8
122435.1
122417.9
122413.4
122419.6
122436.8
122460.4
122485.2
122506.3
122521
122530.4
122537.4
122543.9
122550
122555.3
122559.7
122564.6
122572.1
122583.7
122600.3
122622.2
122647.8
122681.6
122708.4
122738.4
122830.7
122749.1
122672.4
122620.5
122559.9
122515.7
122482.2
122462
122453.8
122456.2
122468.4
122487.1
122507.4
122524.7
122536.7
122544.5
122550.6
122557.1
122564.4
122573
122582.7
122593
122605.3
122620.5
122639.4
122661.4
122689.9
122709.7
122735.4
122763.6
122803.2
122728.1
122659.4
122615.7
122565.3
122530.5
122509.3
122497.1
122495.3
122502.7
122516.2
122532.1
122546
122556.1
122563.2
122569.7
122577.2
122585.6
122595.8
122608.5
122623.2
122639.8
122657.6
122677.3
122703.1
122719.2
122739.7
122758.3
122775.1
122711
122653.3
122617.2
122577.1
122552.3
122540.1
122535.6
122539.3
122548.8
122560.2
122571
122580
122587.4
122594.7
122603
122612.3
122623.7
122637.6
122653.8
122671.3
122691.9
122717.1
122731.6
122752
122762.7
122755.9
122702.1
122652.3
122626.7
122595.5
122581.2
122574.9
122576.6
122584.1
122592.2
122600.9
122609.1
122616.5
122624.2
122633.1
122643
122655.2
122669.4
122686.1
122704.7
122730
122745.9
122766
122778.6
122746.6
122692
122664.8
122638.5
122624.5
122611.4
122611.3
122616.8
122624.7
122632
122639.7
122647.4
122655.7
122665.5
122675.7
122687.8
122702.4
122723.8
122741.7
122761.5
122776.7
122795.6