/*--------------------------------*- C++ -*----------------------------------*\
  =========                 |
  \\      /  F ield         | OpenFOAM: The Open Source CFD Toolbox
   \\    /   O peration     | Website:  https://openfoam.org
    \\  /    A nd           | Version:  6
     \\/     M anipulation  |
\*---------------------------------------------------------------------------*/
FoamFile
{
    version     2.0;
    format      ascii;
    class       volScalarField;
    location    "49.8";
    object      p_rgh;
}
// * * * * * * * * * * * * * * * * * * * * * * * * * * * * * * * * * * * * * //

dimensions      [1 -1 -2 0 0 0 0];

internalField   nonuniform List<scalar> 
140018
(
122730
122734.7
122744.3
122765.3
122626.5
122599.2
122616.5
122633.3
122661.7
122693.5
122704
122718.5
122645.7
122574
122508
122463
122464
122507.6
122567
122623.2
122665.6
122696
122697.7
122690
122663.8
122605.2
122518.5
122423.2
122349
122335.5
122396.6
122488.6
122575.1
122643.1
122691.5
122721.5
122735.6
122726.1
122642.2
122584.2
122501
122409.5
122328
122301
122361.7
122471.3
122575.5
122659.4
122721.7
122765.1
122791.8
122794.2
122657.8
122623.9
122573.4
122514
122452.1
122401.5
122392.4
122442.5
122535.9
122637.5
122722.6
122790.1
122837
122865.8
122871.9
122843
122610.9
122579.7
122550.7
122524.2
122503.3
122496.5
122517.9
122571.6
122645.7
122723.6
122793.3
122844.4
122873
122881.8
122862.2
122817.2
122559.7
122546.2
122520
122508.9
122507.1
122512.6
122532.7
122569
122621
122683.1
122746.2
122797.7
122830.5
122840.5
122825.4
122785.7
122724.2
122595.9
122498.7
122465.2
122450
122455.3
122473.3
122497.5
122532.7
122570.4
122616.8
122662.5
122706.9
122739.8
122761.6
122765.1
122748.4
122710.7
122648.6
122550.5
122427.1
122384.4
122372.7
122393.6
122430.9
122473.1
122519.7
122561.6
122604.5
122641.9
122675.9
122697.7
122712.7
122710.3
122693.2
122660.8
122608.7
122532.9
122360.4
122307
122300.6
122336.1
122392.2
122452
122507.7
122556.4
122599.7
122632.9
122657.4
122674.8
122684.3
122679.5
122664.7
122637.8
122590.4
122538.8
122259.9
122271.8
122308.1
122373.4
122444.1
122507
122558.7
122598.8
122628.9
122652.8
122668.2
122673
122668.5
122656.8
122635.4
122598.1
122265.1
122289.6
122327.9
122387.7
122458.3
122521.2
122573.1
122612.8
122640.6
122659.6
122670
122672.5
122668.1
122658.4
122638.7
122610.7
122323.7
122378.7
122434.3
122497.5
122551.5
122595.4
122627.7
122652
122668.4
122677.3
122678.8
122674.7
122666.1
122645.2
122378.3
122434.9
122486.2
122544.3
122591.1
122626.4
122650.9
122669.1
122681.3
122688.3
122689.3
122683.2
122671.2
122646.2
122463.8
122516.9
122574
122618.9
122654.8
122670.7
122682.1
122692.2
122694.6
122692.2
122677
122661
122572
122621.4
122660.4
122679.6
122688.1
122691.7
122682.8
122672.7
122638.2
122666.5
122674.9
122671.1
122881.1
122898
122899.5
122894.5
122884.4
122865.5
122834.6
122791.4
122735
122665.2
122853.8
122880.1
122908.6
122912.3
122908.4
122904.6
122902
122895
122876.3
122839.9
122784.3
122704.1
122605.6
122528.7
122820.8
122869.9
122881.8
122883.9
122871.6
122856.9
122845
122847.3
122849.7
122845.6
122822.6
122782.4
122724.2
122652.9
122574
122484.3
122775.2
122821.8
122839.3
122832.7
122811.8
122783.3
122763.6
122743.6
122750.2
122763.1
122777.6
122774.2
122751.4
122711.6
122659.8
122601.2
122527.3
122451.3
122720.3
122768.6
122791.1
122784.9
122759.5
122716.2
122653.1
122624.6
122623.5
122628.4
122656.7
122693.6
122713.4
122723.3
122698.8
122664.1
122620.5
122565.7
122501
122432.4
122663.9
122714.2
122746
122749.5
122731.8
122673.4
122601.5
122530.7
122466.1
122453.1
122489.7
122549.3
122607.2
122650.2
122684.7
122696.2
122688.8
122651.4
122610.4
122547.7
122471.9
122398.9
122658.8
122701.5
122722.6
122717.8
122683.5
122622.1
122533.6
122435.8
122351.4
122324.8
122372.5
122464.9
122552.1
122620.1
122668.5
122698.9
122717.2
122714.4
122671.9
122608.9
122522.8
122428
122593
122645.2
122687.4
122707
122701.7
122661.2
122593.8
122510.1
122419.5
122340.6
122304.2
122352.3
122456.9
122556
122638
122700.5
122745.4
122775.5
122784.8
122756.2
122694.4
122588.6
122453.9
122346.9
122586.6
122635.8
122676.4
122691.1
122675.5
122636.4
122576.3
122514.2
122454.8
122409.1
122399.5
122444.5
122526.9
122623.9
122708.3
122776.5
122826
122859.2
122867.4
122831.9
122728.3
122587.5
122415.8
122253.9
122567.5
122618.3
122653.6
122654.7
122626
122579.6
122542.3
122511.8
122490.9
122485.8
122506.5
122557.9
122631.4
122708.1
122777.3
122832.3
122865.3
122878.7
122861
122798.9
122657.5
122498.2
122303.5
122117.8
122542.2
122588.8
122608
122588.2
122556.2
122510.6
122491.7
122486.2
122491.8
122510.8
122545.9
122597
122658.4
122720.8
122774.5
122811.3
122825
122810.5
122766.6
122703.2
122570.8
122420.6
122247.6
122084.8
122511
122546.5
122550.9
122518.6
122459.7
122431.6
122430.2
122445.5
122470.8
122504.2
122543.6
122588.8
122635.5
122679.6
122715
122737.8
122743.1
122725.9
122683.9
122617.4
122517.1
122387.3
122257.8
122137
122479.1
122501.9
122493.1
122448.7
122373.6
122347.5
122362.3
122398
122441.8
122488
122532.6
122575.5
122614.3
122647.6
122671.8
122685.3
122683.7
122664.6
122626.9
122573.1
122503.1
122404.9
122319.8
122248.2
122458.1
122466.4
122439
122387.1
122312
122280.8
122303.5
122356.8
122417.4
122474.9
122525.2
122568.2
122602.7
122629
122646.6
122654.3
122649.5
122631.8
122602.5
122567.1
122518
122450.4
122399.4
122369.2
122453.8
122447.9
122411.4
122361.9
122294.7
122259.2
122281.3
122340.3
122410.1
122474.5
122528
122570.3
122601.8
122624.4
122638.1
122642.3
122636.5
122622
122601.4
122577.3
122534.9
122498.3
122473.2
122469.6
122463.8
122446.9
122410.4
122360.3
122312.9
122292.1
122302.9
122360
122429.5
122492.5
122544.3
122583.9
122611.9
122630.7
122640.9
122642.9
122637.2
122627.1
122619.6
122596
122567.1
122543.5
122533.3
122541.8
122480.3
122460.3
122430.1
122392
122362.8
122344.9
122359.4
122406.8
122469.8
122528.3
122572.6
122604.9
122627.5
122642.4
122650
122650.9
122646.3
122639.5
122634.2
122610.1
122595.8
122585.3
122581.5
122595.3
122480.4
122460
122434.9
122414.5
122409.7
122432
122464.9
122518.8
122568.8
122607.2
122631.3
122646.5
122656.7
122662.3
122664.2
122660.8
122660.5
122647
122631.9
122620
122616.1
122615
122511.9
122493.7
122479
122466.7
122469.9
122488.2
122524.5
122569.5
122602.2
122636
122655.4
122664.3
122671.3
122675.5
122683.7
122678.6
122670.9
122657.9
122650.2
122642.7
122638
122633.7
122515.7
122516.6
122513.4
122517.1
122531.2
122558.9
122596.4
122629.5
122656.9
122668.6
122677.6
122686.7
122688
122686.9
122682
122677.1
122672.1
122665.8
122657.7
122645.3
122533.2
122548.5
122556.1
122567.6
122589.3
122613.5
122636.3
122659.5
122675.3
122684.5
122687.3
122687.2
122688.4
122688.7
122685.5
122682.9
122674.9
122655.1
122561.3
122583.4
122595
122613.1
122630.4
122648.3
122664
122673.7
122680.4
122685.9
122689.2
122689.5
122692.4
122690
122685.8
122666.7
122590.5
122606.2
122628.9
122643.6
122655.4
122666
122673.4
122677.3
122681.3
122685.1
122687.9
122690.2
122681.2
122675
122623.8
122644.1
122654.7
122660.5
122663.2
122663.1
122666.5
122671.2
122676.8
122675.7
122878
122882.6
122881.7
122878.6
122872.8
122864.3
122851.1
122868.4
122830.6
122846.9
122862.3
122886.9
122890
122883.6
122870.8
122850.4
122822.8
122786.7
122739.8
122702.9
122666.9
122645.7
122808.7
122851.7
122875.2
122893.2
122903.9
122903.2
122896.5
122881.2
122854.9
122817.3
122769.4
122715.6
122664.7
122600
122536.6
122504.4
122748.9
122779.5
122828.4
122861.3
122882
122906.4
122919.9
122922
122918.4
122907.3
122884.7
122847.9
122796.4
122733
122664.2
122573.8
122503.2
122433.4
122355.9
122295
122719
122758.4
122792.5
122828.4
122865.9
122888
122899.2
122896.2
122890.8
122883.4
122873.6
122857.5
122829.8
122786.9
122730
122665.9
122593.4
122517.3
122423.9
122351.2
122279.3
122222
122682.3
122716.9
122750.9
122784.8
122828.7
122859.4
122868.5
122868.9
122861.2
122847.7
122834.9
122826.3
122817.4
122802
122772.2
122724.9
122661.4
122593.2
122529
122460.2
122365.3
122299.8
122244.9
122199.7
122672
122702.3
122736.2
122780.7
122815.7
122832.6
122836.9
122824.3
122799.5
122771.6
122752.8
122747.6
122749.7
122751.1
122740.3
122711.6
122663.6
122604.3
122542.2
122484
122421.1
122333.7
122277.9
122234
122620.1
122652.9
122684.6
122726.9
122764.9
122788.2
122795
122777.7
122737.3
122685.9
122644.6
122626.3
122629.9
122651.2
122676.2
122689.3
122685.9
122660.5
122620.3
122569.6
122513.2
122459.3
122396.6
122312.1
122257.9
122211.2
122596.8
122612.8
122636.1
122669.7
122710.2
122741
122756.6
122745.9
122702.2
122632.7
122552.4
122483.7
122457.8
122483.9
122537.8
122591
122629.7
122651.9
122655
122640.4
122608.2
122562.3
122503.4
122435.6
122360.1
122271.5
122222.8
122213
122583.6
122593.6
122611.6
122651
122689.7
122720.9
122729.4
122705.7
122646.9
122560.2
122460.6
122368.3
122326.5
122359.5
122445
122528.6
122592.5
122635.9
122661.4
122671.8
122664.5
122628.9
122567.5
122482.9
122383.7
122289.7
122226.1
122217.7
122561.8
122574.4
122597.5
122634.7
122674.4
122706.5
122711.5
122681.2
122616.5
122530.3
122438.8
122356.9
122308
122338
122431.6
122526.6
122604.7
122663.9
122706.5
122733.6
122738.6
122712.4
122647.7
122544.4
122408.5
122299.7
122211.6
122199
122556.1
122546.8
122553.4
122579.3
122615.3
122659.8
122691.2
122686.4
122645.4
122585.9
122521.2
122460.9
122414
122397.1
122431.8
122503.2
122592.3
122674
122740
122789.5
122822.6
122824.1
122781.2
122684.9
122544.4
122368.8
122196
122092.9
122086.1
122121.5
122549
122534.9
122534.6
122559.9
122592.8
122634.8
122652.9
122629
122580.2
122537.3
122502.5
122478.8
122470.8
122486.1
122530.8
122598.4
122671.3
122737.4
122792.1
122826.8
122840.3
122818.2
122742.8
122613.8
122441.8
122246.4
122056.4
121952.8
121958.1
122028.1
122544.6
122523.4
122515.8
122536.3
122560.7
122588.8
122583.8
122544.3
122497.6
122472.9
122463.6
122467.3
122483.6
122514.3
122559.8
122615.7
122673.8
122726.6
122764.8
122779.6
122763.8
122713.1
122629.5
122502.8
122347.3
122181.2
122026.5
121938.2
121954.3
122037.4
122548.1
122515.7
122498.5
122509.3
122518.8
122529.5
122505.9
122447.5
122406.3
122398.5
122412.2
122438.3
122471.7
122510.2
122552.8
122596.5
122637.7
122671.8
122693.6
122697.2
122676.5
122627.1
122548.2
122438.3
122312.2
122191.6
122096.3
122047.3
122070.8
122142.3
122558.5
122514.5
122486
122483.2
122474.2
122467.8
122429.9
122360.2
122315.3
122319.3
122354.6
122402.4
122452.1
122498.9
122541.8
122579.5
122610.8
122633.4
122644.5
122640.1
122616.6
122571.9
122507.2
122426
122336.3
122258.3
122209.9
122192.1
122224.6
122289.9
122576.9
122521.2
122481.4
122464.3
122437.8
122414.7
122368
122298.2
122249.5
122255.7
122304.3
122371.1
122435.6
122490.7
122535.5
122570.2
122595.7
122611.5
122616.4
122608.6
122586.4
122550.4
122503
122445.8
122388
122344.3
122329.6
122333
122371.4
122434.4
122600.4
122533.8
122486
122457.4
122418.4
122384.2
122335.5
122274.8
122228.1
122231.8
122285.1
122359.2
122432.6
122492.8
122538.6
122571.4
122593.2
122604.8
122606.3
122597.3
122578.5
122551.6
122517.7
122479
122446.2
122426.1
122432.4
122447
122484.8
122543.6
122635.9
122554.8
122502.3
122463.8
122419.2
122380
122335.1
122286.3
122252.6
122256.3
122304.6
122377.4
122450.2
122509
122552
122581.5
122599.9
122608.4
122607.8
122598.8
122583.7
122565.2
122540.5
122516.6
122499.2
122494.8
122511.3
122533.5
122571.7
122627.9
122591
122530.2
122480.4
122443.5
122396.9
122360
122325.8
122306
122312.2
122353.8
122416.8
122483.9
122538
122574
122597.2
122611.3
122617
122615.2
122607.1
122595.5
122581.7
122564.2
122551.2
122545.1
122557.2
122567.8
122597
122633
122631.7
122561.8
122509.8
122471.5
122427.9
122398
122375.8
122366.4
122377.5
122411.5
122464.2
122520.4
122568.4
122600
122615.1
122623.9
122627.2
122625.5
122619.6
122611.9
122600.5
122588.9
122581.1
122581.2
122594.6
122607.4
122634.5
122673.5
122670.1
122598.6
122544.6
122503.4
122473.7
122442.1
122426.1
122423.2
122437
122466.6
122509.5
122552.7
122591.9
122619.2
122631.6
122635.6
122637.7
122638.3
122634.6
122628.3
122619.7
122613.1
122610.7
122619.6
122624.2
122642.4
122665.7
122705.8
122641.5
122587.7
122543.7
122512.6
122495
122474.7
122473
122485
122510.6
122545.6
122579.6
122609.5
122629.8
122641.7
122646.9
122648.4
122648.4
122646.5
122643.5
122639.4
122636.9
122642.8
122642.6
122648.8
122667.3
122689.9
122623.6
122583.1
122551.6
122531.9
122525.3
122516.4
122524.8
122546.2
122572.9
122599.8
122622.9
122637.8
122647.5
122652.7
122655.2
122656.9
122658.1
122658
122658.7
122664.7
122661.4
122661.7
122670.7
122679.3
122657.3
122618.4
122587.3
122566.8
122559.7
122561.8
122560.3
122576.3
122596
122617.1
122633.8
122643.9
122650.2
122655.6
122660.8
122664.7
122668.6
122671.9
122680.7
122680.6
122679.6
122684.3
122688.3
122691.2
122646.5
122623.4
122600.1
122589.6
122593.6
122596.2
122611.1
122617.5
122632.1
122644.4
122651.6
122655.7
122660
122665.4
122672.1
122683.3
122688.4
122692
122695.4
122697.8
122699.7
122696
122651.5
122626.2
122617.9
122615.7
122620.5
122633
122640.2
122650.9
122659.1
122663.9
122666.5
122670.2
122675.1
122682.4
122688.1
122695.3
122703.6
122708.5
122702
122704.5
122634
122640.2
122640.9
122643.2
122652.4
122661
122666.4
122670.3
122671.5
122675.5
122680.6
122688.4
122696.2
122705.6
122712.8
122706
122655.1
122655.6
122654
122665.5
122673.1
122677.8
122681.8
122683.3
122687.4
122692.1
122697.2
122701.3
122711.6
122720
122675.1
122681.5
122685.7
122690
122693.8
122699.3
122706.3
122711.2
123020.5
123015.7
123025.9
123039.1
123057.2
123114
122906.6
122906.2
122904.9
122914
122912.9
122913
122913.4
122911.7
122906.2
122897.3
122904
122887.5
122875.6
122875.4
122838.2
122846.9
122858.1
122862.7
122865.2
122871.4
122863.2
122852.5
122841.3
122826.3
122807.7
122788
122771.9
122741.6
122703.7
122661.9
122622.3
122584.9
122794.7
122813.7
122825.5
122838.2
122846.8
122852.9
122850.3
122828.5
122810.2
122789.8
122764.3
122734.7
122703.4
122672.5
122633.3
122587.7
122544
122495.7
122439.6
122414.3
122755.7
122779.5
122795.5
122816.3
122827.7
122829.2
122833.4
122830.8
122820.2
122802.4
122778.3
122746.3
122707
122661.8
122610.7
122559
122504.7
122461.4
122407.9
122345.6
122300.4
122265.5
122720.7
122745
122766
122788.2
122804.8
122813.2
122824
122833.1
122834
122826.2
122810.1
122786
122752.4
122709.1
122656.6
122595.7
122531.5
122463.9
122407.2
122354.6
122295
122245.5
122197.8
122166.1
122690
122710.7
122729
122745.1
122761.4
122784.2
122807.5
122824.5
122831.6
122830
122820.6
122804.5
122782.6
122752.7
122712.9
122662.3
122600
122530
122460.7
122392.7
122325
122267.4
122223.8
122186.5
122152.2
122125.5
122665.7
122679.2
122690.1
122705.2
122719.9
122745.3
122776.1
122803
122820.1
122824.3
122816.7
122801.4
122783
122764.4
122742.9
122713.8
122672.8
122616.5
122547.3
122475.6
122404.1
122337.3
122273.7
122226.5
122198.6
122178.5
122149.8
122135.6
122658.7
122656.8
122655
122662.5
122675.6
122699.3
122733.7
122769.8
122801.1
122817.7
122812
122787.1
122754.8
122727.7
122711.4
122701.5
122689.4
122666.9
122627.8
122571.6
122505.9
122436.7
122369.8
122309.7
122255.8
122220.5
122205.3
122180.4
122177.5
122176.5
122639.4
122632
122630.4
122640.5
122651.3
122681.2
122721.7
122761.8
122787.4
122787.1
122758
122709.5
122659.2
122624.7
122614.7
122622.2
122633.2
122635.2
122620.7
122587.5
122539.3
122481.3
122418.3
122358.1
122303.4
122256
122229.6
122209.3
122199.1
122200.9
122637.1
122619.6
122605.9
122604.9
122606.2
122626.1
122662.8
122708.9
122745.2
122751.5
122721.3
122660.1
122580.9
122507.1
122467.5
122475.9
122515.2
122557.2
122587.1
122599.9
122594.2
122570.4
122531.2
122478.4
122416.3
122350.6
122288
122236.5
122213.1
122216.4
122234.2
122271.5
122618.8
122596.1
122580
122571
122576.4
122602.5
122646
122691.9
122717.4
122709
122662
122582
122483.7
122386.6
122329.8
122344.1
122416.5
122492.4
122549.6
122587.1
122606.6
122608.3
122589.8
122547.5
122482.4
122399.3
122311.8
122242.2
122206.6
122219.1
122257.2
122313.3
122602.8
122574.5
122557.1
122543.2
122550.2
122579.7
122626.4
122671.6
122694.5
122679
122623.7
122542
122451.1
122366
122304.2
122314.5
122395.3
122484.3
122556.2
122610.3
122647.8
122668.4
122663
122626
122554.9
122452.1
122332.8
122238.4
122191.4
122204.4
122254.9
122333.6
122590.3
122557
122536.2
122516.7
122523.4
122555
122602.4
122649
122666.1
122636.1
122578.9
122515.1
122454.1
122404.4
122378.9
122402.6
122462.7
122542.4
122619.8
122681.1
122726.7
122754.3
122746.6
122693.2
122591
122449.4
122287.5
122150.5
122094
122122
122170.1
122276.8
122652.2
122590.2
122546.7
122509.7
122491.1
122495.9
122524.1
122567.9
122606.7
122603.1
122558.6
122514.6
122477.7
122451.6
122439.8
122448.7
122485.7
122546.3
122614.9
122677.3
122728.2
122760.7
122769.8
122740.6
122657.4
122521.3
122343.5
122151.2
121994.1
121943.1
121986.9
122081.6
122231
122315.9
122648.6
122588.6
122538.4
122492.3
122467.5
122465.8
122485.2
122518.1
122535.6
122509.1
122463.2
122435.4
122423.6
122425.4
122439.3
122465.9
122506.3
122556.9
122611
122661.5
122698.8
122712.3
122693.4
122636.6
122539.5
122403.5
122238.6
122069.9
121940
121906.4
121966.9
122086.5
122230.1
122334.5
122662.2
122594.7
122535.5
122480.5
122447.1
122435.1
122440.5
122456.5
122452.9
122408.5
122361.8
122348.1
122359.8
122386.2
122420
122458.1
122498.9
122540.2
122579
122611.2
122631.5
122633.1
122608.7
122552.6
122463
122343.4
122209.6
122086.6
122006.2
121996.9
122059.9
122174.3
122299.7
122396.1
122682.2
122606.5
122539.8
122476.2
122433.3
122409.1
122398.1
122394.9
122373.3
122319.8
122268.5
122260.3
122292.4
122342.3
122395.3
122444.9
122488.9
122526.5
122556.8
122578.2
122587.7
122581.2
122554.6
122504.8
122432.5
122343.6
122251.2
122173.4
122130.8
122140.6
122202.1
122298.9
122402.5
122487.2
122708
122623.9
122552
122481.3
122429.4
122393.4
122367.2
122347
122312.7
122257.7
122205.5
122196.9
122237.3
122305.8
122375.5
122435.8
122484
122520.4
122546
122561.1
122564.9
122555.5
122531.2
122491.5
122439.4
122379.4
122321.8
122279.6
122265.5
122287.8
122344.1
122423.9
122506.6
122581
122742.6
122648.4
122572.8
122497.4
122437.1
122391.3
122354
122322.6
122283.7
122233.1
122187.8
122178
122220.3
122293.5
122371.2
122438
122488.6
122524.2
122546.9
122558.3
122559.1
122549
122528.5
122499.1
122463.6
122426
122394
122376
122379.6
122408.9
122461.5
122529.3
122599.5
122659.5
122690.6
122601.2
122527.9
122455.5
122402.5
122359.2
122322.6
122284.9
122243.6
122211.8
122208.5
122245
122313.4
122390.6
122455.6
122503.4
122535.9
122555.7
122564.5
122563.5
122553.8
122536.9
122515.4
122491.6
122469.2
122453.8
122450.9
122464.1
122498.2
122556.7
122608.7
122671.8
122726.4
122639.7
122556.9
122480.9
122424
122379.4
122341.5
122308.6
122278.6
122260.9
122265.8
122299.5
122357.4
122425.4
122485.3
122527.1
122552.8
122568.4
122574.7
122572.8
122563.8
122550
122533.7
122517.9
122505.3
122500.3
122506.9
122523.6
122558.6
122610.6
122663.8
122715.4
122767.1
122672.1
122591.5
122516
122456.1
122411.1
122374.4
122346.5
122325.9
122317.7
122328.4
122360.2
122409
122464.3
122515
122551.4
122571.7
122581.6
122585.4
122583.4
122576.2
122565.4
122552.6
122541.8
122535
122535.7
122546.1
122567.3
122602.9
122650.8
122698.8
122748.9
122810.4
122711.8
122629.1
122565.5
122498.6
122448.8
122413.4
122388.4
122373.7
122370.9
122384
122413.4
122455
122499.3
122538.9
122568.5
122585.9
122593.4
122595
122593.9
122589.2
122581.4
122571.9
122564.8
122562.5
122567.4
122579.5
122605
122644.7
122680.8
122724.9
122778.1
122759.1
122678.1
122603.3
122552.2
122491.2
122453.8
122431
122417.9
122416.8
122429.6
122455.7
122490.5
122526.3
122557.1
122578.9
122593.1
122601
122603.7
122603.2
122601.1
122596.9
122591.2
122588.1
122589.9
122595.8
122610.9
122643.9
122668.5
122704.3
122743.7
122796.7
122720.4
122648.7
122589.6
122534.9
122495.6
122471.1
122459.3
122457.5
122467.6
122489.6
122518.4
122547.2
122571
122586.9
122597.3
122604.9
122610.1
122611.9
122612.2
122611.7
122611
122613.1
122616.9
122625
122641.5
122667.3
122690.8
122723.5
122762.4
122769.6
122697.2
122630.4
122586.7
122541.5
122512
122498.4
122496.2
122502.1
122519
122541.8
122565.1
122583.4
122595.2
122602.6
122608.7
122614.9
122620.1
122623.8
122627.8
122632.8
122638.2
122645.5
122658.1
122678.6
122691.8
122713.9
122741.1
122740.3
122679.2
122625.2
122593.1
122556.2
122538.6
122533.3
122536
122548.5
122564.1
122582.2
122596.5
122605.5
122611.2
122616.2
122622.2
122629.4
122638
122647.2
122655.4
122664.6
122675.7
122693.4
122703.8
122716.6
122729.4
122719.3
122672.5
122632
122603.2
122589.3
122571.4
122569.4
122577.8
122589
122602.3
122613.5
122620.8
122625.3
122629.5
122635.7
122643.9
122653
122665
122678.9
122697.8
122708.2
122717.1
122727.7
122732.4
122708.2
122671.4
122640.4
122622.4
122614.6
122603.8
122606
122615.2
122624.1
122632.1
122637.8
122641.5
122646.1
122652.9
122662
122672.3
122685.6
122704.9
122716.1
122730.2
122742.5
122742.9
122704.1
122678.4
122653.2
122644.4
122638.5
122639.4
122647.6
122648.7
122654.4
122659.2
122662.7
122667.3
122674.6
122687.7
122699.3
122711.8
122725.3
122741.1
122755
122757.3
122712.4
122683.6
122668.7
122660.7
122661.9
122669.8
122674.9
122680.1
122684.9
122689.2
122694.2
122701.5
122711.4
122724.8
122736.9
122752
122764.2
122774.7
122698.2
122684.4
122683.1
122684.5
122693.4
122697.5
122703.1
122710.5
122716.7
122724.4
122738.7
122751.1
122766.8
122780.3
122715.4
122715.8
122722.7
122734.6
122743.1
122752.3
123067.5
123065.6
123075.7
123084.1
123103.5
123122.2
123136.2
123151.5
123167.2
123192.2
122966
122951.4
122955
122950.4
122947.7
122943.5
122943.6
122947.9
122953.5
122958.7
122965.5
122975
122966.6
122962.3
122924.6
122910.7
122886.5
122875.3
122868.2
122869
122862.6
122854.1
122849.9
122827.6
122819
122813.5
122810.5
122816.1
122802.3
122793.1
122767.9
122728
122694.8
122682.3
122824.2
122818.9
122824.5
122817
122812.3
122796.8
122787.3
122778.3
122765.8
122746.4
122729.5
122713.3
122698.6
122684.6
122658
122633.1
122598.4
122569.5
122524.9
122484.8
122414.6
122366.6
122783.5
122779.7
122782.4
122781.7
122769.3
122763.8
122756.9
122748.1
122734.9
122717.4
122694.2
122669.8
122643.5
122616.7
122590.2
122555.6
122519.4
122479.6
122442
122397.1
122358.4
122305.6
122256.6
122233.6
122744.3
122746.3
122747.9
122750.4
122742.4
122741.8
122739.1
122736.3
122729.5
122716.9
122699.1
122674.1
122644.5
122610.1
122572.3
122532.5
122487.7
122443.1
122397.5
122353.6
122303.8
122261.2
122224
122182
122157.7
122139.7
122717.1
122717.4
122718.3
122720.1
122716.2
122719.5
122723.7
122728.4
122732.1
122730.2
122721
122704.1
122678.8
122647.1
122608.6
122563.9
122514.8
122460
122404.5
122348.7
122296
122242.7
122196.4
122161
122138.1
122116.6
122103.4
122094.5
122702.8
122696.7
122692.1
122691.4
122685.6
122688
122698.1
122711.3
122726.9
122737.9
122739.5
122731.6
122714.9
122690.1
122659.5
122622.1
122577.2
122525.1
122464.4
122400.5
122336.7
122274.7
122215.3
122165.8
122128.5
122107.7
122103.6
122098.7
122094.8
122098
122675
122669
122664.7
122654.9
122654.7
122664
122683
122706.4
122730.2
122746.6
122749.8
122738.7
122717.8
122691.1
122662.5
122631
122593.4
122546.7
122488.4
122422.3
122353.7
122285.8
122222.1
122168.1
122127.8
122107.1
122106.7
122116.8
122125.4
122126.2
122668.1
122658.5
122645
122628.1
122622.1
122626.1
122642.8
122671
122705.5
122738.6
122760.1
122759.4
122736
122701.3
122666.1
122637.5
122614.4
122590.5
122558.7
122513.3
122455.3
122390
122322.3
122256.7
122199.6
122155.5
122131.3
122129.7
122140.3
122163.4
122183.1
122192.5
122681.5
122658.4
122632.9
122610.7
122596.6
122592.2
122598.9
122621.9
122660.3
122706.8
122745.1
122758.1
122740.9
122698.5
122643.7
122596.4
122569.9
122560.8
122557.2
122547.5
122523.9
122484.6
122432.5
122372.7
122309.6
122250.3
122200.6
122168
122157.5
122165.9
122187
122219.1
122249.9
122273.4
122661.2
122633.6
122610.9
122580.9
122564.6
122558.6
122570.2
122601.3
122650.1
122700.8
122728.2
122716.3
122667.2
122592.6
122515.1
122462.4
122450.3
122470.7
122497.8
122515.8
122518.6
122504.1
122473
122428
122371.9
122309.9
122249.2
122200.3
122173.8
122175.2
122201.1
122242.4
122285.2
122316.5
122645.5
122611.9
122577.9
122549.3
122530.6
122525.5
122541.5
122580.4
122635.2
122678.3
122686.4
122653.7
122584.5
122491.3
122392.4
122322.7
122317.2
122372.8
122436.6
122483.8
122512.4
122523.1
122515.5
122487.7
122438.6
122371.4
122294.2
122223.5
122179.9
122175
122206.3
122257.2
122319.7
122368.9
122690.8
122645.6
122599.1
122554.2
122520.7
122498
122492.9
122512.1
122556
122610.4
122648.8
122649.8
122607.1
122534.3
122446.8
122360.2
122287
122278.1
122344.6
122424.4
122487.4
122533.1
122562.1
122572.9
122557.1
122510
122433.5
122337
122241
122178.4
122166.8
122202
122263.5
122342.1
122407.1
122475.6
122686.8
122638.8
122585.8
122533.2
122494.3
122466.5
122459.6
122479.4
122523.4
122577.1
122613.2
122600
122549.8
122490.3
122430.5
122378.3
122344.8
122358
122405.5
122474.4
122545.1
122599.4
122637.2
122655.2
122637.6
122575.6
122470.8
122337
122203.6
122114.1
122098.2
122143.1
122216.6
122314
122385.2
122444
122687.3
122629.4
122576.6
122516.5
122468.9
122436.3
122425.7
122441.3
122480
122527.7
122543.6
122512.6
122471.1
122435.5
122408.9
122394.2
122397.1
122426.6
122479.2
122542.4
122599.7
122644.8
122671.8
122674
122636.3
122546.7
122407.4
122235.6
122066.5
121959.1
121958.7
122034.8
122145.4
122275.1
122353.1
122426.4
122699
122630.3
122563
122502.6
122448.7
122409.5
122391.6
122397.7
122424.8
122454.2
122443.7
122406.5
122378.4
122366.9
122368.6
122381.2
122404.8
122440.5
122486.1
122536.1
122583.4
122618
122627.8
122603.4
122539.2
122431.4
122284.9
122118.5
121965.3
121879.7
121898.9
121999.8
122137.1
122275.1
122376.8
122454.2
122720.4
122639.7
122563.9
122497.3
122436.1
122388.5
122360.6
122353.1
122362.5
122369.4
122341.4
122296.4
122279.3
122290.8
122318.6
122353.9
122392.3
122432
122471.2
122507.4
122537.1
122554.4
122551.8
122521.5
122457.2
122357.3
122229.1
122092
121978.4
121928.7
121965.4
122070.2
122203.7
122331.2
122430
122507.9
122743.7
122654.7
122572.9
122500.8
122432.5
122376.3
122337.3
122315.4
122306
122291.8
122253.1
122201.7
122185
122213.9
122266
122323.1
122376.2
122422
122459.8
122489.3
122509.1
122516.1
122506.2
122474.6
122418.3
122338.6
122244.1
122151.6
122084
122064.3
122106.6
122199
122312
122418.1
122504.6
122576.6
122767.8
122674.7
122590.6
122513.8
122439.1
122375
122326
122291.5
122266.8
122238
122193.4
122142.1
122123.5
122156.6
122223.5
122299
122365.1
122417.4
122456.1
122482.3
122496.8
122499.1
122487.5
122460.2
122416.6
122360.1
122299.3
122245.8
122214
122217.7
122261.8
122337.9
122427.3
122511.1
122583.1
122646.9
122797.2
122699.2
122620.9
122535.9
122456.1
122385.4
122328.9
122285.2
122250.5
122215.2
122171.2
122128.7
122112
122141.5
122211.9
122293.5
122366.4
122422.1
122461.2
122485.7
122497.5
122497.7
122486.7
122464.6
122432.8
122396.1
122361
122334.7
122326.7
122344.2
122389.3
122455.1
122528.5
122603.3
122653.9
122708.6
122831
122740.2
122648.6
122559.9
122479.7
122405.8
122344.7
122296.1
122256.8
122221.2
122184.2
122154.1
122146
122172.8
122234.4
122313.3
122384.2
122436.9
122472.9
122495.1
122505
122504.3
122494.4
122476.7
122453.9
122430.4
122411.5
122401.8
122406.9
122430.7
122475
122534.2
122596
122660
122714.6
122756.6
122867.6
122773.4
122682.8
122590.6
122508.7
122434.5
122371.3
122321
122281
122248.2
122220.8
122203.3
122204.7
122231.1
122282.6
122348.5
122412.7
122460.1
122489.3
122507
122514.9
122513.9
122505.3
122491.1
122474.3
122458.9
122449.7
122449.8
122462.5
122489.5
122531.9
122584.8
122642.3
122704
122753.5
122789.9
122819.3
122718.7
122625.2
122544.3
122471
122406.4
122355.1
122316.1
122286.8
122266.9
122259.2
122267.3
122293.6
122336.9
122389.7
122440.9
122482
122507.3
122519.6
122525
122524.2
122517.2
122505.9
122493.3
122483.1
122479.2
122484.7
122501.4
122531.3
122573.1
122621.8
122674.5
122731.8
122780.1
122853.7
122750.2
122671.1
122586
122513.5
122448.1
122394.6
122355.7
122329.4
122313.3
122309.7
122321.1
122346.8
122384.2
122426.7
122466.4
122497.8
122519.5
122531.1
122534.7
122534.2
122529.5
122521.2
122512.2
122505.9
122505.6
122514.3
122533.6
122565.2
122605.9
122650.8
122704.3
122749
122798.9
122897.1
122797.6
122707.8
122628
122554.3
122491.9
122437.5
122397.2
122370.7
122355.9
122353.4
122365.1
122389
122421.4
122456.2
122487.4
122510.9
122527.1
122538.1
122543.8
122544.2
122541.9
122537.3
122532.1
122529.7
122532.8
122543.9
122565
122596.4
122632.1
122674.5
122722.6
122771.2
122819.9
122851.6
122754.7
122681.2
122601.6
122536.1
122482.6
122440.4
122411.8
122396.7
122393.5
122403.1
122424
122451.5
122480.4
122505.2
122523
122535
122543.6
122550.7
122554.7
122555.2
122554.5
122554
122556.3
122563.4
122576.9
122598.4
122626.6
122660.8
122703.8
122742.5
122792.9
122805.1
122720
122655.5
122585.1
122531.1
122487
122455.2
122437.7
122432.8
122438.6
122455.4
122478.4
122502.3
122522.3
122536.2
122545.3
122552.2
122558.9
122565.2
122570.3
122574.4
122579.1
122586.5
122598
122614.6
122636.7
122662.5
122696.6
122723.9
122754.4
122851.4
122769.7
122692.8
122640.6
122579.9
122535.5
122501.8
122481.5
122473
122475.1
122486.9
122505.1
122524.5
122540.8
122551.9
122559.3
122565.3
122572
122579.5
122588.2
122597.9
122608
122620.1
122635.3
122654.1
122676.1
122704.7
122724.6
122750.6
122779.2
122823.7
122748.3
122679.4
122635.5
122584.9
122549.9
122528.4
122516.1
122514.1
122521.2
122534.1
122549.1
122562.1
122571.3
122577.9
122584.3
122591.9
122600.5
122610.9
122623.8
122638.5
122655
122672.7
122692.3
122717.9
122734
122754.4
122773.2
122795.2
122730.9
122672.9
122636.6
122596.2
122571.3
122558.9
122554.2
122557.6
122566.6
122577.1
122587.1
122595.3
122602.2
122609.2
122617.5
122627
122638.6
122652.7
122669.1
122686.6
122707.2
122732.2
122746.5
122766.6
122777.3
122775.7
122721.7
122671.6
122645.7
122614.2
122599.8
122593.4
122594.7
122601.8
122609.1
122617
122624.4
122631.2
122638.7
122647.5
122657.5
122669.9
122684.3
122701.2
122719.9
122745.2
122760.9
122780.7
122793
122766.1
122711.1
122683.7
122657.1
122643
122629.7
122629.3
122634.4
122641.6
122648.1
122655
122662.2
122670.2
122679.9
122690.1
122702.4
122717.2
122738.8
122756.7
122776.4
122791.3
122809.9
122718.7
122693.6
122673.6
122664.3