/*--------------------------------*- C++ -*----------------------------------*\
  =========                 |
  \\      /  F ield         | OpenFOAM: The Open Source CFD Toolbox
   \\    /   O peration     | Website:  https://openfoam.org
    \\  /    A nd           | Version:  6
     \\/     M anipulation  |
\*---------------------------------------------------------------------------*/
FoamFile
{
    version     2.0;
    format      ascii;
    class       surfaceScalarField;
    location    "49.8";
    object      phi;
}
// * * * * * * * * * * * * * * * * * * * * * * * * * * * * * * * * * * * * * //

dimensions      [1 0 -1 0 0 0 0];

internalField   nonuniform List<scalar> 
403053
(
8.166638
-0.6202719
-7.546366
8.70401
4.444232
-4.981604
7.473389
5.516665
-4.286044
6.63533
0.8380588
8.601563
-3.120087
-5.481477
10.27609
1.258226
-2.932757
14.20539
3.890256
-8.439824
14.16606
6.353412
-1.869851
12.54437
7.811234
-0.6728727
9.963376
8.068857
1.147463
7.019222
7.32913
-4.384976
6.925518
0.0937034
4.962896
-4.501869
-0.4610277
7.831469
-5.103603
2.23503
11.9327
-3.905748
-3.315574
14.57957
-0.3860431
-1.002597
15.70245
3.620562
-0.8531827
15.36797
6.729743
-0.04185296
14.0793
8.597786
0.5021148
11.98673
9.405379
0.7560484
9.442113
9.469891
0.4038565
7.283555
8.938478
0.1455985
4.483693
7.952491
-5.152629
5.928345
-1.444652
3.034175
-4.168754
1.134578
3.886934
-7.168254
1.813627
5.951289
-8.08431
0.9163521
8.425309
-6.945798
0.5660293
10.85165
-3.586139
0.7737558
12.00366
1.311989
1.156566
11.74045
5.358591
1.634362
10.71422
7.77117
1.852842
9.171771
9.016625
1.931204
7.31805
9.47022
1.853392
5.338695
9.498356
1.419477
3.679523
9.024278
0.5873841
3.2355
7.33404
-0.9616727
3.841257
-0.6057567
-1.2495
-4.584138
1.664884
-1.766873
-8.621736
1.970854
-1.675444
-9.761626
1.585887
-0.9361495
-9.150391
1.465299
0.8119711
-7.001891
1.667631
2.541511
-2.917061
2.499511
2.997572
1.842385
3.060145
2.616417
5.074868
3.077458
1.93573
6.70515
2.992161
1.175235
7.46545
2.765266
0.7248697
7.667733
2.280988
0.8958916
7.198901
1.654355
1.461177
5.852601
0.9161538
2.945223
2.35721
-1.327566
-3.084608
4.412174
-6.52521
-6.911578
7.525085
-8.658385
-9.452949
2.964389
-10.04035
-10.60272
2.223061
-10.85478
-10.38827
2.052316
-11.08506
-8.94574
2.17413
-10.1184
-6.366542
2.482819
-8.278872
-2.855299
2.858154
-6.806331
0.529857
3.072469
-5.805237
2.767432
2.936624
-4.854699
3.851943
2.662968
-3.486803
4.035214
2.264623
-1.150439
3.076571
1.785967
1.987183
1.523584
1.191395
3.221108
-0.5593079
2.270606
-0.7438485
3.964957
-6.672155
-2.619768
6.207315
-10.03688
-7.686884
4.140034
-12.22647
-10.36789
3.104534
-13.67036
-11.72677
2.567936
-14.63996
-11.89227
2.473601
-15.16287
-11.03247
2.609639
-15.04572
-9.302351
2.818667
-13.92872
-7.022243
3.049944
-11.93995
-4.675791
3.216874
-9.530337
-2.89201
3.24983
-6.73404
-2.087082
3.142728
-3.110246
-2.545121
2.956542
0.6569032
-3.572996
2.882418
3.605867
-4.569029
3.143649
4.171614
-5.083821
3.958767
-3.165727
6.593492
-1.73263
-1.78402
3.51665
-7.527783
-5.093971
8.269356
-10.34812
-8.863346
3.996796
-12.03558
-11.74946
3.06903
-13.02375
-13.38622
2.647617
-13.56121
-13.94048
2.585672
-13.64461
-13.6577
2.708622
-13.19771
-12.71589
2.966646
-12.1187
-11.38794
3.286684
-10.36542
-9.973608
3.544537
-8.019377
-8.886813
3.648763
-5.449828
-8.245335
3.588704
-3.092915
-8.314868
3.412834
-1.479896
-8.415071
3.229056
-0.5279477
-8.668277
3.147299
-0.3151219
-8.559741
3.263094
-1.771119
-7.242614
5.532884
-4.898851
3.127732
-3.711667
-2.121042
4.048689
-7.129856
-5.635401
3.959619
-9.665178
-9.821438
3.493415
-11.23499
-13.06965
2.890011
-12.11116
-14.96577
2.455713
-12.51439
-15.78436
2.247108
-12.52532
-15.82256
2.175787
-12.15896
-15.3777
2.295443
-11.46564
-14.52349
2.442231
-10.45713
-13.59788
2.615751
-9.330192
-12.70694
2.693187
-8.250914
-11.99657
2.671961
-7.490295
-11.61384
2.538353
-6.909298
-11.38661
2.390544
-6.509595
-11.20066
2.132677
-6.052979
-10.59358
1.577219
-4.715345
-8.847281
0.2670332
-5.694714
-3.919483
-2.586632
-1.99872
2.46431
-5.82777
-5.502861
3.108598
-8.509663
-10.2763
3.136753
-10.33139
-14.03883
2.790903
-11.41
-16.22627
2.339113
-11.95081
-17.22302
1.979468
-12.15875
-17.36525
1.750625
-12.11202
-17.14187
1.71744
-11.9142
-16.47623
1.754929
-11.66284
-15.7006
1.851368
-11.39087
-14.86279
1.883878
-11.1928
-14.09817
1.903526
-11.11772
-13.47523
1.786305
-11.14128
-12.96748
1.604438
-11.10767
-12.37888
1.144611
-10.4982
-11.21922
0.01617473
-8.05114
-8.853826
-2.44051
-5.062875
-8.68298
-1.379844
-0.6188758
-3.336266
-3.867474
0.3210354
-6.215491
-9.815169
2.418096
-8.582407
-14.34912
2.677205
-10.15441
-16.9962
2.341933
-11.05431
-18.2108
1.887678
-11.55914
-18.41825
1.557829
-11.954
-18.14693
1.399928
-12.17256
-17.61321
1.355529
-12.39672
-16.86452
1.388074
-12.69285
-15.99038
1.423719
-13.03827
-15.14096
1.388213
-13.41467
-14.3418
1.242976
-13.76762
-13.56596
0.9514243
-13.75265
-12.5492
0.1553393
-12.35892
-10.6532
-1.959753
-4.773513
-4.577395
-11.86184
-9.836387
0.7972283
-2.009648
-2.655054
-2.212807
-7.864971
1.059838
-5.429424
-13.34854
2.216041
-7.879348
-16.84439
2.29811
-9.465356
-18.50559
1.880797
-10.42507
-18.93379
1.475259
-11.14486
-18.66636
1.239216
-11.82956
-18.11514
1.186633
-12.50417
-17.36763
1.177716
-13.15999
-16.47065
1.136101
-13.83068
-15.51264
1.04237
-14.478
-14.55034
0.8558595
-14.92785
-13.49844
0.3823251
-14.57493
-12.0284
-0.8737064
-11.9513
-9.500922
-3.775907
-4.86339
-11.66531
3.326154
-5.335803
3.238355
-2.957152
-4.82002
-0.6254605
-10.39339
0.9086683
-4.351929
-15.06239
1.944471
-6.937668
-17.74462
1.824771
-8.662903
-18.64621
1.437657
-9.869665
-18.59275
1.133158
-10.91748
-18.10518
1.037852
-11.89893
-17.37358
0.9874055
-12.84056
-16.45782
0.928796
-13.72064
-15.42664
0.7940768
-14.44157
-14.31396
0.4845577
-14.73689
-12.9324
-0.270726
-13.62826
-10.81256
-2.324474
-5.976952
-4.49165
-12.66058
-10.84034
7.288932
-1.86268
-8.383403
4.96035
-6.906801
-1.158011
0.4544733
-11.50212
0.9456074
-3.466686
-15.27022
1.446758
-6.121413
-17.2736
1.282118
-7.929653
-17.79481
1.010296
-9.412209
-17.58755
0.9649194
-10.719
-16.93343
0.8666462
-11.83928
-16.05798
0.7204428
-12.7744
-14.9125
0.4209653
-13.35036
-13.58985
-0.1481411
-13.23086
-11.81032
-1.241586
-11.14583
-9.228165
-3.669426
-4.667209
-10.97027
6.102094
-7.964775
8.078713
-1.126138
-7.757281
4.963529
-7.102283
-1.284653
0.7867159
-11.01906
-0.07434961
-2.930914
-14.16649
0.610515
-5.446659
-15.86808
0.5890189
-7.369721
-16.31798
0.6534942
-8.875702
-15.91125
0.4837921
-10.07497
-14.99071
0.1319948
-10.87914
-13.56862
-0.5397094
-10.92665
-11.75172
-1.790619
-10.2603
-9.286898
-3.189769
-5.016364
-3.687768
-10.78433
-9.683573
6.286712
-7.41285
4.604787
-5.420358
4.110417
-3.218003
-7.306683
0.586963
-9.263281
-1.379755
-2.444974
-12.1445
-0.6916471
-4.795431
-13.75811
-0.2094079
-6.441691
-13.74421
-0.5207771
-7.369342
-12.56383
-1.499224
-7.777797
-10.40765
-2.752512
-4.601394
-4.848826
-10.07929
-5.119648
-8.768644
-8.807416
3.730638
-6.94864
1.099758
-6.632401
0.4270465
-4.571455
-6.900332
-2.00452
-9.155694
-2.170852
-3.577622
-9.532488
-2.638619
-1.953732
-5.534905
-8.652818
-3.318132
-9.043252
-8.166958
1.529058
-6.100513
0.06576561
-7.692401
-0.994545
-8.472178
-6.52945
1.233183
2.324722
-3.557905
2.058803
4.576526
-5.402146
2.400977
5.637883
-5.980057
2.414893
6.658096
-6.672012
2.268949
7.791337
-7.645393
2.109187
9.098252
-8.938492
1.996539
10.60501
-10.49236
1.922383
12.00921
-11.93506
1.837396
12.48401
-12.39902
9.413314
-7.575918
2.771035
0.289355
-3.06039
4.347613
1.209548
-2.786125
7.670574
1.9841
-2.982339
9.074297
3.116602
0.05620051
9.687417
4.851221
0.173542
9.366862
6.944058
0.03459357
8.552432
8.742309
-0.1365425
7.63097
10.39321
-0.3734933
6.732868
12.24627
-0.743158
5.825808
14.18493
-1.268655
4.866621
15.56401
-2.120819
6.215926
15.49739
-7.433385
3.642601
13.75583
-11.1825
9.823619
-6.181018
4.656318
-2.113601
-2.542716
9.623144
-2.009712
-2.66776
13.32452
-2.432251
-0.05957813
16.54727
-1.391487
0.1528382
18.4696
0.9257717
0.2685033
20.80848
2.484973
0.02736604
18.78249
8.892723
0.07732135
17.46425
9.678227
0.382323
15.69783
11.44967
0.7099586
14.6071
12.36269
0.9743151
11.32107
16.43015
1.040807
9.885315
16.35842
0.6413492
8.417663
17.3179
-0.3528493
6.552838
17.05132
-1.430666
6.707014
14.98916
-5.319719
10.28762
-3.580602
5.242728
-3.26324
-1.979488
10.12696
-4.677653
-2.320181
14.69454
-6.178024
-0.3992695
18.66401
-6.018672
-0.3830492
24.07879
-5.835986
-0.9702799
24.93687
1.31554
-1.247847
25.79767
3.158943
-1.534773
26.62478
2.117382
-1.598135
25.28975
6.519024
-0.487372
22.78148
8.998534
0.6733594
16.46477
17.61354
1.903923
16.82368
14.26302
1.808223
15.76968
16.20973
1.202696
12.25565
20.01316
0.8187605
10.41161
18.48162
0.4137417
8.256214
17.52248
-0.3779148
7.400863
14.40904
-3.26607
9.526336
-2.125473
4.631559
-2.969607
-1.661953
8.555492
-5.537699
-1.649474
12.55832
-8.435647
-0.2448295
17.93685
-11.23685
-0.3197025
20.56003
-8.355346
-0.2865053
22.48869
-6.807883
-0.9567696
28.59725
-8.376004
-1.898487
31.37405
-0.7415601
-1.809052
23.67447
3.205269
-1.828135
22.27557
6.45656
-0.4084845
20.72545
8.900503
0.9752771
26.20913
11.15414
2.123186
21.4636
12.75416
1.869405
14.2012
21.28698
2.278857
15.26063
17.52468
1.429051
14.1873
18.82463
0.7303116
10.70274
20.30376
0.7032741
8.468401
16.29928
0.3440975
7.085906
12.39103
-1.482196
7.769951
-0.6840451
3.527388
-1.237457
-2.289932
6.547491
-4.533306
-1.456404
9.211266
-8.478376
0.2769021
13.00342
-12.45361
0.225804
12.63181
-11.16954
0.3043004
18.84078
-15.39911
0.3737636
23.65324
-9.948427
0.563121
19.26822
-7.223321
-0.08324143
20.51411
-2.847431
-0.1426095
20.77716
2.098858
-0.009828239
20.25589
6.064688
0.8712933
19.07966
8.750287
1.828563
17.71721
10.66296
2.609679
16.02462
12.02615
2.824456
20.77323
13.80597
2.877994
16.11964
15.10387
1.92177
9.953537
21.58833
1.95776
12.51308
16.12323
1.620987
9.786119
17.41885
1.607383
8.182221
12.6344
1.360522
6.664672
8.184636
1.102864
4.468193
2.196479
4.98544
-2.86934
-3.353556
6.481147
-6.48852
0.4595067
7.163558
-10.18322
1.022435
6.643831
-12.88087
0.9469848
10.51728
-15.41901
1.510604
7.383772
-12.40975
1.957766
7.871635
-11.64187
2.121929
9.111973
-9.915335
2.017705
11.33524
-6.43874
2.141802
13.14417
-0.9407852
2.387278
13.52861
4.371414
2.943195
13.18458
7.446718
3.500439
12.29936
9.527154
3.952221
11.07647
10.92521
4.177234
9.988278
12.27795
4.035691
9.088507
13.17168
3.419341
12.72929
14.01688
2.968989
8.790517
16.5957
2.860551
10.26961
13.08404
2.855717
10.56706
9.496859
2.840102
9.337737
5.857116
3.55684
4.825731
8.980199
3.1749
-0.2179852
-2.956915
5.026238
-3.132689
-1.587989
4.573007
-7.328822
1.293533
3.475714
-11.09381
2.00788
0.3865329
-12.35516
2.563475
-1.184839
-15.45356
3.270806
-2.563164
-12.79009
3.729521
-3.418277
-13.00493
3.804068
-3.500544
-12.21679
3.849021
-2.509567
-9.920373
4.158287
-0.1583237
-5.801002
5.008483
2.065414
-0.2014191
5.409241
2.921802
4.148424
5.519364
3.258501
6.629695
5.55292
3.306359
8.19546
5.447154
3.41159
9.374971
5.078733
3.863868
9.869884
4.503874
5.03082
9.810777
3.955307
8.429823
11.48641
4.067498
13.23855
4.298895
3.976412
14.70117
3.327965
4.706278
14.80878
0.1040202
5.645486
8.913515
-1.173
11.894
-0.4674905
9.381006
4.691496
-0.2518059
-4.657675
4.450926
-3.231371
0.3392527
1.573065
-6.70101
2.250049
-4.015429
-8.588111
3.082797
-5.3619
-10.96211
4.365596
-7.919265
-10.98004
5.608929
-10.44272
-12.83353
5.531292
-12.43292
-14.02801
5.236339
-13.77818
-13.9917
5.172481
-14.34273
-12.5596
5.377908
-13.71425
-9.75241
5.805747
-11.32069
-5.941758
6.204931
-8.525844
-1.928566
6.354614
-6.357963
1.168016
6.230423
-4.552124
3.079171
5.973418
-2.586558
4.042381
5.631646
0.2293917
3.630875
5.209027
4.078713
2.164546
4.988304
12.40579
-0.2130158
5.642951
17.18735
-3.619282
7.101578
17.80078
-5.07934
7.793874
16.55948
-6.36849
7.713804
12.16399
-5.36168
8.584174
-2.842958
14.53946
5.049022
0.03685863
-5.337687
3.487924
-2.346677
0.6764047
-1.404785
-4.77298
2.96468
-7.409983
-6.890674
4.307761
-8.801307
-9.348251
5.984779
-11.36994
-10.86219
6.590815
-13.78116
-13.60334
6.285556
-15.7496
-15.40524
5.913614
-17.15929
-15.91846
5.810054
-17.93135
-15.16411
5.986198
-17.86404
-13.33116
6.330103
-16.67094
-10.78649
6.701584
-14.28002
-8.067814
6.965202
-11.18332
-5.73597
7.057117
-7.691755
-4.280652
7.010982
-3.66211
-3.952733
6.922011
0.4304867
-4.576467
6.997163
3.927149
-5.672771
7.484304
6.361053
-6.921816
8.233664
11.7656
-11.16158
8.731245
10.62906
-11.60305
7.660253
8.94431
-11.76264
7.078898
6.006284
-8.652547
6.228893
-4.567866
7.731192
5.586523
0.6827762
-6.232441
3.235748
-0.5972337
0.6013319
-3.078115
-1.625932
3.166815
-7.290343
-4.125549
4.963754
-8.43822
-6.873611
6.942592
-11.10577
-11.19033
6.992494
-13.40588
-14.74521
6.51101
-15.10282
-17.08585
6.025166
-16.15757
-18.07547
5.797428
-16.57663
-17.89586
5.859437
-16.26615
-16.82017
6.145176
-15.14039
-15.17211
6.546545
-13.21705
-13.36161
6.914987
-10.6724
-11.78519
7.153336
-7.86683
-10.69401
7.196493
-5.257128
-10.25649
7.106889
-3.388588
-10.1846
6.968649
-2.280281
-10.4711
6.837325
-1.678179
-10.98633
6.72551
-2.287639
-11.71628
6.697042
-0.257137
-15.52318
5.017361
-2.17382
-13.42993
3.58397
-2.853934
-9.748661
1.776228
-4.971425
-2.450375
6.90521
1.425928
-7.648362
4.985636
1.341045
-0.01870415
-0.6473596
1.134716
2.872348
-3.601791
-2.13809
5.015662
-6.533193
-6.555268
6.572678
-9.618255
-11.51504
6.90319
-12.16164
-15.7884
6.476591
-13.95912
-18.67986
5.847198
-15.04721
-20.09843
5.358156
-15.56052
-20.32923
5.122466
-15.50003
-19.73517
5.149949
-14.96813
-18.59228
5.330503
-14.02636
-17.24106
5.55343
-12.90424
-15.91631
5.702185
-11.81492
-14.82031
5.708934
-11.01684
-14.08084
5.564617
-10.46757
-13.62626
5.282944
-10.20728
-13.37742
4.778703
-10.26691
-13.23683
3.887349
-10.76691
-13.3564
2.407146
-13.84073
-16.8003
0.4314548
-12.46625
-13.81429
-0.9901255
-9.992888
-9.767812
-2.454209
-5.068877
-9.895436
9.098718
1.932027
-9.604818
8.846229
2.688719
-1.095185
4.719884
3.428281
1.83278
0.355796
0.4450048
4.245303
-3.453764
-5.364414
5.727303
-7.172457
-11.24021
6.580612
-10.27841
-16.31259
6.421041
-12.53987
-19.83267
5.753389
-14.01998
-21.67378
5.034934
-14.94103
-22.17841
4.520864
-15.41533
-21.83711
4.29368
-15.6028
-20.91972
4.269836
-15.59953
-19.7364
4.343445
-15.54044
-18.4779
4.386389
-15.48764
-17.30028
4.330695
-15.54375
-16.31907
4.080659
-15.63283
-15.52385
3.591111
-15.71504
-14.84495
2.694345
-15.81473
-14.2652
1.144229
-16.45265
-14.01833
-1.14066
-22.01328
-16.72884
-3.193809
-18.75145
-13.03767
-4.038449
-13.9684
-9.46825
-5.082612
-4.936312
-14.10096
11.45778
2.116148
-11.6419
13.17266
3.203926
-2.230087
11.96953
4.229497
0.4019058
8.230105
0.8425816
2.722977
1.82759
-2.759031
4.118167
-2.863581
-9.724042
5.593099
-6.942292
-15.73327
6.176599
-10.0572
-20.12565
5.749816
-12.24355
-22.53227
4.932525
-13.74875
-23.32559
4.210212
-14.84256
-23.11174
3.768356
-15.65757
-22.32588
3.576698
-16.33153
-21.1921
3.517738
-16.95493
-19.8969
3.466104
-17.54995
-18.61453
3.297484
-18.10648
-17.42554
2.905978
-18.53115
-16.33267
2.184907
-18.76887
-15.32939
0.8774976
-19.14459
-14.52328
-1.325943
-24.66382
-16.15256
-4.208378
-27.06076
-19.04134
-5.126955
-21.43992
-13.05615
-5.602353
-15.67898
-8.787209
-6.441981
-4.545475
-16.06982
13.25209
2.046986
-13.18293
16.58633
3.051253
-3.181567
18.04896
3.425299
-0.6584286
14.83828
3.073418
0.9798445
8.928457
-1.526694
2.022431
3.896913
-7.402184
3.769524
-1.465775
-13.46852
5.313981
-6.005685
-18.84271
5.555076
-9.307854
-22.26157
4.912263
-11.64208
-23.59979
4.083686
-13.38605
-23.60682
3.478266
-14.79968
-22.89747
3.171846
-16.02039
-21.79708
3.0034
-17.12208
-20.50106
2.841961
-18.12766
-19.13116
2.564574
-18.97905
-17.7663
2.048
-19.59307
-16.4389
1.102571
-19.9872
-15.2373
-0.5716568
-20.73222
-14.42331
-3.130857
-26.2015
-16.78658
-5.561999
-25.7495
-13.86196
-5.631378
-21.47666
-11.58289
-5.746105
-15.70075
-7.854254
-6.708858
-3.99611
-16.25012
13.82902
1.712932
-13.49496
18.79694
2.339689
-4.256355
21.02881
2.925946
-1.732522
22.60138
2.544481
-1.043636
20.07315
-4.281939
-0.05232483
11.10587
-4.369379
1.114454
5.658687
-10.46937
3.356708
-0.1322979
-15.85232
4.745066
-5.044206
-20.25344
4.728554
-8.544243
-22.66852
4.006424
-11.09094
-23.22716
3.300194
-13.08621
-22.76579
2.901448
-14.76399
-21.76532
2.633438
-16.22434
-20.49263
2.380703
-17.49778
-19.07042
2.006782
-18.53522
-17.5994
1.355111
-19.30259
-16.1343
0.1920452
-20.08969
-14.92508
-1.84959
-26.15148
-16.3116
-4.710508
-29.03921
-19.06305
-5.676153
-23.8394
-13.50433
-5.557446
-20.0039
-10.26338
-5.155013
-14.11563
-6.993587
-6.748933
-3.2689
-14.84284
10.19345
-8.480514
18.95241
4.452341
-10.87161
22.9585
2.063156
-3.143298
26.60283
1.181792
-2.281646
24.16951
-0.08263815
-1.765983
16.93836
-4.1345
-1.387131
12.15545
-7.820844
0.9763739
6.511802
-12.33117
3.068104
0.5207389
-16.78345
3.96783
-4.47106
-20.18063
3.786028
-8.001693
-21.78695
3.100722
-10.62177
-21.84548
2.664687
-12.72992
-21.08889
2.298358
-14.46421
-19.95415
1.916261
-15.919
-18.58037
1.385696
-17.09307
-17.1295
0.5560328
-18.04649
-15.69392
-0.7285469
-19.2365
-14.64882
-2.755688
-24.73081
-16.88138
-4.906177
-24.78701
-13.99454
-5.012306
-21.36642
-12.03009
-4.894825
-17.45293
-8.990281
-5.186585
-7.45922
-2.570831
-14.41647
-10.72812
16.78763
1.712423
-14.04771
22.34049
1.045744
-4.535444
25.82575
0.6764923
-2.979963
29.09032
-0.2943684
-3.052844
26.57882
-7.13135
-2.45642
17.13558
-5.058412
-1.076477
12.04575
-9.507238
0.9812528
6.254437
-13.36585
2.299356
0.3896972
-16.65785
2.952474
-4.310245
-19.18155
2.683566
-7.596219
-20.14669
2.240674
-10.09441
-19.85163
1.744735
-12.08047
-18.98746
1.15136
-13.73608
-17.8349
0.3704388
-15.16187
-16.75019
-0.744138
-16.4759
-15.59352
-1.976143
-21.34067
-16.93169
-3.636691
-25.28486
-18.14911
-4.471652
-20.91375
-13.87971
-4.485941
-17.97321
-10.71084
-4.259793
-13.70818
-7.700963
-5.554346
-3.478267
-12.80074
10.9838
-9.271377
19.58379
3.460429
-11.01468
24.44673
0.08365034
-4.270096
28.74592
-1.142914
-3.450647
26.69815
-2.380271
-2.703305
25.22386
-9.240635
-1.756343
20.19828
-9.406054
-0.495963
10.71356
-11.36363
0.175818
5.004023
-13.58985
1.26178
-0.2001178
-16.26467
1.595615
-4.245507
-17.7816
1.470894
-7.159181
-18.22913
0.7703905
-9.400784
-18.06467
-0.1804163
-11.3606
-17.42198
-1.205617
-15.35354
-20.34631
-2.490241
-17.75763
-18.89893
-3.059143
-19.94815
-20.06357
-3.485012
-19.09601
-15.29185
-3.709406
-16.83381
-12.15094
-3.990967
-13.78907
-9.015148
-4.740436
-6.426607
-2.938598
-12.12483
-9.904875
12.07047
-8.61004
20.17578
3.065863
-11.08753
24.08212
-1.019122
-4.030126
26.84166
-2.527427
-2.612388
23.79351
-4.724665
-1.467821
21.95217
-6.55569
-1.009019
17.08943
-12.75719
-0.6923355
10.22211
-13.16561
-0.1893235
3.635808
-16.49629
-0.08241172
-0.7491511
-15.71135
0.1438502
-4.102975
-16.93276
-0.5811643
-6.904461
-22.14456
-1.771434
-10.74327
-20.1467
-2.479722
-14.9961
-21.5928
-2.667638
-13.09241
-18.18516
-2.617463
-14.7536
-15.58252
-2.81986
-13.8403
-13.01623
-3.188928
-11.90003
-9.946896
-4.144311
-5.911544
-3.811733
-11.1919
-8.850142
11.92174
-8.855882
19.24655
2.460751
-10.80468
21.81336
-1.855389
-3.238845
21.80008
-3.197821
-1.513573
21.51231
-5.167751
-1.100164
17.16347
-7.744669
-0.6636827
15.06661
-10.47202
-0.5967312
8.690928
-15.554
-0.6671212
3.359959
-17.18765
-0.8851335
-1.498253
-19.14717
-1.399551
-7.907678
-20.45219
-1.812395
-6.617382
-19.38044
-2.056555
-8.818911
-17.12418
-2.267088
-9.536253
-15.29007
-2.177743
-9.761565
-13.11303
-2.24417
-9.001166
-10.47092
-3.30571
-4.370786
-4.673249
-9.904026
-8.182519
11.00003
-8.539279
16.7459
1.927809
-9.529071
18.19208
-2.307629
-2.33637
18.03105
-3.587204
-1.419513
16.23946
-5.288979
-0.6641026
14.09179
-7.593085
-0.7312629
9.534956
-10.15754
-0.8396315
5.900198
-12.39338
-1.159506
2.373168
-14.06885
-1.551296
-1.109473
-15.07056
-1.898989
-3.608786
-14.99389
-1.887235
-4.855021
-14.02597
-1.851978
-5.555684
-12.34824
-2.241171
-5.703844
-9.950669
-3.014205
-2.546892
-5.067055
-8.560815
-7.220141
9.501451
-7.573642
10.92076
-3.726934
13.79956
1.199893
-7.665905
13.25653
-3.296488
-1.449452
11.62317
-4.858921
-1.100806
9.224214
-6.418152
-1.340431
6.554098
-7.944857
-1.778408
3.917656
-9.2283
-2.204104
1.460447
-10.09245
-2.520906
-0.5015072
-10.34713
-2.684805
-1.826348
-9.695095
-3.006036
-0.3989617
-5.95752
-7.818104
-1.760335
-8.589296
-6.82739
7.741079
-6.541187
8.173812
-3.72922
7.537562
-4.222671
6.404294
-5.284885
5.02849
-6.569053
3.578454
-7.778265
2.226741
-8.740736
1.048214
-9.168608
0.1825388
-8.82942
-5.774981
-2.695636
9.348112
-6.652476
-2.915016
13.51026
-13.29088
-2.824132
15.25829
-15.34917
-2.673895
16.41002
-16.56025
-2.447816
17.2603
-17.48638
-2.050945
17.62179
-18.01866
-1.55301
16.77098
-17.26892
10.42888
-11.98189
-3.070167
8.292743
-5.222576
-3.908916
12.12823
-11.28949
-6.168188
14.1696
-11.91033
-3.896967
16.65736
-9.580464
-3.926331
18.74033
-5.200703
-3.661262
20.29564
-5.302416
-3.320653
21.88823
-5.818825
-2.945045
23.4936
-6.608908
-2.499516
24.85948
-7.683221
-1.989208
25.47877
-9.218099
2.719584
24.47201
-18.75192
0.3015274
21.98413
-19.56607
0.5588497
18.62785
-18.88517
11.3744
-10.81555
-4.799899
8.911965
-4.112065
-3.601739
13.19015
-6.095571
-4.584049
16.23827
-3.12773
-4.516491
17.03491
-2.932867
-3.891937
18.73485
-2.70205
-3.326948
20.56923
-2.39389
-2.804308
22.36892
-2.595919
-2.275359
24.51235
-3.153069
-1.738301
26.99674
-4.04019
-1.174331
29.53848
-5.242965
-0.458226
31.50628
-6.743613
0.627239
31.94199
-8.555443
1.128713
31.00075
-9.5181
0.8614669
28.83877
-9.943673
4.668635
22.91131
-15.34408
14.28768
-9.619041
-2.244041
7.089344
-4.845303
-4.266468
10.28482
-8.262389
-2.988176
13.19597
-5.562296
-2.364322
14.29404
-1.727739
0.9811508
13.41661
-0.5238084
-0.5396876
14.75581
0.2420331
-0.112975
12.55602
0.3499769
0.3285914
13.77286
0.3747424
0.6392707
15.27137
0.1148524
0.9491145
17.02711
-0.469997
1.369601
19.02936
-1.391602
1.87528
21.16057
-2.620134
2.338591
23.13649
-4.028577
2.507479
24.74926
-5.37518
-2.524359
34.46854
-6.011862
3.409585
30.05667
-7.151844
4.289393
30.31161
-8.280105
6.895893
26.20414
-14.52296
3.391619
18.26843
-14.76416
10.74188
-7.350265
-2.659353
6.693201
-4.033848
-0.8386779
10.35446
-5.085789
-0.5452253
11.74369
-1.752321
2.471825
10.82722
-0.6482968
3.181972
9.961432
0.5620701
4.639999
7.838232
1.334226
6.185988
8.084849
2.142633
6.728448
9.239893
2.829862
6.734758
10.80203
3.138062
6.23112
12.62902
3.180587
5.591346
14.54704
2.98331
5.125288
16.61964
2.502284
4.952801
18.89335
1.696548
4.969607
21.26214
0.5888829
4.983781
23.39243
-0.7781573
9.613182
25.05025
-2.644502
6.975492
25.68258
-4.170724
1.900272
34.0973
-4.891488
6.8697
26.92958
-5.694869
5.071675
25.62486
-5.558404
6.024859
17.65206
-7.863365
10.22074
-4.195879
-1.691744
5.732981
-4.041237
0.5761721
9.11454
-4.689255
1.823066
10.37771
-1.270141
4.907779
8.719298
-0.06032636
7.101878
5.095865
0.9945355
9.61457
2.951432
1.829547
12.26968
2.545229
2.578312
14.25951
3.145821
3.10204
15.23683
4.944983
3.586096
14.96694
7.196479
3.902801
13.83379
9.59386
4.245635
12.29251
11.88807
4.582567
10.73301
14.1287
4.760404
9.54791
16.4468
4.605958
8.847862
19.02124
3.981756
8.306174
21.65713
2.918329
7.970109
23.6992
1.33427
7.629217
24.75754
-0.1647319
12.58172
25.58602
-1.760939
5.113141
33.15626
-2.338708
8.957617
24.36421
-2.583829
6.401473
22.52048
-2.312276
5.987269
14.12093
-3.485984
7.087837
-1.100568
1.865186
6.449719
-2.581924
3.445349
8.971406
-1.43703
6.534908
7.410566
-0.1224183
10.48757
1.850062
0.9370888
12.64669
-0.9705361
1.587097
16.00992
-2.822065
2.010995
19.32635
-3.305634
2.151392
21.66457
-2.19954
2.036861
22.91538
0.3403683
2.105954
22.64752
3.536484
2.39308
21.10838
6.50441
3.030453
19.05997
9.39875
4.050354
16.8621
11.94314
5.056791
14.95921
14.53662
5.716989
13.35753
16.79463
5.636511
11.97292
19.25874
4.985698
10.89977
21.68743
3.903682
9.900954
23.41082
2.759275
9.533331
24.21651
1.359219
15.10228
24.16161
0.1596317
7.42831
29.95112
-0.03841897
10.06052
19.9755
-0.08722338
6.514525
17.02808
0.6388436
9.46946
4.132902
0.4817123
4.998467
-5.480179
4.737464
7.960291
-5.766323
7.328855
7.240944
-0.8609291
11.19406
1.188507
0.694905
12.3575
-2.490234
1.527374
14.94437
-5.717143
1.914909
17.58718
-7.657116
1.872546
20.36621
-7.965622
1.594452
22.82994
-6.738626
1.118579
24.63629
-4.076385
0.7119209
25.38872
0.1961888
0.7788142
24.21801
4.422363
1.42462
22.52308
7.872942
2.812257
20.59526
10.53404
4.312194
18.94842
12.77403
5.532618
16.79417
14.77974
6.038548
14.97821
17.2876
6.065959
13.29503
19.41271
5.386947
11.72084
21.18503
4.530298
10.7703
22.27762
3.592692
10.47039
22.15906
2.646565
15.9706
20.91887
2.049854
9.036482
24.09486
2.130709
10.41469
13.34429
2.305581
6.993508
10.34902
2.541625
5.363985
1.629523
1.104994
4.44081
-5.545804
5.52987
6.869368
-6.295778
8.676483
6.571287
-1.75761
10.59359
3.036985
-0.003080171
10.82447
-1.859306
1.360534
12.38774
-6.068983
2.292374
13.61801
-9.321217
2.599613
14.74693
-11.11084
2.62911
16.07999
-11.48131
2.556382
17.74877
-10.19282
2.348534
19.19824
-7.572918
1.963825
20.78753
-3.299009
1.763297
21.32567
1.974227
1.900168
20.85766
6.369092
2.843152
19.80254
9.297179
4.120542
18.45829
11.37468
5.353289
16.79577
13.07092
6.195803
15.40727
14.96645
6.587635
13.54833
16.87855
6.314869
11.97629
18.82078
5.894049
10.98693
19.64108
5.246882
10.73664
19.3743
4.64244
11.03054
17.71937
4.266113
17.01654
14.91146
4.300256
13.71068
13.91386
4.932771
11.12263
7.698008
5.23906
6.2209
3.498171
6.767541
1.566354
4.654546
5.533765
4.724501
-5.817456
8.529308
6.587043
-2.713217
9.730854
6.497248
-1.127507
9.71376
-0.8704217
0.5709439
10.26551
-4.259986
2.308442
10.24397
-8.444532
3.419518
9.365272
-11.35422
3.858688
8.439964
-12.81465
4.139713
7.615219
-13.01507
4.316276
7.585529
-12.37996
4.338766
8.44195
-10.67784
4.266203
10.44994
-7.490438
4.325238
12.66187
-2.222981
4.372564
13.63337
3.569424
4.771363
13.81268
7.080128
5.538175
13.40399
9.383275
6.352311
12.57462
11.05595
7.021576
11.57401
12.6337
7.369037
10.49021
14.10071
7.280982
9.912046
15.38075
6.987179
9.92765
15.89307
6.592966
10.95218
14.89363
6.31186
12.58618
12.56139
6.364082
14.81666
9.303747
6.934073
20.39275
9.387168
7.930799
20.92267
-1.053879
8.221973
13.49539
2.285907
8.639538
1.521516
13.54023
8.016553
3.482128
-6.77418
11.71381
5.467137
-2.577356
12.39458
3.633774
-0.7742104
9.647448
-0.8557392
1.144465
8.572576
-5.253879
3.362298
6.263372
-8.870967
4.743519
3.126552
-11.11782
5.463893
0.101891
-12.52166
6.002484
-2.291332
-13.25236
6.360033
-3.792251
-13.56993
6.494956
-4.362693
-12.91838
6.660003
-3.818736
-10.90726
7.031155
-1.418048
-7.365246
7.75006
1.610877
-1.94223
7.89197
3.415242
2.804195
7.990932
4.370714
5.781246
8.199478
4.859738
7.631701
8.382383
5.09087
9.093349
8.387956
5.399803
10.10093
8.194723
6.410794
10.38536
7.939715
8.778138
9.717393
7.875827
12.32726
7.254034
8.066883
16.60803
4.229202
8.757707
20.43035
1.264063
9.862848
31.61684
-0.9979429
11.09262
29.95271
-1.503022
11.49428
20.01841
0.7893773
11.43083
4.226939
17.31299
3.586303
3.363341
-6.949644
10.76589
5.282838
-8.980302
13.73689
5.20894
-2.712794
10.46343
3.02138
-0.7718273
8.95686
-1.024773
2.014859
6.157144
-4.793316
4.589201
1.505339
-7.31136
6.174996
-3.3327
-9.098166
7.183984
-7.106698
-11.12154
7.982804
-9.979333
-13.16505
8.316621
-12.14799
-14.49709
8.332155
-13.63356
-14.68251
8.422185
-14.31956
-13.55533
8.711976
-13.94164
-11.10664
9.169216
-11.63918
-7.586968
9.547205
-8.458051
-3.661587
9.63927
-5.675009
-0.3161146
9.544741
-3.498736
2.004429
9.424417
-1.429037
3.358982
9.296313
1.300353
3.458013
9.122555
5.173491
2.324838
9.175684
10.10262
0.6757588
9.755454
15.22863
-1.647519
10.87712
19.31702
-3.911707
11.84639
21.3248
-5.467614
12.43771
21.7174
-5.656037
12.84967
27.54082
-5.093638
12.30665
18.77781
-0.8516477
10.40404
7.416642
2.094806
13.4933
2.334149
5.082493
8.61846
3.539876
-8.794996
13.12141
5.065585
-4.285693
15.9562
5.043442
-2.669291
11.19148
3.338464
-0.89006
8.507772
-0.09653144
2.431877
3.917271
-2.729448
5.491312
-2.180986
-4.296861
7.391518
-6.970872
-7.059494
8.735994
-10.27928
-10.58858
9.366266
-12.90014
-13.65775
9.399105
-14.96626
-15.71368
9.196323
-16.4472
-16.51219
9.12067
-17.27431
-16.04401
9.301993
-17.28236
-14.45652
9.688032
-16.22057
-12.07124
10.12407
-13.99914
-9.384519
10.46671
-10.92524
-6.976554
10.64365
-7.407877
-5.170838
10.66889
-3.491164
-4.326955
10.69124
0.582208
-4.50827
10.89007
4.308259
-5.35119
11.43428
7.594746
-6.397592
12.02053
10.30161
-7.886735
12.26359
11.22082
-9.075931
11.90527
10.9052
-9.452719
11.37962
9.462576
-8.637085
10.65257
10.96338
-7.685258
8.822004
5.4712
-1.818812
6.459348
1.423398
2.427389
3.715219
3.135383
0.6221635
10.68363
3.411354
-10.5551
15.35519
4.867629
-4.473611
18.34459
5.151604
-3.097554
12.51957
4.327361
-1.396322
9.052607
1.638795
2.332969
3.626499
0.03868486
5.824791
-2.418644
-1.401117
8.113153
-6.645657
-5.535591
9.645703
-9.897212
-10.40577
10.06124
-12.49389
-14.37649
9.826434
-14.42929
-17.10547
9.352365
-15.69006
-18.45928
9.005286
-16.27894
-18.54752
8.951831
-16.14382
-17.62583
9.179365
-15.21118
-16.0308
9.573464
-13.49513
-14.16313
9.977537
-11.179
-12.41215
10.2728
-8.50686
-11.04865
10.40217
-5.878241
-10.24954
10.40085
-3.809991
-9.941681
10.33381
-2.475144
-10.07183
10.22312
-1.643012
-10.52977
10.02556
-1.388481
-11.12071
9.676486
-2.389737
-11.71597
8.658654
-4.225186
-11.39568
7.362379
-6.491479
-10.04391
5.449349
-10.0418
-9.01674
2.431427
-8.910584
-3.332722
0.3826952
-5.97881
0.9593391
-1.463725
2.436044
-5.279471
12.24045
3.276903
-12.10599
17.50331
4.752352
-5.147585
21.15262
5.384763
-3.882471
14.67882
5.456347
-2.303554
11.19203
3.468718
1.638165
6.030309
2.657744
5.41501
0.4574919
1.10256
8.084801
-4.347594
-3.888496
9.730669
-8.111738
-9.968685
10.23025
-11.09641
-14.8512
9.935964
-13.28184
-18.30607
9.233234
-14.71192
-20.21646
8.545412
-15.49124
-20.76133
8.115603