/*--------------------------------*- C++ -*----------------------------------*\
  =========                 |
  \\      /  F ield         | OpenFOAM: The Open Source CFD Toolbox
   \\    /   O peration     | Website:  https://openfoam.org
    \\  /    A nd           | Version:  6
     \\/     M anipulation  |
\*---------------------------------------------------------------------------*/
FoamFile
{
    version     2.0;
    format      ascii;
    class       surfaceScalarField;
    location    "49.8";
    object      phi;
}
// * * * * * * * * * * * * * * * * * * * * * * * * * * * * * * * * * * * * * //

dimensions      [1 0 -1 0 0 0 0];

internalField   nonuniform List<scalar> 
403053
(
8.179659
-0.5091453
-7.670514
8.743954
4.63073
-5.195025
7.527896
5.719185
-4.503127
6.787729
0.7401669
8.418568
-3.072935
-5.345633
10.14274
1.250409
-2.974581
14.14565
4.001079
-8.513133
14.17836
6.560062
-1.962046
12.61422
8.056893
-0.7735667
10.09586
8.301249
1.004838
7.134343
7.497833
-4.536312
7.039763
0.09458015
4.514512
-4.398719
-0.1157926
7.364997
-5.28391
2.433425
11.40305
-4.185419
-2.925571
14.22345
-0.6261734
-0.9438189
15.50306
3.584901
-0.8634237
15.30941
6.83882
-0.08510748
14.14929
8.776218
0.4407877
12.16877
9.592342
0.6894251
9.707144
9.61236
0.3471029
7.563069
8.988954
0.1948829
4.73655
7.936055
-5.109536
5.980269
-1.243719
2.609103
-4.115496
1.506392
3.113172
-7.236711
2.333923
5.028133
-8.317779
1.118908
7.491584
-7.371305
0.7224364
10.18379
-4.161183
0.842802
11.65623
0.9665348
1.14593
11.61473
5.274318
1.605999
10.81829
7.770854
1.801806
9.494672
9.047632
1.868325
7.815747
9.486878
1.804406
5.892049
9.47943
1.433223
4.140364
9.006623
0.6811169
3.440596
7.346573
-0.6665356
3.904695
-0.4640996
-1.855336
-4.490933
2.230773
-2.571813
-8.744186
2.223952
-2.584426
-10.0493
1.74413
-1.905178
-9.617974
1.567422
-0.09601633
-7.663534
1.693189
2.017885
-3.62669
2.479324
2.963245
1.310011
3.018947
2.874454
4.828952
3.030693
2.408647
6.544431
2.969008
1.756587
7.359342
2.779595
1.268413
7.622533
2.34507
1.264959
7.245302
1.764775
1.585129
5.957814
1.068589
3.027332
2.462492
-1.577984
-3.099891
4.677875
-6.934385
-7.037723
7.903191
-9.061049
-9.721968
3.104447
-10.39589
-11.01688
2.302423
-11.16813
-10.9448
2.099074
-11.40273
-9.62738
2.19844
-10.45327
-7.1016
2.525454
-8.429727
-3.603791
2.890258
-6.659945
-0.07131079
3.130481
-5.513876
2.377842
3.02052
-4.525698
3.61976
2.751404
-3.232751
3.985021
2.344565
-1.241412
3.409277
1.844687
1.582426
1.962072
1.171904
3.032428
-0.1611576
1.738487
-0.4026972
3.435126
-6.760092
-2.711691
6.371892
-10.06709
-7.94736
4.216634
-12.18338
-10.75327
3.147592
-13.56635
-12.21698
2.583075
-14.50732
-12.47754
2.473705
-15.05025
-11.69556
2.611109
-14.98438
-10.00732
2.839852
-13.9654
-7.716271
3.093507
-12.00239
-5.306026
3.271704
-9.587496
-3.344048
3.306994
-6.874547
-2.296251
3.203063
-3.522215
-2.362689
2.995379
0.1386206
-3.082085
2.830526
3.211673
-4.082452
2.971472
3.970458
-4.695778
3.775836
-2.846784
6.414544
-1.698203
-1.859529
3.557732
-7.491247
-5.276948
8.358301
-10.30021
-9.168971
4.030571
-11.9737
-12.14446
3.064684
-12.94828
-13.8455
2.6031
-13.48755
-14.44689
2.508614
-13.60192
-14.19361
2.612418
-13.21631
-13.25824
2.865314
-12.22707
-11.89791
3.192397
-10.59069
-10.40518
3.462767
-8.356828
-9.175845
3.597937
-5.893975
-8.330418
3.571314
-3.546796
-8.141316
3.431448
-1.744578
-8.137199
3.252896
-0.6305468
-8.326465
3.129981
-0.3250245
-8.225395
3.224094
-1.668878
-6.95491
5.451979
-4.754133
3.085255
-3.629271
-2.196696
3.966437
-7.067279
-5.811866
3.972926
-9.639683
-10.11142
3.514849
-11.24285
-13.43278
2.891482
-12.14094
-15.37061
2.423195
-12.56598
-16.20403
2.18219
-12.61245
-16.23562
2.088478
-12.30058
-15.76783
2.19772
-11.67679
-14.86631
2.344616
-10.74204
-13.86849
2.528562
-9.671019
-12.87556
2.628685
-8.604265
-12.04002
2.642853
-7.761033
-11.52748
2.542932
-7.083846
-11.21367
2.399279
-6.571138
-10.97374
2.134563
-6.018181
-10.35732
1.578972
-4.612515
-8.652703
0.2921279
-5.590919
-3.77573
-2.394815
-1.966643
2.164762
-5.613823
-5.610299
3.017441
-8.354829
-10.50443
3.134023
-10.25294
-14.34604
2.811377
-11.39047
-16.57763
2.344552
-11.97286
-17.58006
1.958415
-12.21803
-17.69971
1.709256
-12.21217
-17.44063
1.66694
-12.05863
-16.72464
1.704791
-11.8473
-15.88703
1.807208
-11.59775
-14.9751
1.849991
-11.39206
-14.12947
1.883764
-11.26977
-13.42896
1.77919
-11.22537
-12.86228
1.604213
-11.11117
-12.23789
1.149953
-10.4275
-11.07476
0.03377032
-7.947177
-8.743199
-2.389829
-5.015234
-8.522862
-1.004288
-0.9623555
-2.831227
-3.628804
-0.154556
-5.767811
-9.866487
2.298639
-8.278406
-14.5163
2.680847
-9.977221
-17.24691
2.368097
-10.96463
-18.48957
1.896914
-11.52656
-18.68272
1.544947
-11.96554
-18.37729
1.375646
-12.22112
-17.79881
1.329751
-12.47367
-16.99962
1.365137
-12.78332
-16.07176
1.406301
-13.12158
-15.16866
1.377447
-13.46858
-14.32102
1.239062
-13.77646
-13.50812
0.9537179
-13.70846
-12.47155
0.1656545
-12.27205
-10.57982
-1.931349
-4.716432
-4.555703
-11.74311
-9.731666
1.692112
-1.81805
-3.502865
-1.360241
-7.661668
0.8475334
-4.813736
-13.21618
2.153379
-7.479881
-16.9018
2.321033
-9.22536
-18.6544
1.910306
-10.27953
-19.11036
1.481805
-11.0572
-18.83118
1.231561
-11.78375
-18.24867
1.176415
-12.48678
-17.46503
1.168439
-13.15676
-16.53152
1.129738
-13.82585
-15.5392
1.039637
-14.4567
-14.54748
0.8573075
-14.87952
-13.47438
0.3890767
-14.49801
-11.99568
-0.8573789
-11.86476
-9.474272
-3.738806
-4.858808
-11.56165
3.97769
-5.79574
4.279498
-2.624666
-5.338811
0.3336115
-10.03836
0.7680675
-3.696618
-14.81226
1.940684
-6.529257
-17.6855
1.86374
-8.399822
-18.70061
1.460819
-9.687402
-18.68128
1.137679
-10.78695
-18.18699
1.037869
-11.80196
-17.43742
0.9874129
-12.7628
-16.50133
0.9306503
-13.64862
-15.45126
0.7978894
-14.36398
-14.32311
0.4909899
-14.64762
-12.93141
-0.2593361
-13.5332
-10.80914
-2.300957
-5.916158
-4.511002
-12.58031
-10.77497
8.008232
-1.726979
-8.905919
5.922287
-6.605313
-1.347104
1.331728
-11.10289
0.8811905
-2.871714
-14.96697
1.484913
-5.744768
-17.15226
1.324704
-7.664051
-17.78918
1.027184
-9.211602
-17.61192
0.9724744
-10.55865
-16.96392
0.8735429
-11.70447
-16.08395
0.7284371
-12.65311
-14.93296
0.4303396
-13.23448
-13.60521
-0.1365305
-13.11806
-11.82303
-1.224802
-11.04881
-9.240657
-3.637733
-4.683999
-10.87581
6.413297
-8.140276
8.680016
-0.9233904
-7.948642
5.715702
-6.809012
-1.329561
1.482524
-10.66335
-0.07043718
-2.441158
-13.8831
0.6545185
-5.113863
-15.7446
0.6281242
-7.116741
-16.27658
0.6675418
-8.670542
-15.90645
0.4963271
-9.902545
-14.99756
0.1456081
-10.72889
-13.58258
-0.5240337
-10.79548
-11.7669
-1.77172
-10.14788
-9.302327
-3.1683
-4.944301
-3.722344
-10.72189
-9.6283
6.528406
-7.451796
5.010189
-5.290795
4.647193
-2.960159
-7.340196
1.098881
-8.988651
-1.346135
-2.062883
-11.93901
-0.6438343
-4.515423
-13.642
-0.182039
-6.217974
-13.70666
-0.4972394
-7.188986
-12.55222
-1.474327
-7.631956
-10.41253
-2.727084
-4.501032
-4.886134
-10.01169
-5.040807
-8.762552
-8.763151
3.989491
-6.949649
1.458148
-6.457308
0.7734172
-4.370112
-6.884163
-1.730249
-9.014185
-2.124151
-3.375427
-9.475751
-2.585727
-1.827019
-5.55913
-8.541496
-3.222059
-9.01749
-8.108193
1.733003
-6.103115
0.2669047
-7.548086
-0.8647918
-8.344055
-6.423922
1.154967
2.370157
-3.525124
1.966651
4.67211
-5.483793
2.29991
5.800075
-6.133335
2.307513
6.877397
-6.884999
2.156433
8.054805
-7.903725
1.994834
9.384389
-9.22279
1.886792
10.88768
-10.77963
1.825479
12.26258
-12.20127
1.760662
12.6876
-12.62278
9.505488
-7.744827
2.710546
0.2368745
-2.94742
4.283245
1.14433
-2.717029
7.580185
1.998287
-2.92507
8.980319
3.226046
0.04593088
9.585844
5.064802
0.1297476
9.249131
7.247584
-0.03347527
8.410939
9.112152
-0.2191541
7.467818
10.79077
-0.463264
6.560743
12.62909
-0.8343371
5.662411
14.52041
-1.359501
4.727588
15.83498
-2.212555
6.166819
15.70964
-7.643381
3.603409
13.91506
-11.35165
9.907763
-6.304354
4.592235
-2.20441
-2.387825
9.494158
-2.143683
-2.521366
13.19408
-2.522312
-0.03327843
16.43617
-1.393565
0.1497574
18.39157
1.030697
0.2399525
20.7449
2.737596
-0.02612396
18.72613
9.26851
-0.002153294
17.40691
10.13676
0.294605
15.62747
11.93983
0.630388
14.50828
12.83543
0.9128545
11.20294
16.82763
0.9981223
9.774857
16.64946
0.613593
8.338311
17.53512
-0.3889316
6.515628
17.21531
-1.477575
6.734736
15.12278
-5.434127
10.38707
-3.652338
5.106882
-3.333236
-1.773646
9.817914
-4.808721
-2.106721
14.31072
-6.284229
-0.3522638
18.27923
-6.109028
-0.3817915
23.73798
-5.859404
-0.9929141
24.73536
1.334888
-1.301562
25.74947
3.338082
-1.614603
26.58825
2.47529
-1.71607
25.29755
6.85155
-0.6191112
22.80331
9.374382
0.5565554
16.42433
18.12642
1.828159
16.83618
14.64878
1.766991
15.79758
16.49959
1.18848
12.3021
20.2094
0.8211921
10.49529
18.60248
0.4196469
8.363686
17.63917
-0.3847809
7.522882
14.53437
-3.306493
9.662123
-2.139242
4.44408
-2.988423
-1.455656
8.12136
-5.6133
-1.397216
11.94017
-8.479047
-0.1484856
17.14902
-11.25493
-0.2381496
19.80974
-8.556308
-0.2134373
21.80718
-6.969301
-0.8875508
28.04028
-8.383595
-1.860247
30.98874
-0.7371163
-1.847844
23.51405
3.357339
-1.920487
22.21402
6.725226
-0.5356994
20.74362
9.229735
0.8414793
26.36846
11.49492
2.011501
21.63893
13.05151
1.79049
14.38572
21.58727
2.260103
15.52435
17.62183
1.448942
14.53169
18.82955
0.7655943
11.02693
20.40707
0.7368516
8.756572
16.43926
0.3654745
7.302986
12.58154
-1.465829
7.983903
-0.6809176
3.34171
-1.218564
-2.123146
6.101147
-4.536224
-1.211636
8.510856
-8.425496
0.4024869
11.98162
-12.31287
0.3630542
11.52486
-11.2728
0.4746336
17.57589
-15.29752
0.574388
22.37676
-10.08406
0.7473161
18.43736
-7.46154
0.0917748
19.9165
-3.097345
-0.06273442
20.41378
2.030304
-0.03366334
20.06779
6.198222
0.7878881
19.05003
8.96751
1.720773
17.8347
10.89854
2.501126
16.27168
12.22234
2.739303
21.28631
13.91199
2.855542
16.70434
15.13885
1.955417
10.54127
21.70485
2.044044
13.09608
16.15013
1.70214
10.20425
17.67048
1.660597
8.428113
12.98528
1.372405
6.79759
8.616051
0.9983749
4.756844
2.040746
4.62764
-2.749624
-3.09658
5.852664
-6.364541
0.603293
6.230362
-9.976379
1.173184
5.345901
-12.5805
1.152089
8.994956
-15.19226
1.776798
6.176748
-12.39715
2.251755
6.650607
-11.82219
2.383179
7.962255
-10.29089
2.240139
10.39642
-6.968855
2.280142
12.58171
-1.441004
2.431951
13.27468
4.23002
2.881238
13.19419
7.436615
3.413183
12.5431
9.565426
3.852531
11.51735
10.95362
4.098879
10.5676
12.27033
4.024628
9.728937
13.17235
3.486271
13.54153
14.12256
3.10316
9.330172
16.91852
2.978865
10.51875
13.57247
2.909436
10.54667
10.16355
2.793797
9.144787
6.631848
3.386089
5.246021
8.65561
2.978466
-0.1018298
-2.876636
4.578374
-2.966765
-1.382768
3.821553
-7.058285
1.450565
2.326138
-10.67027
2.189311
-0.8634124
-12.17838
2.787433
-2.21303
-15.19843
3.58656
-3.531124
-12.87366
4.018562
-4.36277
-13.28448
4.038059
-4.428917
-12.68524
4.027921
-3.41931
-10.55617
4.270899
-0.7763016
-6.615991
5.011303
1.926686
-0.8231177
5.369098
3.10855
3.811428
5.474015
3.672204
6.466576
5.504204
3.879175
8.09191
5.434336
4.038351
9.334981
5.121244
4.434008
9.94222
4.599248
5.428967
10.12007
4.076119
8.443344
12.24888
4.117754
12.83625
5.290797
3.888772
13.97424
4.542603
4.48296
14.15761
1.12487
5.3236
8.843691
-0.533591
11.09354
-0.1649629
9.008654
4.475452
-0.08810223
-4.489179
4.000305
-2.949256
0.4576379
0.7921122
-6.253893
2.4038
-5.016967
-8.132195
3.270999
-6.34463
-10.76679
4.593953
-8.457656
-11.05006
5.867854
-10.84406
-13.08835
5.705544
-12.74428
-14.4349
5.353058
-14.03867
-14.54132
5.249539
-14.59759
-13.23074
5.431933
-14.04122
-10.49723
5.850318
-11.54908
-6.678927
6.253926
-8.493596
-2.520213
6.406642
-6.091977
0.7876524
6.297825
-4.188882
2.8976
6.042619
-2.243532
4.041899
5.692297
0.2795216
4.009126
5.254726
3.740825
2.899824
4.930845
11.76443
0.5972221
5.366546
16.20405
-2.411353
6.697651
17.34639
-4.061634
7.4619
16.50067
-5.592182
7.562772
12.31323
-4.952474
8.606317
-2.724781
14.87305
4.88602
0.2434958
-5.217618
3.125354
-1.963844
0.7752543
-1.944464
-4.257398
3.073323
-7.816719
-6.716002
4.456063
-8.945136
-9.414934
6.148451
-11.41305
-11.07755
6.712036
-13.75919
-13.9485
6.353881
-15.68088
-15.86459
5.934455
-17.07389
-16.47208
5.797477
-17.87126
-15.78382
5.961565
-17.86737
-13.9754
6.314128
-16.76141
-11.39656
6.705173
-14.43645
-8.567439
6.993978
-11.36515
-6.079107
7.102448
-7.928096
-4.390298
7.053909
-4.065753
-3.765411
6.940346
-0.07760082
-4.077179
6.928679
3.485974
-5.005438
7.313158
6.108158
-6.330613
8.081487
11.71807
-10.26366
8.656946
10.96361
-10.96027
7.653096
9.415749
-11.18408
7.139761
6.478239
-8.418403
6.403439
-4.601711
8.355169
5.556695
0.9025289
-6.215728
3.144789
-0.1789946
0.6270573
-3.129693
-1.209904
3.226989
-7.226293
-4.09124
5.02957
-8.346853
-6.971979
7.035907
-11.02896
-11.41765
7.052773
-13.34635
-15.09489
6.528469
-15.05896
-17.53858
5.989704
-16.14114
-18.59485
5.71356
-16.61392
-18.44257
5.743943
-16.38728
-17.35535
6.018617
-15.36883
-15.64997
6.427355
-13.55682
-13.73427
6.817592
-11.11749
-12.00798
7.087474
-8.380392
-10.72649
7.170415
-5.750851
-10.08211
7.118602
-3.70363
-9.867418
6.995913
-2.375186
-10.06009
6.856188
-1.643349
-10.56477
6.726412
-1.926855
-11.27714
6.748965
0.1940452
-15.094
5.098082
-1.596254
-13.15095
3.757167
-2.326005
-9.708186
2.019533
-5.076765
-1.850952
7.065668
1.60118
-7.764319
5.309242
1.671508
-0.0940772
-0.1834102
1.464074
2.818674
-3.285613
-1.999271
4.976671
-6.307366
-6.548361
6.571061
-9.475539
-11.66349
6.928867
-12.09245
-16.08322
6.496723
-13.95132
-19.08658
5.830064
-15.09622
-20.56265
5.2949
-15.67351
-20.79983
5.023026
-15.68927
-20.17466
5.03279
-15.24061
-18.96728
5.21327
-14.3738
-17.52324
5.450718
-13.29802
-16.08127
5.626194
-12.19838
-14.85275
5.669471
-11.31329
-13.98322
5.558956
-10.64129
-13.43182
5.29168
-10.23559
-13.12606
4.794832
-10.16365
-12.97434
3.916603
-10.51431
-13.11159
2.477237
-13.36095
-16.57538
0.5522881
-11.96684
-13.71589
-0.8291764
-9.602143
-9.804043
-2.268837
-5.172285
-9.506622
9.39459
2.032864
-9.826274
9.43556
2.869778
-1.23924
5.626281
3.61314
1.660214
1.059287
0.6591228
4.073363
-2.909722
-5.139765
5.577855
-6.785944
-11.18935
6.536106
-10.0298
-16.47331
6.445327
-12.40857
-20.14077
5.777501
-13.98143
-22.05668
5.025302
-14.97844
-22.56923
4.475668
-15.52048
-22.19362
4.227945
-15.76821
-21.21459
4.199828
-15.80993
-19.95426
4.279952
-15.769
-18.60864
4.336427
-15.69659
-17.34024
4.298847
-15.69199
-16.27529
4.066669
-15.69385
-15.41695
3.591198
-15.6758
-14.70272
2.708556
-15.67811
-14.11771
1.179452
-16.21845
-13.89055
-1.070531
-21.59555
-16.63505
-3.086083
-18.35542
-13.04021
-3.915809
-13.66679
-9.550802
-4.941871
-5.045218
-13.79386
11.80254
2.145041
-11.91472
13.85333
3.238768
-2.419776
13.08807
4.219836
0.1585547
9.766115
0.5821452
2.436582
2.91122
-2.268893
3.829467
-1.989798
-9.419004
5.429309
-6.348127
-15.58319
6.149056
-9.675224
-20.23709
5.791517
-12.02296
-22.77826
4.966234
-13.64085
-23.61742
4.211026
-14.81362
-23.38889
3.743683
-15.68591
-22.55501
3.54246
-16.39747
-21.36166
3.484099
-17.03518
-20.00357
3.438933
-17.61788
-18.66006
3.279976
-18.13638
-17.41732
2.899591
-18.50518
-16.28474
2.190304
-18.67892
-15.26073
0.8974133
-18.98814
-14.45462
-1.285225
-24.37288
-16.10976
-4.139156
-26.71903
-18.97815
-5.042416
-21.1344
-13.11386
-5.510981
-15.45371
-8.890253
-6.341246
-4.64886
-15.85006
13.57688
2.022212
-13.45405
17.24142
2.966804
-3.392573
19.13195
3.253341
-0.9240338
16.14454
2.91871
0.6508412
10.13199
-1.392986
1.633779
5.144643
-7.061852
3.477732
-0.4068041
-13.05312
5.174755
-5.291645
-18.59823
5.567014
-8.854048
-22.27464
4.969087
-11.36358
-23.74714
4.12107
-13.21608
-23.79168
3.486846
-14.69846
-23.06195
3.165732
-15.96177
-21.92356
2.993653
-17.08356
-20.58641
2.834375
-18.0883
-19.17793
2.562238
-18.92093
-17.78053
2.053148
-19.50386
-16.43038
1.117635
-19.86035
-15.21907
-0.5425399
-20.56217
-14.40941
-3.082197
-25.94726
-16.7941
-5.492226
-25.45845
-13.90211
-5.564852
-21.23228
-11.65972
-5.680311
-15.52583
-7.961884
-6.634815
-4.090201
-16.08449
14.07217
1.660896
-13.71085
19.29058
2.198375
-4.44998
21.82977
2.682078
-1.967934
23.79279
2.308032
-1.352343
21.54728
-4.540286
-0.4029304
12.30255
-3.938308
0.7823742
6.90733
-10.01613
3.126308
0.9404817
-15.35259
4.661892
-4.320278
-19.93438
4.784235
-8.08707
-22.59293
4.0734
-10.78822
-23.29167
3.338821
-12.87265
-22.85767
2.918015
-14.60389
-21.84741
2.642498
-16.09362
-20.55513
2.389101
-17.37785
-19.11347
2.017661
-18.41203
-17.62639
1.371027
-19.16654
-16.15141
0.2162122
-19.93267
-14.94114
-1.812758
-25.90404
-16.36227
-4.65608
-28.79083
-19.06486
-5.61742
-23.61073
-13.57993
-5.502278
-19.8069
-10.35539
-5.108152
-13.97988
-7.092385
-6.696519
-3.344192
-14.72589
10.27855
-8.617654
19.26068
4.363867
-11.14762
23.45962
1.813195
-3.33006
27.37468
0.8991092
-2.506128
25.11078
-0.2362136
-2.040174
17.90349
-3.95837
-1.678572
13.21896
-7.431626
0.752927
7.623242
-11.81711
2.941424
1.477306
-16.2675
3.963974
-3.822196
-19.84212
3.873391
-7.579905
-21.67994
3.173167
-10.31769
-21.8507
2.703287
-12.49196
-21.12234
2.322743
-14.2649
-19.99102
1.937264
-15.74001
-18.61538
1.407371
-16.9221
-17.16196
0.5811357
-17.87502
-15.72666
-0.6966357
-19.05513
-14.6871
-2.711656
-24.50327
-16.94253
-4.847415
-24.54365
-14.06315
-4.961326
-21.16416
-12.10805
-4.851373
-17.28997
-9.079987
-5.149596
-7.357185
-2.665149
-14.36003
-10.70138
16.96015
1.624292
-14.22057
22.6058
0.8532857
-4.685743
26.20729
0.4328242
-3.135203
29.66225
-0.4681607
-3.223018
27.38086
-7.188918
-2.628337
17.92493
-4.702471
-1.22186
12.95598
-9.071405
0.8936771
7.190004
-12.84644
2.27448
1.176835
-16.18389
3.009457
-3.774416
-18.88971
2.789137
-7.222182
-20.0422
2.306807
-9.80154
-19.8312
1.784549
-11.83337
-18.99673
1.183146
-13.51472
-17.85942
0.4013596
-14.95283
-16.78442
-0.7111631
-16.27185
-15.63606
-1.939886
-21.07238
-17.01807
-3.59039
-25.04312
-18.18006
-4.42002
-20.70156
-13.96813
-4.43658
-17.79397
-10.79515
-4.220487
-13.57725
-7.780887
-5.51582
-3.539815
-12.70259
11.00778
-9.383491
19.69548
3.365771
-11.20018
24.60885
-0.09917556
-4.381371
29.00351
-1.308277
-3.55454
27.047
-2.431327
-2.80108
25.85181
-9.128733
-1.83035
21.11973
-9.092932
-0.5371894
11.48361
-10.71494
0.1644324
5.772708
-13.12186
1.302736
0.4243277
-15.87411
1.688947
-3.814845
-17.55648
1.571412
-6.829134
-18.14817
0.8340153
-9.119391
-18.04601
-0.1347893
-11.10465
-17.43576
-1.165483
-15.03194
-20.42038
-2.44845
-17.47249
-18.93434
-3.023716
-19.71133
-20.09836
-3.444028
-18.84639
-15.37758
-3.667424
-16.63514
-12.22974
-3.949646
-13.63497
-9.091721
-4.703593
-6.330629
-3.014561
-12.07067
-9.870444
12.0823
-8.716528
20.25018
2.979306
-11.24636
24.2091
-1.151949
-4.115252
27.07006
-2.607449
-2.684838
24.1421
-4.680464
-1.520314
22.38763
-6.300854
-1.037603
17.81216
-12.39935
-0.6897751
11.09722
-12.72512
-0.1391141
4.252794
-15.90526
-0.008583694
-0.2553326
-15.41696
0.2444568
-3.731793
-16.78285
-0.47458
-6.499544
-22.11947
-1.700282
-10.40102
-20.12031
-2.431472
-14.72036
-21.58508
-2.624144
-12.82604
-18.24533
-2.583326
-14.49231
-15.6419
-2.790188
-13.62735
-13.08763
-3.154911
-11.73059
-10.01884
-4.107652
-5.802347
-3.888168
-11.1318
-8.816908
11.9294
-8.950098
19.31596
2.397405
-10.93591
21.94305
-1.93257
-3.301967
22.02093
-3.202956
-1.555382
21.89009
-5.048694
-1.121319
17.63903
-7.493379
-0.654917
15.54365
-10.067
-0.5627394
9.324952
-15.18056
-0.6091139
3.977429
-16.8257
-0.791816
-0.9947091
-18.87103
-1.283738
-7.542219
-20.27688
-1.719003
-6.302711
-19.35636
-2.003453
-8.524807
-17.13053
-2.232453
-9.294612
-15.32721
-2.148317
-9.546935
-13.17029
-2.219285
-8.826435
-10.5319
-3.276234
-4.256981
-4.745684
-9.842612
-8.145149
11.01393
-8.616526
16.81973
1.894422
-9.632791
18.329
-2.335335
-2.376895
18.2557
-3.537255
-1.438138
16.55662
-5.137786
-0.6565097
14.53797
-7.351627
-0.6967175
10.00369
-9.872388
-0.7738863
6.370731
-12.11774
-1.075006
2.808983
-13.8459
-1.463382
-0.7256955
-14.92359
-1.818611
-3.323281
-14.92913
-1.829645
-4.613031
-14.02095
-1.81983
-5.352875
-12.37095
-2.216414
-5.53872
-9.991852
-2.992592
-2.435518
-5.128083
-8.507017
-7.181203
9.539251
-7.644829
10.98851
-3.784597
13.93505
1.234429
-7.718221
13.45519
-3.221899
-1.436028
11.88156
-4.72314
-1.05486
9.522717
-6.242319
-1.271222
6.868979
-7.765295
-1.69871
4.228598
-9.077524
-2.127995
1.746727
-9.985298
-2.456422
-0.2643792
-10.2847
-2.633327
-1.640132
-9.677282
-2.967916
-0.2677879
-5.998113
-7.745186
-1.665486
-8.594154
-6.79357
7.805761
-6.571332
8.268475
-3.684613
7.662458
-4.117123
6.555672
-5.135533
5.195167
-6.404791
3.744838
-7.627195
2.383547
-8.624007
1.188094
-9.089245
0.2885404
-8.777729
-5.709573
-2.701385
9.405992
-6.704608
-2.931386
13.62158
-13.39158
-2.849958
15.39808
-15.47951
-2.708161
16.56345
-16.70524
-2.486345
17.41286
-17.63467
-2.087534
17.76033
-18.15914
-1.583151
16.88442
-17.3888
10.48106
-12.06421
-3.096184
8.319151
-5.222968
-3.935693
12.18487
-11.34537
-6.210253
14.27981
-12.00525
-3.924277
16.81989
-9.69987
-3.966905
18.96256
-5.298354
-3.717325
20.56852
-5.420014
-3.392138
22.19066
-5.952404
-3.026947
23.8003
-6.752631
-2.582297
25.14559
-7.829911
-2.062596
25.72591
-9.361193
2.694197
24.67771
-18.95345
0.2698487
22.15358
-19.72923
0.5443168
18.75281
-19.02728
11.43829
-10.89397
-4.894544
8.95214
-4.057596
-3.719937
13.20922
-6.064681
-4.721613
16.3247
-3.138149
-4.626665
17.1646
-2.979736
-3.994
18.96941
-2.782186
-3.431869
20.9009
-2.500471
-2.91843
22.78591
-2.730836
-2.403588
24.98942
-3.313595
-1.879905
27.49694
-4.220328
-1.321002
30.01983
-5.433151
-0.5948476
31.93218
-6.932424
0.5141912
32.30017
-8.731493
1.040639
31.31173
-9.684594
0.8148397
29.06919
-10.09058
4.672567
23.08388
-15.50332
14.38405
-9.711484
-2.374397
7.146206
-4.771809
-4.450199
10.29926
-8.223459
-3.251182
13.20968
-5.456557
-2.62599
14.26501
-1.68098
0.7525724
13.4472
-0.5010609
-0.7806086
14.93216
0.2404911
-0.3393498
12.74509
0.2992652
0.1102074
14.03616
0.2818436
0.4203863
15.60912
-0.01838649
0.7246231
17.42058
-0.6391287
1.139841
19.44824
-1.589312
1.645112
21.56813
-2.833203
2.12113
23.50002
-4.245126
2.318374
25.06233
-5.582189
-2.718261
34.81439
-6.210854
3.325278
30.35372
-7.328075
4.246963
30.59155
-8.42936
6.919713
26.42919
-14.71789
3.404223
18.44257
-14.92708
10.85425
-7.450028
-2.824178
6.77523
-3.951052
-1.114336
10.40586
-4.969494
-0.9115903
11.76333
-1.666815
2.110323
10.75146
-0.5636914
2.815705
9.965936
0.6462754
4.280979
7.858259
1.406634
5.937793
8.162919
2.187358
6.491324
9.405025
2.832465
6.498799
11.0583
3.100133
5.994405
12.97669
3.103352
5.35647
14.96656
2.872803
4.89314
17.08155
2.36676
4.727056
19.35655
1.54333
4.755392
21.68441
0.4277696
4.794129
23.75387
-0.9428301
9.436638
25.34826
-2.819757
6.853605
25.93457
-4.34946
1.796389
34.39838
-5.05397
6.858282
27.20709
-5.839794
5.087809
25.91294
-5.699901
6.083247
17.9088
-8.049992
10.41294
-4.329693
-1.859272
5.806756
-3.947484
0.2695843
9.212132
-4.565758
1.409822
10.44761
-1.181984
4.493957
8.630544
0.04865146
6.716185
5.024619
1.116787
9.35764
2.863603
1.939512
12.04512
2.483054
2.654448
14.06139
3.14873
3.147674
15.05192
5.053937
3.600511
14.77951
7.41817
3.886416
13.62381
9.927792
4.20245
12.05803
12.30867
4.518268
10.48187
14.6077
4.680396
9.295854
16.93906
4.516369
8.609784
19.48092
3.887686
8.103357
22.05139
2.822506
7.817284
24.01684
1.228555
7.536941
25.01961
-0.2822685
12.55823
25.83115
-1.888184
5.07866
33.50262
-2.468302
9.024084
24.69128
-2.723762
6.465102
22.9317
-2.463916
6.097143
14.50859
-3.727689
7.377266
-1.280122
1.588191
6.619862
-2.401297
3.021626
9.115387
-1.33669
6.095458
7.38171
-0.007937069
10.06924
1.807307
1.075806
12.33546
-1.068908
1.720588
15.68915
-2.943421
2.101071
19.01782
-3.422517
2.195106
21.40815
-2.277397
2.042889
22.72729
0.3525755
2.080659
22.50475
3.681351
2.344757
20.97191
6.780263
2.9643
18.90701
9.779055
3.975403
16.68038
12.40215
4.988738
14.76139
15.02561
5.660589
13.16251
17.25552
5.591274
11.81054
19.6425
4.94934
10.79594
21.98495
3.867684
9.867798
23.65202
2.715379
9.564344
24.45128
1.298543
15.24338
24.44213
0.07495989
7.516913
30.42646
-0.1479499
10.25681
20.42268
-0.2308834
6.633043
17.65969
0.4726713
9.943038
4.067271
0.2697116
5.182858
-5.45257
4.342023
8.181606
-5.634055
6.87718
7.321028
-0.7407978
10.67979
1.276737
0.8467055
11.91135
-2.514557
1.693089
14.4036
-5.769933
2.060291
16.96106
-7.731026
1.99199
19.70381
-8.069157
1.690456
22.21838
-6.868645
1.189133
24.16951
-4.197801
0.7389969
25.08638
0.1746145
0.7420179
24.02547
4.574297
1.346388
22.38566
8.168057
2.715113
20.48048
10.92593
4.222885
18.85208
13.20078
5.464722
16.71933
15.18037
5.998387
14.95003
17.6138
6.058093
13.33482
19.64818
5.400935
11.83444
21.36798
4.550004
10.94211
22.48039
3.600067
10.67958
22.44679
2.623352
16.3176
21.33822
1.984379
9.185414
24.85104
2.022918
10.59731
14.11608
2.131705
7.180912
11.17798
2.181459
5.789066
1.391846
0.9544668
4.582317
-5.536784
5.250947
7.106561
-6.220183
8.248641
6.841201
-1.657289
10.04458
3.264507
0.1374321
10.3313
-1.760986
1.539376
11.74706
-6.011221
2.483386
12.8068
-9.261144
2.794527
13.79551
-11.07285
2.827742
15.05432
-11.50865
2.755068
16.72552
-10.32775
2.535221
18.30755
-7.813836
2.125782
20.14095
-3.570799
1.84928
20.9327
1.871514
1.877363
20.62474
6.502237
2.761668
19.68948
9.558154
4.023807
18.44867
11.67624
5.26649
16.8798
13.35085
6.137688
15.59402
15.1788
6.576318
13.8277
17.02096
6.348953
12.32618
18.95375
5.959794
11.35211
19.8452
5.311401
11.0578
19.73184
4.669856
11.25195
18.28507
4.23141
17.15653
15.74702
4.197814
13.44773
15.10452
4.761101
10.90534
8.73186
4.988507
6.228227
4.153329
6.312852
1.827872
4.400355
5.358891
4.920596
-5.69717
8.186264
6.919545
-2.640357
9.302932
6.740776
-1.016242
9.255737
-0.5221458
0.7372687
9.658671
-4.072485
2.511857
9.416941
-8.240098
3.643791
8.33692
-11.12214
4.09311
7.288411
-12.63635
4.388815
6.432274
-12.9769
4.576142
6.403587
-12.50784
4.591957
7.323302
-10.99119
4.497779
9.485712
-7.951501
4.498434
12.03177
-2.700456
4.457859
13.34101
3.352759
4.721484
13.74709
7.119961
5.445291
13.53988
9.484128
6.251855
12.87875
11.16432
6.946536
12.0149
12.71725
7.350027
11.01747
14.17857
7.326098
10.45024
15.54342
7.080723
10.35175
16.23798
6.684576
11.14757
15.50451
6.340946
12.4718
13.46195
6.292688
14.38412
10.47283
6.747968
19.53743
10.92061
7.686205
20.21951
0.1109588
7.938826
13.11566
2.845313
8.411862
1.663608
13.27993
7.830646
3.733871
-6.643921
11.40749
5.831419
-2.488721
11.87859
4.044614
-0.651569
9.17728
-0.5283286
1.324723
7.897108
-4.926811
3.585063
5.349227
-8.485741
4.982835
2.064529
-10.75495
5.704934
-0.9418125
-12.30514
6.26169
-3.245638
-13.27732
6.622806
-4.658023
-13.79164
6.734249
-5.169465
-13.31291
6.861084
-4.575619
-11.44989
7.175446
-2.033465
-8.027899
7.796591
1.336048
-2.536803
7.889147
3.516705
2.486038
7.927281
4.696001
5.678663
8.130373
5.343688
7.605563
8.345407
5.665254
9.116901
8.400027
5.962965
10.22154
8.25856
6.807848
10.75
8.024654
8.842552
10.41369
7.907332
11.91705
8.333789
7.984999
15.78425
5.518719
8.558992
19.5102
2.505353
9.565123
30.86787
-0.09801034
10.75448
29.54111
-0.9459396
11.39231
20.01608
0.8732987
11.49705
4.173552
17.50613
3.487057
3.498469
-6.985526
10.61374
5.553771
-8.946582
13.47029
5.603202
-2.628333
10.15865
3.511577
-0.6445026
8.511457
-0.6102484
2.186751
5.497219
-4.313347
4.804575
0.6731397
-6.784737
6.394073
-4.1078
-8.784329
7.404276
-7.642869
-11.09928
8.197062
-10.35893
-13.34452
8.488807
-12.42427
-14.82751
8.454269
-13.8484
-15.14202
8.502773
-14.51208
-14.11954
8.765256
-14.16233
-11.73453
9.207202
-11.83946
-8.192731
9.586976
-8.479528
-4.155131
9.687884
-5.474192
-0.6157368
9.586889
-3.181142
1.893722
9.461409
-1.111524
3.407868
9.331712
1.37215
3.838503
9.154092
4.850906
3.066608
9.135483
9.481416
1.575532
9.574197
14.53931
-0.5894838
10.56303
18.8204
-2.865213
11.56475
21.22174
-4.655176
12.32195
22.01558
-5.239002
12.95348
28.37376
-5.073807
12.64274
19.57732
-1.174651
10.84439
7.830133
1.631431
14.28931
2.09329
5.736843
8.564379
3.688025
-8.753935
13.02891
5.338865
-4.249623
15.79551
5.441434
-2.604832
10.9966
3.882468
-0.7896013
8.180486
0.4133034
2.567817
3.426969
-2.150846
5.664339
-2.610153
-3.852883
7.561332
-7.175944
-6.943934
8.873847
-10.36381
-10.69318
9.4938
-12.91926
-13.90959
9.474411
-14.94653
-16.08464
9.218845
-16.41609
-16.97595
9.100975
-17.26734
-16.56733
9.260603
-17.33894
-14.99639
9.647584
-16.35868
-12.5707
10.10289
-14.20975
-9.782916
10.47283
-11.16312
-7.228734
10.66881
-7.68157
-5.232197
10.69828
-3.880086
-4.15839
10.70512
0.1038737
-4.052283
10.83551
3.870871
-4.706795
11.31956
7.311043
-5.721571
11.93842
10.2937
-7.194978
12.27978
11.52989
-8.439525
11.99121
11.48958
-9.017659
11.54255
10.26222
-8.530808
10.92261
12.3039
-8.024468
9.264151
6.618428
-2.427188
6.938011
2.150006
1.846904
4.252948
2.831682
1.411615
10.66805
3.544926
-10.52495
15.34407
5.111946
-4.449097
18.33343
5.513279
-3.061205
12.4975
4.852267
-1.349598
8.978934
2.167922
2.391003
3.558956
0.5967668
5.899355
-2.393132
-1.056885
8.185659
-6.570228
-5.453966
9.723035
-9.834188
-10.50371
10.12726
-12.45698
-14.61433
9.855991
-14.41955
-17.4628
9.330439
-15.71605
-18.89781
8.931925
-16.36071
-19.02048
8.841743
-16.30644
-18.08698
9.054945
-15.47167
-16.43465
9.456537
-13.8532
-14.46804
9.884241
-11.6217
-12.58454
10.21178
-9.000357
-11.06284
10.37972
-6.358253
-10.09673
10.41484
-4.146164
-9.641279
10.37282
-2.605889
-9.667275
10.27639
-1.590336
-10.09176
10.08105
-1.11825
-10.69055
9.772447
-1.887637
-11.38106
8.809002
-3.524914
-11.23558
7.612365
-5.698617
-10.15479
5.817217
-8.916278
-9.522727
2.864968
-8.186557
-3.935563
0.7786542
-5.611769
0.4408175
-1.168702
2.160783
-4.94087
12.26424
3.384034
-12.10335
17.57334
4.946113
-5.143271
21.30052
5.67027
-3.884172
14.84683
5.871038
-2.329393
11.45552
3.877704
1.587444
6.428164
3.089532
5.353268
0.9026912
1.415351
8.029909
-4.037578
-3.652875
9.710238
-7.918012
-9.948693
10.25429
-10.99077
-15.00686
9.962013
-13.25138
-18.6032
9.23107
-14.75078
-20.60305
8.499547