/*--------------------------------*- C++ -*----------------------------------*\
  =========                 |
  \\      /  F ield         | OpenFOAM: The Open Source CFD Toolbox
   \\    /   O peration     | Website:  https://openfoam.org
    \\  /    A nd           | Version:  6
     \\/     M anipulation  |
\*---------------------------------------------------------------------------*/
FoamFile
{
    version     2.0;
    format      ascii;
    class       volScalarField;
    location    "50";
    object      alphat;
}
// * * * * * * * * * * * * * * * * * * * * * * * * * * * * * * * * * * * * * //

dimensions      [1 -1 -1 0 0 0 0];

internalField   nonuniform List<scalar> 
203709
(
0.5525972
0.8778872
0.867372
0.5362032
0.6147264
1.018985
1.352007
1.667594
1.647659
1.3056
0.9614253
0.5786122
0.5968411
1.05317
1.478576
1.875002
1.982887
2.032086
2.004959
1.903394
1.753691
1.349609
0.968671
0.5693494
0.5164711
1.284499
1.789009
2.041015
2.16562
2.216172
2.225562
2.20056
2.14554
2.062296
1.925436
1.735407
1.259454
0.5757781
0.8157085
1.586615
1.895488
2.127402
2.261898
2.30784
2.31331
2.292765
2.255079
2.203972
2.12525
1.993444
1.73273
0.9690389
0.5330627
1.248959
1.838765
2.077858
2.220902
2.324325
2.388176
2.393894
2.352593
2.306005
2.255611
2.192613
2.092566
1.88447
1.320001
0.561974
0.9189139
1.676475
1.967635
2.108413
2.185934
2.247841
2.311857
2.361703
2.352319
2.318002
2.263144
2.182305
2.053457
1.860529
1.554996
0.8306034
0.5050398
1.234354
1.783206
1.985221
2.071099
2.109001
2.116871
2.110357
2.097258
2.07858
2.049222
2.006743
1.962224
1.908181
1.818959
1.63732
1.13909
0.4682503
0.8325188
1.468329
1.737397
1.914385
2.025112
2.084005
2.102252
2.091453
2.063422
2.03326
2.006553
1.978735
1.952113
1.91951
1.854801
1.722578
1.449985
0.7757896
0.8760082
1.532394
1.765559
1.90352
2.006869
2.082043
2.121478
2.11858
2.088022
2.04939
2.014806
1.983567
1.956818
1.925044
1.860246
1.728216
1.455906
0.7707982
0.5577656
1.302628
1.81907
2.006317
2.095758
2.144202
2.169086
2.173135
2.153013
2.109537
2.056052
2.008401
1.969114
1.923817
1.841264
1.667809
1.180489
0.4800646
0.9843721
1.74367
2.006228
2.128289
2.187025
2.214056
2.219771
2.207363
2.172982
2.121295
2.062536
2.000188
1.92579
1.802166
1.559412
0.8678049
0.6084457
1.374488
1.918639
2.104622
2.188586
2.227565
2.239103
2.230504
2.203556
2.160658
2.101282
2.023468
1.913936
1.723801
1.224616
0.5353796
0.9911532
1.756123
2.010243
2.134143
2.195856
2.220123
2.21608
2.192463
2.151872
2.086129
1.992046
1.843493
1.590587
0.8913314
0.6047066
1.302348
1.781817
1.964695
2.083058
2.139448
2.15158
2.128981
2.076807
1.983246
1.842429
1.634709
1.184892
0.5425857
0.6130564
1.026008
1.412845
1.815594
1.938941
1.996271
1.975244
1.884517
1.721841
1.328722
0.9249689
0.5531848
0.6293402
1.028753
1.36402
1.681852
1.662218
1.330748
0.9605903
0.5876618
0.5716218
0.9076309
0.8952077
0.5632528
0.5916832
0.9364791
0.989719
0.9998425
0.9891422
0.9699142
0.9437397
0.9030846
0.8253032
0.4970172
0.6173129
1.055799
1.443958
1.797231
1.886897
1.929645
1.929431
1.896454
1.835174
1.744268
1.613007
1.24821
0.8764945
0.4985994
0.649604
1.404221
1.936582
2.149096
2.310191
2.425384
2.541203
2.602472
2.562896
2.43182
2.265646
2.104537
1.897323
1.649826
1.175067
0.5143774
0.6498249
1.458563
2.041704
2.401428
2.619461
2.853444
3.149279
2.786187
2.765219
2.722494
2.597874
2.952362
2.623179
2.351571
2.100356
1.765894
1.224956
0.5185321
0.6163509
1.437837
2.074918
2.441347
2.881569
3.319831
3.137072
3.332764
3.081368
3.030096
2.966742
2.818369
3.02989
2.881676
3.025134
2.600256
2.208514
1.825479
1.213632
0.5052809
0.5658631
1.331549
1.972003
2.374559
2.936342
3.227371
3.725071
3.667255
3.757014
3.556384
3.421559
3.311245
3.165749
3.248833
3.171048
3.261986
2.577807
2.83963
2.278121
1.837802
1.203187
0.4970858
0.9298746
1.755088
2.196857
2.689813
3.476319
4.275028
5.006575
5.041487
4.86737
4.487942
4.132416
3.862355
3.647123
3.584018
3.502273
3.457035
2.704823
1.80003
2.755503
2.255607
1.784181
0.9390098
0.5376935
1.312556
1.958447
2.497883
3.442235
3.914593
5.796061
7.041756
7.439732
7.031273
6.25283
5.475032
4.931538
4.556294
4.337945
4.184757
4.015391
3.452889
2.060891
3.426516
2.68255
2.152174
1.391948
0.5358643
0.8627052
1.661845
2.235731
3.016501
3.261887
4.387346
6.293011
7.500699
8.547079
9.245617
8.988166
7.834694
6.929256
6.296156
5.899963
5.699227
5.531067
5.148409
3.778195
2.640338
3.324725
2.53972
1.857268
0.9012718
0.934949
1.798617
2.473564
3.446765
2.850803
4.265886
5.046867
5.565151
6.224072
7.207181
8.310501
8.936171
8.813187
8.477271
8.071355
7.675864
7.144606
6.301294
5.240575
3.721853
3.764593
2.574998
1.848625
0.8729737
0.991722
1.87318
2.644246
3.179311
2.943621
3.908872
4.237395
4.452717
4.706532
4.945538
5.158585
5.356801
5.49346
5.514281
5.359638
5.087346
4.74108
4.347959
3.894419
3.238473
2.519428
2.432979
1.796792
0.8720634
1.027206
1.965728
2.699892
3.171791
3.119788
3.841326
4.199002
4.420062
4.672294
4.881013
4.919971
4.781533
4.540239
4.287021
4.066199
3.88049
3.709587
3.534492
3.343774
3.079153
2.682473
2.456495
1.841943
0.9622394
1.037419
2.014424
2.720322
3.023089
3.129031
3.473087
3.629995
3.744406
4.063503
4.452439
4.711199
4.758919
4.621496
4.363057
4.075834
3.818246
3.60897
3.421943
3.246604
2.990892
2.637535
2.387212
1.763697
0.8976573
1.026937
1.990792
2.621414
2.855588
2.959174
3.090395
3.102334
3.192625
3.401019
3.656403
3.909865
4.12565
4.240798
4.208778
4.060281
3.857413
3.665946
3.469262
3.267681
3.059536
2.689014
2.249554
1.689874
0.8602373
0.99497
1.907374
2.451197
3.170492
3.154762
3.190732
3.202258
3.193429
3.222665
3.298152
3.402878
3.517934
3.624146
3.694778
3.705134
3.645293
3.545633
3.390981
3.118654
3.039699
2.783411
2.124376
1.631453
0.8278067
0.9214476
1.774809
2.282097
2.809834
2.98233
3.076027
3.123111
3.16359
3.190429
3.214047
3.236819
3.258643
3.278768
3.292668
3.297643
3.280881
3.245755
3.138129
2.785216
2.936797
2.507171
2.022462
1.558052
0.7885976
0.5709721
1.401114
2.080301
2.536734
3.196869
3.289229
3.328734
3.312839
3.28483
3.263783
3.236447
3.203305
3.161356
3.110762
3.066842
3.019912
2.99153
2.868413
2.320566
2.882945
2.278064
1.871477
1.249823
0.5006989
1.017117
1.864526
2.327734
2.814223
2.972314
3.083855
3.175674
3.225397
3.24205
3.235254
3.195599
3.125454
3.030086
2.965134
2.889772
2.888568
2.734236
2.594396
2.505716
2.088017
1.687066
0.9174196
0.6104087
1.400733
2.05458
2.48804
3.045888
3.088851
3.20631
3.256672
3.287002
3.259197
3.182297
3.08979
2.952323
2.914473
2.811451
2.857922
2.696921
2.674551
2.209179
1.849289
1.274725
0.554443
0.6661018
1.513969
2.177134
2.56697
2.952368
3.381885
3.251048
3.27797
3.205541
3.0989
2.974314
2.801389
2.867143
2.760789
2.972276
2.586014
2.262688
1.945593
1.374241
0.6095358
0.6943453
1.549358
2.156884
2.467328
2.695117
2.953946
3.275142
3.013826
2.911255
2.823244
2.693952
3.039502
2.695708
2.439497
2.242487
1.984437
1.442643
0.6508601
0.6738045
1.455552
1.960497
2.197618
2.392194
2.530957
2.67264
2.760887
2.739497
2.610796
2.442419
2.299553
2.127872
1.938037
1.476064
0.6834346
0.6198663
1.052201
1.467565
1.857319
1.980116
2.0592
2.10053
2.106004
2.076355
2.016462
1.929821
1.568677
1.171165
0.7048185
0.5886462
0.9682458
1.052446
1.095098
1.121735
1.140163
1.150958
1.149428
1.112744
0.7034361
0.5826592
0.9242929
0.9683799
0.957949
0.9276141
0.882269
0.798815
0.4774414
0.6357368
1.113382
1.266156
1.598029
1.914692
1.944105
1.909232
1.852416
1.779908
1.666221
1.314106
0.9819899
0.823214
0.4664762
0.7688356
1.63126
2.228055
2.475861
2.627502
2.685528
2.675333
2.619019
2.548465
2.469311
2.365192
2.207279
1.962847
1.684583
1.217156
0.5616139
0.6535758
1.215154
1.879767
2.623715
3.183531
2.727056
2.752836
2.794279
2.779147
2.720102
2.653653
2.578678
2.483779
2.367613
2.273642
2.464398
1.99722
1.383474
0.8631498
0.4685948
0.6561308
1.534815
2.312744
2.953301
2.826909
3.320625
2.939232
2.942078
2.965407
2.952595
2.900539
2.847926
2.788098
2.711711
2.629912
2.553279
2.555489
2.219293
2.196093
1.65038
1.089504
0.4677034
0.6158798
1.490046
2.29673
3.055588
3.081043
3.000863
3.528871
3.211717
3.157384
3.164143
3.159568
3.117516
3.075069
3.025068
2.952611
2.885445
2.837799
2.806621
2.489166
2.370724
2.203253
1.618217
1.031849
0.4400415
1.097205
2.140563
2.931296
3.132323
3.224669
3.221694
3.72012
3.518878
3.444069
3.431284
3.42024
3.379233
3.336861
3.288511
3.225674
3.178413
3.15732
3.191339
2.903627
2.779178
2.537276
2.154966
1.603824
0.836247
0.6853995
1.683198
2.696133
2.987003
3.278584
3.466072
3.520687
4.000066
3.93936
3.876347
3.83206
3.781942
3.719921
3.670351
3.626746
3.589263
3.556571
3.550844
3.61575
3.372806
3.22689
2.793945
1.744424
2.331039
1.377227
0.5157622
0.5445785
1.453474
2.33746
2.779373
3.172001
3.625436
3.968483
4.176337
4.689699
4.772916
4.714197
4.59934
4.45039
4.282085
4.147036
4.058303
4.019571
3.982143
3.985899
3.878932
3.795328
3.565813
3.122006
2.206038
1.404895
2.15014
1.18507
0.3872431
0.9369493
1.940784
2.812175
3.002201
3.612012
4.230428
4.832894
5.383007
6.150554
6.507855
6.460468
6.142633
5.712602
5.28789
4.953722
4.726387
4.602077
4.52192
4.470815
4.169456
3.57507
3.592992
3.342034
2.901434
1.813305
2.765755
1.810753
0.7559644
1.085402
2.192652
2.920179
3.387563
4.228957
5.078479
5.93463
6.830605
8.247665
9.243633
9.496809
9.01584
8.13985
7.203391
6.498644
6.017586
5.721915
5.538839
5.377942
5.004444
4.066359
4.042066
3.768192
3.342703
2.389456
1.506799
2.160806
0.9785406
0.513015
1.429766
2.41186
3.075756
3.835519
4.807271
5.632702
6.428273
7.619208
9.199208
10.53479
11.65372
12.25463
11.81622
10.50481
9.399192
8.584868
8.052451
7.783584
7.609488
7.323148
6.535432
5.403715
4.908984
4.212447
3.330883
1.892196
2.410654
1.305824
0.393374
0.8440767
1.766566
2.535878
3.163041
4.173522
5.081751
5.552826
5.877602
6.692891
7.354208
8.011261
8.935089
10.19593
11.49692
12.19424
12.05972
11.64248
11.09444
10.52919
9.837395
8.789447
7.633123
6.351834
5.812976
5.00605
3.995296
2.227789
2.490964
1.644587
0.7255392
0.918014
1.847207
2.592175
3.133507
4.232176
5.140712
5.258433
5.199714
5.594405
5.766014
5.964917
6.285925
6.671227
7.038462
7.357089
7.556867
7.565527
7.356314
7.003143
6.58788
6.172745
5.779279
5.381942
5.086314
4.872602
4.35199
3.202911
2.725667
1.853623
0.8279918
0.9505766
1.883682
2.616586
3.063636
4.024136
4.946894
5.141107
4.944148
5.291671
5.543447
5.805256
6.084361
6.37136
6.486614
6.384718
6.133566
5.836185
5.564783
5.336972
5.147504
4.98217
4.839727
4.697979
4.499718
4.231413
3.840255
3.253545
2.538346
1.693877
0.7431861
0.9663851
1.906285
2.631109
3.007039
3.753776
4.519824
4.849726
4.798582
4.905001
4.943343
4.944624
5.216997
5.663753
6.007737
6.125204
6.009924
5.723468
5.380699
5.066009
4.820624
4.62357
4.459556
4.291425
4.040854
3.715836
3.315414
2.82086
2.32425
1.581911
0.7345832
0.9626847
1.910636
2.635869
2.972483
3.537193
4.11911
4.448224
4.526034
4.532335
4.383216
4.253019
4.34249
4.559623
4.828301
5.0914
5.258902
5.261533
5.117729
4.899721
4.687479
4.485045
4.286532
4.093583
3.838404
3.545125
3.183983
2.75622
2.229636
1.515814
0.698735
0.9062923
1.858307
2.607827
2.933413
3.384756
3.824899
4.124455
4.247733
4.235051
4.128773
4.018371
4.004939
4.074097
4.185495
4.304169
4.409223
4.479917
4.494148
4.443776
4.354992
4.22905
4.041436
3.854778
3.605777
3.361116
3.03946
2.772308
2.228303
1.485575
0.6512896
0.558646
1.530658
2.515632
2.840856
3.237569
3.609976
3.892251
4.052307
4.085719
4.020886
3.972624
3.953572
3.96517
3.988507
4.00553
4.008432
3.996632
3.975273
3.945387
3.913204
3.855129
3.704246
3.570523
3.332455
3.133116
2.818222
2.666803
2.210327
1.254088
0.4253049
1.21806
2.348979
2.686469
2.995811
3.366415
3.664054
3.875073
3.995563
4.04438
4.048449
4.05479
4.04203
4.008632
3.953842
3.882956
3.802464
3.725564
3.657036
3.608398
3.549088
3.398131
3.297687
3.109854
2.963748
2.624685
2.728923
2.086584
1.012363
1.082834
2.130274
3.02939
3.183694
3.429153
3.672962
3.893981
4.074258
4.185295
4.22267
4.203445
4.14562
4.067192
3.964704
3.849921
3.730329
3.625583
3.530044
3.458664
3.38143
3.264146
3.110724
2.989507
2.901896
2.462724
2.802986
1.912004
0.9174983
0.6194514
1.598672
2.559897
2.903539
3.180351
3.483842
3.747408
3.96462
4.11936
4.200735
4.210858
4.150034
4.048366
3.938282
3.813969
3.683288
3.577119
3.466382
3.370716
3.29649
3.164362
3.039892
3.006159
2.987204
2.831772
2.432817
1.474503
0.5527054
0.7591742
1.882983
2.974079
3.244879
3.499849
3.773426
3.973391
4.093022
4.143968
4.130178
4.060622
3.949177
3.837508
3.733415
3.616334
3.526601
3.413853
3.281969
3.25791
3.113179
3.0803
3.143725
3.129622
2.963831
1.831144
0.7249933
1.24298
2.378896
3.18445
3.420046
3.644023
3.805065
3.885092
3.90397
3.87747
3.823101
3.747284
3.66829
3.597401
3.529643
3.457446
3.351959
3.187019
3.288456
3.150674
3.230713
3.352497
3.385216
2.492502
1.259288
0.6578558
1.593816
2.412932
3.127258
3.27202
3.40275
3.518954
3.559972
3.559493
3.541155
3.517733
3.490507
3.468193
3.442491
3.391398
3.293285
3.154028
3.475035
3.281206
3.467179
3.698915
2.822224
1.818459
0.7367901
0.6676553
1.56758
2.282726
2.920666
2.953841
3.173864
3.223197
3.258828
3.289277
3.323903
3.358102
3.386453
3.403377
3.385761
3.329228
3.257849
3.839198
3.465414
3.807605
2.977526
1.997492
0.8334534
0.6266024
1.15434
1.819986
2.543501
3.06811
2.882204
2.959364
3.067811
3.177219
3.27764
3.367732
3.447157
3.494255
3.509172
3.448143
4.349105
3.585027
2.579247
1.652684
0.8777201
0.7188289
1.556689
2.124165
2.470033
2.781259
2.991526
3.161844
3.314229
3.457577
3.59591
3.716789
3.785667
3.605943
3.249549
2.361889
1.097574
0.5951196
1.077798
1.306261
1.76652
2.255843
2.466617
2.631436
2.760277
2.86007
2.897477
2.490369
1.974592
1.714005
0.9456056
0.6783803
1.165688
1.32784
1.434525
1.501165
1.535348
1.493963
0.9486782
0.6135582
0.9779853
1.009199
0.9791208
0.8979744
0.5409404
0.6535913
1.152307
1.34887
1.521142
1.905868
2.253836
2.254419
2.180074
2.047174
1.635343
1.210693
1.02552
0.8502775
0.4884782
0.6519155
1.270291
1.922789
2.606751
2.960199
2.047347
2.304722
2.50472
2.433618
2.306452
2.122309
1.83638
1.694563
2.204444
1.874085
1.359533
0.8794769
0.4621897
0.7671742
1.758216
2.716828
2.444114
3.047099
3.189651
2.513576
2.734272
2.79384
2.665223
2.513364
2.337156
2.144458
2.068759
2.18778
1.916925
1.705263
1.855918
1.220164
0.5357667
0.8393528
1.967105
3.051145
3.114337
2.948946
3.558867
3.571181
3.016577
3.072541
3.035166
2.887086
2.746371
2.60929
2.49455
2.465072
2.453763
2.247795
2.109456
2.110827
2.114442
1.365277
0.5965128
0.8526828
2.076639
2.413864
3.389255
3.507093
3.518632
3.979457
3.891907
3.394232
3.339179
3.256035
3.123677
3.023258
2.944087
2.899656
2.90436
2.856501
2.673234
2.495564
2.278245
1.979061
1.601293
1.441243
0.5997786
0.8034578
2.052278
2.460758
2.826289
3.757073
3.932458
3.944826
4.307287
4.166016
3.686585
3.566169
3.475726
3.378882
3.330391
3.309013
3.321682
3.357053
3.297595
3.098413
2.853263
2.536671
2.167362
1.839033
1.652869
1.437127
0.5918944
0.6892938
1.847205
2.328797
2.792344
3.222389
4.000738
4.214722
4.239092
4.55655
4.427089
3.966533
3.802251
3.714612
3.645503
3.634328
3.647277
3.706409
3.797605
3.753365
3.51857
3.193091
2.799426
2.399269
2.117597
1.961992
1.770649
1.397953
0.5301923
0.5711899
1.58839
2.815032
2.661265
3.079638
3.469389
4.137637
4.387609
4.445225
4.762071
4.705533
4.315191
4.117785
4.016636
3.951395
3.97259
4.036612
4.133332
4.257802
4.262531
4.050801
3.729241
3.341578
2.919225
2.604823
2.383396
2.309903
2.285901
1.231382
0.4293321
1.079335
2.367632
2.898709
2.896153
3.259947
3.593833
4.218662
4.525654
4.662682
5.034308
5.102329
4.837269
4.632063
4.50153
4.414677
4.402639
4.453203
4.538078
4.654264
4.731468
4.593103
4.294459
3.936982
3.316714
2.561061
2.54662
2.550131
2.350567
1.957488
0.8390348
0.5545021
1.650431
2.337809
3.024455
3.09636
3.343886
3.660271
4.398693
4.851044
5.150535
5.620087
5.817021
5.691485
5.476313
5.257381
5.069122
4.958849
4.935917
4.972122
5.040665
5.12105
5.020832
4.810424
4.500157
3.971867
3.200463
2.496298
3.35466
2.95314
2.216103
1.336307
0.4197022
0.9674736
2.210532
2.510969
3.125222
3.208144
3.431664
3.91544
4.860439
5.594534
6.215365
6.949245
7.354185
7.335747
7.030579
6.604723
6.186477
5.869836
5.68191
5.600996
5.581666
5.587157
5.425189
5.018257
4.728987
4.371444
3.940062
3.231342
3.693667
3.914289
2.867718
1.956692
0.7648647
1.164655
2.549118
2.7073
3.209781
3.306774
3.668074
4.502311
5.76853
6.893379
8.016047
9.370521
10.29736
10.54155
10.11566
9.292451
8.379601
7.666862
7.183203
6.896364
6.738258
6.616518
6.364083
5.788788
5.395127
4.93577
4.452336
3.856347
3.374453
3.901534
3.125959
2.44419
0.988225
1.359219
2.190858
2.78576
3.272113
3.458872
4.081406
5.375715
6.801085
8.082202
9.492581
11.06694
12.44632
13.53222
14.0241
13.51583
12.27315
11.1784
10.34955
9.808961
9.549315
9.419589
9.195827
8.555576
7.483042
6.507617
5.49866
4.544661
3.624083
3.724998
3.072287
2.178535
1.236017
0.5793699
1.819802
2.28326
2.847746
3.318659
3.614927
4.516207
6.112163
7.222034
7.991839
8.743092
9.41278
10.19142
11.29409
12.64597
13.90937
14.52633
14.3675
13.92779
13.31569
12.63484
11.77226
10.61789
9.477336
8.353905
7.557115
6.612086
5.387203
3.878301
3.575618
3.297972
2.324397
1.739642
0.4099597
0.9570901
2.217693
2.477481
2.925549
3.365797
3.732179
4.729708
6.38536
7.08721
7.138382
7.181059
7.17633
7.319916
7.661328
8.149606
8.65109
9.067067
9.289514
9.247207
8.975122
8.556371
8.110903
7.719348
7.403025
7.165564
7.013655
6.84178
6.404769
5.406847
4.90666
4.244413
2.697406
2.219863
0.7755373
1.038054
2.318556
2.618828
3.017927
3.427054
3.804513
4.713488
6.161001
6.827611
6.656458
6.604814
6.659387
6.887821
7.189734
7.544302
7.747454
7.714649
7.488158
7.169148
6.852183
6.579815
6.365703
6.20803
6.113998
6.089305
6.106815
6.132387
6.119779
5.933786
5.465739
4.644726
3.267339
1.77925
0.6009938
1.057469
2.354373
2.706503
3.110189
3.504295
3.882331
4.584494
5.704496
6.340036
6.296407
6.186933
6.086275
6.004719
6.169417
6.632878
7.025001
7.196631
7.112902
6.820382
6.439261
6.075341
5.790243
5.579068
5.426006
5.32297
5.235872
5.117471
4.949993
4.604684
3.993935
3.141602
2.246961
1.609906
0.639079
1.007762
2.314019
2.723568
3.170945
3.580748
3.963086
4.493294
5.244785
5.788755
5.888136
5.759878
5.500699
5.233745
5.237697
5.428339
5.693334
5.953821
6.113464
6.104721
5.942897
5.700168
5.45699
5.234789
5.021935
4.824921
4.624197
4.363749
4.090583
3.792152
3.416126
2.779281
2.146057
1.5892
0.6111244
0.6154018
1.937298
2.498137
3.076451
3.576748
4.004726
4.448411
4.957227
5.344586
5.498913
5.44581
5.214266
4.978593
4.909387
4.979332
5.101402
5.20365
5.256026
5.253829
5.198322
5.097122
4.973543
4.832607
4.649671
4.439878
4.213842
3.910277
3.56113
3.262434
3.076163
2.558995
2.176859
1.339114
0.3954667
1.551908
2.180122
2.72929
3.38279
3.92064
4.375537
4.791164
5.104766
5.2569
5.256823
5.167953
5.064213
5.016848
5.017496
5.025432
5.003617
4.936536
4.831031
4.708223
4.588674
4.487718
4.394053
4.258484
4.083825
3.88804
3.617487
3.255021
2.933406
2.810518
2.332181
2.2743
1.069101
1.376611
2.982151
3.194366
3.617189
4.027896
4.406872
4.754789
5.037138
5.217491
5.289184
5.300648
5.319983
5.31225
5.269739
5.184734
5.053765
4.885079
4.695587
4.506908
4.334799
4.196268
4.084059
3.947465
3.7961
3.654816
3.426604
3.082983
2.750419
2.649196
2.086566
2.294788
0.9904215
1.161179
2.624246
3.14953
3.694875
4.149783
4.534888
4.860817
5.135532
5.355614
5.520924
5.616552
5.618843
5.581377
5.49365
5.343166
5.143073
4.913346
4.674878
4.447399
4.234773
4.061469
3.925241
3.770913
3.637641
3.563895
3.353617
3.019586
2.656007
2.621249
2.158711
2.086142
0.8809243
0.6405001
1.92999
2.608448
3.216889
3.896422
4.443227
4.86583
5.202804
5.477233
5.677912
5.774382
5.763855
5.677781
5.553792
5.386173
5.166421
4.919728
4.66735
4.424394
4.179226
3.99536
3.871554
3.711294
3.639829
3.650458
3.411791
3.06889
2.62593
2.707492
2.474142
1.622702
0.5328668
1.27367
2.743773
3.326834
3.86317
4.472556
4.96167
5.339074
5.601209
5.741699
5.771371
5.705552
5.594035
5.451087
5.288528
5.083204
4.853631
4.616536
4.372709
4.101138
3.965092
3.915258
3.776341
3.818342
3.910501
3.570146
3.168178
2.64487
2.858765
2.530472
1.13529
0.6335114
1.770651
3.105689
3.704466
4.278349
4.727707
5.062312
5.294239
5.409159
5.420616
5.367889
5.282803
5.166042
5.029956
4.871933
4.696582
4.508785
4.273318
3.993616
4.020751
4.104705
3.992818
4.173877
4.299982
3.772504
3.301954
2.690775
3.199641
1.776897
0.6259315
0.7475319
1.988431
2.536321
3.122854
3.695386
4.161325
4.513582
4.736434
4.842357
4.879184
4.852755
4.767702
4.667637
4.576349
4.484273
4.374969
4.160054
3.927265
4.269427
4.487946
4.345851
4.64997
4.748283
3.929792
3.350526
2.820334
2.194155
0.8177223
0.8163407
2.10128
2.56598
3.001707
3.488861
3.873255
4.125487
4.289908
4.412502
4.387446
4.302527
4.264196
4.270536
4.287217
4.275728
4.111698
4.009095
4.746145
5.001161
4.759493
5.110073
5.008457
3.795495
3.242254
2.61425
1.010936
0.8227333
2.042473
2.355184
2.939025
3.313321
3.515367
3.730455
3.969282
3.881942
3.825266
3.932643
4.084474
4.213967
4.297443
4.206004
4.278633
5.378702
5.497929
4.901673
5.1086
4.869079
3.443783
2.844015
1.136046
0.7753805
1.831084
2.824884
2.917805
2.863449
3.202532
3.601844
3.349862
3.449051
3.795248
4.10032
4.326733
4.491726
4.435828
4.511575
5.736223
5.499999
4.471524
4.756064
4.476674
2.835628
1.1826
0.6892417
1.628683
2.501363
2.273811
2.839692
3.392074
2.838057
3.196517
3.767321
4.148009
4.401349
4.569782
4.414862
4.239094
5.478066
4.933369
3.822047
4.155914
2.632858
1.121611
0.6088913
1.210708
1.918374
2.766974
3.358403
2.444207
2.965356
3.675372
4.036489
4.23947
4.317343
3.958765
3.652703
4.944886
4.228004
2.989563
1.959057
0.977741
0.6988685
1.3121
1.631165
2.005903
2.725807
3.483523
3.784154
3.913417
3.901274
3.330296
2.639344
2.2803
1.871905
1.004928
0.9078428
1.555111
1.725888
1.76994
1.697971
1.064339
0.6171816
1.084697
1.261573
1.344799
1.350975
1.316643
1.249867
1.11928
0.9430084
0.5319435
0.6589516
1.258867
1.602009
2.131494
2.758415
1.887978
1.920614
1.874461
1.784113
1.698218
1.700726
2.255544
1.676665
1.194198
0.9523975
0.52041
0.9289529
2.09583
1.974697
2.381725
2.842789
3.194668
2.601664
2.712792
2.576566
2.401755
2.25329
2.154772
2.180593
1.780956
1.502604
1.422556
1.562506
0.7002969
0.7033289
1.500072
1.779394
2.79041
2.832182
3.477517
3.795284
3.914915
3.470907
3.365218
3.121271
2.889172
2.708644
2.569052
2.41943
2.112794
1.86766
1.668771
1.489087
1.217694
1.034311
0.5283356
0.7583326
1.965876
2.265664
2.599664
3.761758
3.967612
4.425508
4.50705
4.412519
3.989623
3.724771
3.427721
3.192289
3.023236
2.884643
2.718041
2.487126
2.279093
2.069717
1.838584
1.584978
1.407865
1.401847
0.5631041
0.7503605
2.04943
2.595128
3.072942
3.677604
4.631491
4.822963
5.056768
4.938278
4.688584
4.245803
3.914689
3.63147
3.444023
3.328009
3.233594
3.112039
2.951275
2.786655
2.604314
2.388253
2.138023
1.859855
1.620702
1.431864
0.5513635
0.7217055
2.0089
2.6181
3.304519
4.063826
4.585109
5.254161
5.371969
5.443785
5.193761
4.845287
4.393125
4.069885
3.856283
3.762755
3.740281
3.72661
3.673697
3.56773
3.423309
3.241752
3.018277
2.749569
2.435046
2.067168
1.732365
1.366633
0.504972
0.6523013
1.887555
2.494894
3.280962
4.115154
4.803306
5.193606
5.632522
5.702276
5.696991
5.378544
4.97392
4.529611
4.256531
4.143522
4.17022
4.261586
4.338334
4.344507
4.257196
4.082534
3.834925
3.530761
3.195162
2.85766
2.519853
2.118355
1.729774
1.226644
0.433816
1.32953
2.193634
3.048588
3.967548
4.697993
5.235476
5.520383
5.82699
5.894502
5.884067
5.576554
5.157778
4.724096
4.498428
4.477939
4.642075
4.861349
5.01679
5.049433
4.942447
4.693062
4.335991
3.911523
3.500984
3.169407
2.869752
2.530218
2.00794
1.433168
0.8521698
0.8182344
1.960538
2.726846
3.648768
4.455663
5.029502
5.420731
5.636535
5.893904
6.012127
6.065509
5.848329
5.493898
5.091117
4.882637
4.909348
5.129636
5.401245
5.590052
5.650408
5.535633
5.216421
4.761535
4.238434
3.74155
3.385806
3.219399
3.137146
2.695345
1.823168
1.097003
0.4753986
0.5661084
1.877491
2.432607
3.276489
4.105205
4.759109
5.161886
5.427308
5.617351
5.945757
6.190939
6.376886
6.311256
6.055491
5.698077
5.454563
5.40724
5.567674
5.82856
6.03275
6.129218
6.07316
5.762667
5.276709
4.688826
4.016133
3.554061
3.635163
3.90734
3.478911
2.635626
1.758861
1.076748
0.3228907
1.082878
1.913479
2.758366
3.670641
4.411458
4.905013
5.150244
5.387454
5.660633
6.100826
6.499109
6.870354
6.998433
6.873866
6.580041
6.28557
6.103427
6.096631
6.226886
6.379024
6.482393
6.502572
6.286446
5.891972
5.393272
4.804178
4.196163
4.107392
4.925296
4.418776
3.286503
2.104175
1.301155
0.6248063
1.401147
2.138546
3.116199
3.960369
4.585951
4.938763
5.133711
5.377973
5.877887
6.582396
7.275419
7.961401
8.352737
8.365079
8.071761
7.645343
7.243837
6.982498
6.880776
6.878076
6.903508
6.901413
6.721699
6.306659
5.853688
5.394424
5.052656
4.891144
5.720638
5.508993
4.168434
2.875123
1.695919
0.8196129
0.5679092
1.970077
2.543401
3.450237
4.186903
4.687251
4.999027
5.169745
5.585569
6.523817
7.709701
8.951632
10.25227
11.14904
11.42674
11.08462
10.34929
9.510762
8.847808
8.409471
8.161309
8.028032
7.915825
7.687315
7.246881
6.694948
6.073112
5.590243
5.4145
5.784623
6.210919
5.021742
3.578167
2.10048
1.138636
0.3041852
1.007675
2.592275
3.031388
3.792368
4.401052
4.776181
5.088594
5.343804
6.142064
7.624463
9.175684
10.77704
12.39909
13.80198
14.8612
15.29906
14.81458
13.7201
12.72686
11.96849
11.48558
11.27558
11.19173
10.94691
10.19507
9.043289
7.786417
6.558519
5.743205
5.585028
6.041048
5.696709
4.311283
2.457229
1.591971
0.5656061
1.217248
2.155537
3.130525
4.0158
4.579247
4.89716
5.228923
5.635554
6.882391
8.48242
9.607284
10.49335
11.24854
12.13681
13.34231
14.7292
15.89657
16.39741
16.23472
15.79393
15.13903
14.33769
13.25515
12.06017
10.95898
9.909053
8.949386
7.780431
6.415383
5.385528
5.477409
5.809053
5.041617
2.653161
0.9777295
0.6788968
1.365547
2.174115
3.283478
4.18349
4.728445
5.039158
5.402763
5.899392
7.305712
8.705073
8.909983
8.758667
8.590725
8.66298
9.016958
9.559249
10.15383
10.63126
10.83049
10.70845
10.36256
9.878657
9.422107
9.067406
8.826826
8.695045
8.618411
8.459706
8.002842
7.165429
6.831865
6.456569
5.251493
3.370216
1.295565
0.7733421
1.44466
2.24224
3.36911
4.294273
4.85806
5.178636
5.574962
6.075419
7.289079
8.45186
8.399309
7.95526
7.742805
7.859929
8.189818
8.598693
8.884314
8.921032
8.720766
8.378738
8.011316
7.692991
7.463234
7.332725
7.308457
7.3985
7.576293
7.78858
7.920076
7.764165
7.186682
6.078963
4.415666
2.734436
1.503088
0.8287755
1.463162
2.279493
3.412614
4.365164
4.970683
5.313731
5.703194
6.182067
7.065954
7.906795
7.929495
7.544617
7.220756
7.021267
7.088286
7.562933
7.98809
8.194801
8.126144
7.816122
7.391326
6.982921
6.678392
6.490185
6.396572
6.379863
6.395519
6.395434
6.317632
6.007888
5.367473
4.436142
3.377982
2.380912
1.521336
0.8409848
1.421441
2.253011
3.38934
4.385883
5.054592
5.455086
5.810981
6.231665
6.851109
7.395304
7.454984
7.153859
6.732924
6.332138
6.222653
6.39664
6.666575
6.911486
7.027708
6.962081
6.742913
6.453438
6.183879
5.97432
5.812265
5.678947
5.51619
5.271133
4.985165
4.630427
4.150238
3.494028
2.819942
2.23483
1.708051
0.8208567
1.312659
2.177593
3.125555
4.266312
5.058257
5.553439
5.906338
6.278355
6.714434
7.083637
7.157201
6.941891
6.55676
6.177965
6.038058
6.107153
6.246369
6.333349
6.315431
6.19989
6.020982
5.818731
5.633009
5.481314
5.342523
5.201555
5.013619
4.692021
4.286415
3.869398
3.465415
2.901863
2.35325
1.918782
1.872733
0.7810088
1.114791
2.90813
3.648362
4.581442
5.270684
5.743423
6.080841
6.382786
6.70905
6.98057
7.093049
7.007996
6.77743
6.582329
6.486589
6.460428
6.432898
6.34396
6.169791
5.925855
5.653481
5.399291
5.200133
5.063755
4.955708
4.85518
4.719862
4.45628
4.060448
3.60808
3.194213
2.637406
2.104155
1.593352
1.876667
0.7039006
0.6139214
2.214431
3.248159
4.468668
5.368543
5.948811
6.321011
6.596173
6.8537
7.084125
7.234225
7.293427
7.313642
7.295702
7.226654
7.101817
6.906464
6.635517
6.302365
5.937257
5.578717
5.263019
5.02029
4.858563
4.748737
4.689416
4.618457
4.430128
4.088574
3.623848
3.154971
2.568526
1.987711
1.487429
1.471415
0.4165083
1.627093
2.654142
4.038464
5.217762
6.02953
6.547709
6.89105
7.148607
7.367637
7.563481
7.731468
7.861327
7.902669
7.814793
7.604564
7.293318
6.907974
6.481563
6.04952
5.645616
5.29961
5.039444
4.871651
4.771277
4.775723
4.764278
4.620756
4.3058
3.806696
3.2583
2.626551
1.919649
1.523729
1.127247
1.226143
2.195818
3.320953
4.717598
5.798939
6.558401
7.080413
7.448096
7.730121
7.957188
8.117513
8.179215
8.158236
8.029184
7.773239
7.420545
7.006023
6.566403
6.133868
5.736491
5.41031
5.188747
5.073873
5.035616
5.158459
5.185951
5.036662
4.688731
4.095331
3.430827
2.719044
1.862533
1.707798
0.9497428
0.6168909
2.097634
3.158188
4.412971
5.523123
6.397422
7.042828
7.501949
7.81192
7.992428
8.085793
8.10224
8.042977
7.876444
7.614248
7.281575
6.908548
6.524084
6.150568
5.812062
5.579929
5.477643
5.489252
5.571941
5.853628
5.850121
5.621759
5.164808
4.409381
3.593235
2.774421
1.827809
1.760552
0.539118
0.8928639
2.090661
3.087781
4.317469
5.422736
6.26939
6.854979
7.237158
7.455957
7.566412
7.594277
7.541347
7.401422
7.192194
6.938294
6.667472
6.3977
6.138891
5.920111
5.892517
5.99197
6.179616
6.405418
6.813855
6.641624
6.252577
5.61698
4.659033
3.646106
2.733461
1.799889
0.8241374
1.448221
2.364804
3.344817
4.428443
5.320746
5.960744
6.383215
6.633703
6.758836
6.820179
6.825702
6.773622
6.659263
6.521502
6.397029
6.289117
6.195251
6.172293
6.481537
6.804501
7.143543
7.45576
7.846396
7.36073
6.781836
5.843727
4.628316
3.466953
2.616688
1.479877
0.6541749
1.924844
2.603201
3.385887
4.201339
4.849046
5.307657
5.620066
5.804104
5.932286
6.043196
6.138233
6.139387
6.151163
6.217787
6.309868
6.423353
6.672468
7.39558
7.829048
8.187163
8.437604
8.691008
7.68534
6.78063
5.585462
4.212374
3.190612
2.275362
0.778511
0.6971752
1.951265
2.521321
3.120994
3.708143
4.172476
4.583906
4.850612
5.089584
5.327196
5.601717
5.719879
5.922553
6.214387
6.516023
6.84828
7.376692
8.405003
8.743411
9.014147
8.926518
8.842171
7.264537
6.107338
4.812389
3.677053
2.621332
0.932351
0.6930167
1.923662
2.327402
2.686069
3.094561
3.651599
3.958975
4.384152