/*--------------------------------*- C++ -*----------------------------------*\
  =========                 |
  \\      /  F ield         | OpenFOAM: The Open Source CFD Toolbox
   \\    /   O peration     | Website:  https://openfoam.org
    \\  /    A nd           | Version:  6
     \\/     M anipulation  |
\*---------------------------------------------------------------------------*/
FoamFile
{
    version     2.0;
    format      ascii;
    class       volScalarField;
    location    "50";
    object      alphat;
}
// * * * * * * * * * * * * * * * * * * * * * * * * * * * * * * * * * * * * * //

dimensions      [1 -1 -1 0 0 0 0];

internalField   nonuniform List<scalar> 
203709
(
0.6068286
0.9823518
0.9753412
0.5868385
0.6791539
1.234176
1.591959
1.899867
1.845077
1.431505
1.049747
0.5999559
0.6609101
1.198513
1.596245
2.171823
2.321306
2.27927
2.203226
2.045635
1.85806
1.382035
0.9788501
0.5581245
0.6139998
1.377283
1.943359
2.16815
2.367164
2.455361
2.440552
2.378222
2.254532
2.124847
1.931366
1.705356
1.203949
0.5276883
1.0136
1.811089
2.080642
2.19899
2.255778
2.276341
2.279529
2.2593
2.209253
2.116068
1.965836
1.801546
1.534473
0.822681
0.6294027
1.370442
1.915572
2.09059
2.159071
2.19137
2.219313
2.222105
2.193217
2.138614
2.068161
1.982823
1.86725
1.666577
1.149721
0.482841
1.037703
1.716498
1.923005
1.983445
2.045589
2.156334
2.250337
2.301165
2.30208
2.256635
2.18174
2.086106
1.972018
1.811593
1.534908
0.8324004
0.6402071
1.470826
1.915156
1.989977
1.99555
2.054538
2.176376
2.290898
2.369537
2.402448
2.388068
2.335753
2.252852
2.141221
1.98866
1.74856
1.195832
0.4896671
1.028128
1.863091
2.090207
2.143107
2.170317
2.240554
2.318642
2.390474
2.442046
2.471834
2.475222
2.443378
2.381808
2.289569
2.148743
1.935064
1.587612
0.8308775
1.026053
1.880535
2.165667
2.271869
2.332924
2.388903
2.437776
2.481107
2.511829
2.529603
2.530427
2.504441
2.455136
2.376847
2.24631
2.033142
1.672715
0.879767
0.6449265
1.523275
2.132156
2.327286
2.421626
2.472767
2.505302
2.533468
2.557076
2.566922
2.558481
2.533031
2.487985
2.409152
2.271616
2.016817
1.397261
0.5737525
1.126937
2.000298
2.296039
2.431465
2.49514
2.530413
2.555117
2.574079
2.57893
2.566868
2.53943
2.489403
2.400021
2.232788
1.909956
1.06543
0.68762
1.567317
2.186444
2.389756
2.480331
2.529646
2.55918
2.574624
2.574252
2.557425
2.521464
2.458495
2.346472
2.119633
1.50445
0.6597721
1.123537
1.986842
2.269856
2.412834
2.492995
2.537531
2.552424
2.545705
2.519407
2.467051
2.38117
2.232227
1.940909
1.096521
0.6721668
1.471603
2.016776
2.241375
2.387285
2.463334
2.488584
2.476045
2.430166
2.346036
2.203445
1.995816
1.457211
0.6673526
0.6890912
1.161267
1.637078
2.099374
2.255157
2.331923
2.323894
2.234396
2.083608
1.630349
1.185941
0.7043321
0.7095954
1.178324
1.609256
2.005791
2.018633
1.634546
1.23115
0.7517289
0.6845642
1.12226
1.147639
0.7203815
0.6456558
1.051349
1.137225
1.173059
1.171319
1.142197
1.094205
1.025799
0.921553
0.5470316
0.6389864
1.121726
1.568833
1.998496
2.150475
2.250333
2.278877
2.233843
2.130559
1.983239
1.798766
1.370385
0.9693697
0.5429263
0.6667618
1.446825
2.021537
2.298489
2.530465
2.726286
2.932461
3.05702
3.015833
2.829636
2.589862
2.359142
2.09274
1.819088
1.288107
0.5702541
0.6651214
1.497553
2.08111
2.457599
2.74868
3.086988
3.520539
3.226274
3.2694
3.236087
3.073525
3.384321
2.960962
2.619762
2.328806
1.963079
1.352009
0.5890185
0.6402141
1.485505
2.127302
2.500527
2.994178
3.570821
3.644654
4.042892
3.824925
3.768692
3.651044
3.400745
3.524698
3.363297
3.411239
2.908919
2.476586
2.054535
1.384533
0.5939047
0.6028162
1.406348
2.089394
2.598532
3.372195
4.112294
4.890262
5.21072
6.080588
5.735764
5.194621
4.706752
4.234656
4.082527
3.781588
3.833759
2.796337
3.185603
2.557232
2.075998
1.377058
0.58758
1.024698
1.933685
2.503703
3.304657
3.804281
4.830165
6.097497
6.86007
7.724152
7.919825
7.636632
6.976175
6.045068
5.400357
4.818029
4.435398
3.386116
2.449961
3.153864
2.562079
1.998985
1.054329
0.5967926
1.473908
2.219437
2.855367
3.910465
3.401454
4.720795
5.398378
5.803576
6.262289
6.686268
7.082567
7.339726
7.341326
7.05079
6.581844
6.126843
5.474735
4.029678
4.091926
2.986046
2.282827
1.442434
0.5437449
0.9870395
1.902478
2.461331
3.158658
3.602914
3.41161
4.226221
4.446323
4.547489
4.702103
4.923742
5.195636
5.432019
5.594749
5.628548
5.537154
5.312996
4.873833
3.790045
2.705558
2.938916
2.248572
1.678173
0.830499
1.082314
2.064756
2.668341
3.561706
3.594855
3.272421
3.811818
3.834619
3.881662
3.971113
4.209134
4.474631
4.698166
4.818579
4.79664
4.638672
4.375761
4.000053
3.45275
2.488227
2.897998
2.225804
1.712972
0.8668347
1.133099
2.180649
2.883154
3.524148
3.711662
3.307848
3.492996
3.414311
3.304105
3.368116
3.564379
3.799591
4.030271
4.212601
4.305565
4.28215
4.13407
3.853375
3.393011
2.410534
1.499045
2.372921
1.797107
0.9062025
1.160382
2.250999
3.040817
3.475458
3.746133
3.513213
3.451576
3.327502
3.213155
3.211954
3.307475
3.453292
3.612939
3.750922
3.846884
3.880548
3.839381
3.690232
3.353805
2.768913
1.932974
2.55229
1.880468
0.9454688
1.170513
2.269749
3.059345
3.405417
3.702159
3.677874
3.597869
3.472936
3.361977
3.312978
3.339697
3.412817
3.502216
3.576776
3.621668
3.62484
3.583492
3.463692
3.147588
2.53126
1.927677
2.608383
1.930021
0.9780652
1.162843
2.233315
2.934212
3.264061
3.525933
3.677588
3.688448
3.614214
3.553412
3.523888
3.529504
3.5571
3.586987
3.599294
3.585888
3.540897
3.461984
3.305229
2.881168
2.1049
2.096305
2.541613
1.935172
0.997056
1.129269
2.141655
2.742564
3.546213
3.677034
3.82635
3.892113
3.893838
3.849379
3.807739
3.782675
3.767059
3.746794
3.70689
3.645823
3.560865
3.452668
3.246466
2.626861
1.842986
3.1579
2.447107
1.90581
0.9957605
1.045815
1.992664
2.550514
3.143149
3.4702
3.69578
3.853482
3.926546
3.954755
3.965047
3.962704
3.941369
3.894711
3.818446
3.731827
3.62953
3.525908
3.286898
2.419636
2.203215
2.940791
2.392254
1.848558
0.9541728
0.6375281
1.567423
2.314976
2.821365
3.569317
3.805531
3.981206
4.064769
4.09638
4.11758
4.111387
4.072981
4.001328
3.898011
3.820036
3.731216
3.687058
3.444614
2.432504
3.619748
2.853156
2.325386
1.530458
0.6066746
1.14894
2.082261
2.584086
3.125996
3.430267
3.666859
3.874297
4.018916
4.112486
4.148445
4.115875
4.040079
3.925271
3.916872
3.865336
3.944511
3.758443
3.288284
3.431157
2.835568
2.243931
1.178273
0.6667433
1.5584
2.286446
2.776667
3.419552
3.591051
3.844988
4.001052
4.121041
4.110033
4.067793
4.012934
3.902204
4.04014
3.990638
4.200172
3.93096
3.979044
3.286215
2.728778
1.82707
0.7468817
0.7108352
1.660237
2.388565
2.818721
3.252632
3.757978
3.737472
3.957366
3.914216
3.916662
3.921049
3.84373
4.22774
4.098601
4.571454
4.042252
3.597284
3.124234
2.176637
0.9218301
0.7042025
1.624015
2.279585
2.640664
2.952577
3.330364
3.842983
3.646021
3.803351
3.911616
3.871
4.595742
4.215714
3.957412
3.707021
3.304596
2.394538
1.053267
0.6873539
1.539114
2.134282
2.50096
2.832849
3.148972
3.522938
3.855558
4.009119
3.973244
3.862568
3.775448
3.572657
3.23358
2.425578
1.116455
0.6735463
1.217681
1.807406
2.384119
2.682223
2.946243
3.14277
3.259966
3.308639
3.290316
3.180674
2.570123
1.866554
1.105529
0.7807489
1.343487
1.529107
1.659701
1.746141
1.802335
1.838415
1.837597
1.749236
1.090652
0.6596321
1.064499
1.132886
1.133145
1.098637
1.038892
0.9307908
0.5487247
0.6761971
1.223593
1.419562
1.817946
2.215482
2.287841
2.269406
2.200218
2.096927
1.939568
1.515237
1.127674
0.9261966
0.5151855
0.8161023
1.73685
2.436391
2.774006
2.996696
3.12472
3.171694
3.132735
3.037597
2.909217
2.744565
2.536098
2.253947
1.897746
1.351099
0.6051291
0.6881185
1.282819
1.993463
2.782302
3.457623
3.087245
3.187816
3.332949
3.41586
3.374947
3.258584
3.104229
2.910674
2.704439
2.512548
2.781997
2.233322
1.536402
0.9077761
0.4550935
0.6960161
1.623493
2.426154
3.112309
2.981192
3.582833
3.33165
3.446535
3.607632
3.738713
3.728613
3.610638
3.436085
3.213105
2.991213
2.77156
2.966656
2.516485
2.513476
1.846047
1.135713
0.4343448
0.6609745
1.594072
2.421228
3.186746
3.238159
3.154239
3.753246
3.628984
3.709119
3.873838
4.040036
4.080514
3.99096
3.816778
3.577608
3.332539
3.108683
3.220682
2.867502
2.873504
2.621491
1.89726
1.137873
0.4228553
1.191754
2.292865
3.082584
3.262713
3.408347
3.443963
4.082878
4.098742
4.176624
4.304584
4.432288
4.469586
4.393516
4.23095
4.0274
3.801726
3.569631
3.537039
3.276191
3.042868
2.371497
2.685427
1.910066
0.9116327
0.7535723
1.85351
2.900437
3.143349
3.481376
3.792793
4.095631
4.924496
5.163525
5.299739
5.362108
5.325495
5.207084
5.04646
4.845304
4.643531
4.382079
4.172679
4.016823
3.741986
3.420191
2.644454
1.840589
2.664852
1.616735
0.6233373
0.6081441
1.61545
2.588044
2.932607
3.37993
3.951019
4.580286
5.296564
6.34562
7.004203
7.435569
7.751375
7.494371
6.904002
6.306816
5.782623
5.42298
5.093994
4.872619
4.467431
4.284059
3.927168
3.403921
2.43793
1.510563
2.4344
1.494416
0.564858
1.070019
2.173432
3.119133
3.180761
3.789296
4.662828
5.54099
6.500599
7.672081
8.729118
9.599605
10.33837
10.52549
10.11927
9.204084
8.105209
7.198886
6.448492
5.929425
5.297565
4.574409
4.482496
4.217421
3.694087
2.26035
3.232222
2.20027
1.066067
1.266171
2.483579
3.026429
3.400975
4.240177
5.356951
6.127834
6.694783
7.42485
7.91936
8.357765
8.892771
9.445389
9.886804
10.13479
10.0543
9.609615
8.893265
8.219879
7.511049
6.519943
6.001434
5.388227
4.736602
3.386606
2.097395
2.578436
1.274562
0.6054299
1.680743
2.761954
3.11341
3.567314
4.515856
5.718923
6.187726
6.173946
6.249626
6.130479
6.102052
6.251253
6.497647
6.87105
7.219546
7.46935
7.54667
7.44131
7.185929
6.697066
5.880522
5.150306
4.861839
4.474782
3.853993
2.449175
2.712909
1.590876
0.5376219
1.010625
2.085016
2.923774
3.218649
3.682458
4.583957
5.694598
6.045725
5.652317
5.374712
5.058379
4.983759
5.051679
5.345916
5.705037
6.021632
6.219019
6.237867
6.077641
5.783348
5.374508
4.880341
4.306429
4.049963
3.855912
3.407261
2.251779
2.605795
1.814018
0.8263452
1.111628
2.198233
3.013836
3.308925
3.759269
4.5432
5.478652
5.781362
5.384115
4.942817
4.473313
4.175013
4.192026
4.439645
4.741087
5.039414
5.284093
5.423254
5.424021
5.274256
4.984194
4.563006
3.989426
3.474647
3.548656
3.139719
2.050143
2.528126
1.794121
0.8406339
1.161666
2.261582
3.071693
3.377623
3.8097
4.461735
5.211757
5.510928
5.2499
4.854954
4.430025
4.118777
4.040022
4.127754
4.293873
4.482986
4.651063
4.765943
4.80675
4.759241
4.607374
4.312346
3.880727
3.482427
3.457133
3.039571
1.924447
2.535989
1.801434
0.8486721
1.185127
2.302495
3.114147
3.422464
3.836384
4.377889
4.970357
5.287218
5.20564
4.963147
4.648846
4.38904
4.241076
4.212641
4.266671
4.358258
4.443355
4.489938
4.480545
4.411113
4.272996
4.004321
3.587165
3.319838
3.336179
2.967659
1.865737
2.593898
1.840561
0.867925
1.177557
2.311293
3.133803
3.435855
3.829929
4.292732
4.776417
5.106899
5.187341
5.093282
4.907822
4.713539
4.56072
4.482039
4.467149
4.483902
4.494508
4.470719
4.397181
4.272659
4.092458
3.763944
3.314752
3.254912
3.247689
2.900318
1.85882
2.665404
1.884913
0.8858095
1.1064
2.250338
3.107941
3.399774
3.771056
4.181087
4.61039
4.961907
5.155827
5.187878
5.125172
4.998357
4.876777
4.799946
4.762319
4.734738
4.685412
4.595599
4.456701
4.27446
4.052289
3.651462
3.256441
3.370579
3.285569
2.897535
1.949869
2.731836
1.890681
0.8650693
0.669677
1.861259
3.015446
3.2937
3.637876
4.011965
4.410031
4.774593
5.03423
5.157509
5.172607
5.140465
5.110824
5.095375
5.073647
5.020491
4.920398
4.773596
4.578912
4.354606
4.127477
3.707652
3.555147
3.58584
3.483176
3.0022
2.244336
2.764222
1.610209
0.5557932
1.459836
2.818658
3.157275
3.430556
3.775677
4.138888
4.497094
4.802993
5.008588
5.150086
5.277964
5.366
5.400523
5.367874
5.270124
5.118839
4.932222
4.704993
4.474242
4.31545
3.969938
4.015966
3.987693
3.851332
3.19762
2.951618
2.691846
1.306032
1.20772
2.459674
3.541214
3.775173
4.006954
4.263269
4.563063
4.874552
5.145461
5.373335
5.540052
5.62815
5.616769
5.523324
5.380798
5.210763
5.027559
4.807118
4.621811
4.63396
4.433509
4.456014
4.463389
4.292364
3.439841
3.826223
2.516632
1.178159
0.6435331
1.750389
2.86869
3.34
3.740723
4.118479
4.491968
4.842714
5.153204
5.383706
5.510286
5.546141
5.514141
5.426881
5.323973
5.209108
5.074965
4.898105
4.800321
5.052865
4.835648
4.926405
4.947735
4.711515
4.258305
3.352834
1.942483
0.7066174
0.7781807
2.006045
3.190506
3.603077
4.001575
4.35372
4.643032
4.89599
5.038473
5.099935
5.124433
5.153818
5.193206
5.214369
5.196841
5.116591
5.015021
5.011435
5.487294
5.11264
5.302318
5.275704
4.891921
4.252201
2.499129
0.9549814
1.199269
2.359742
3.197469
3.542447
3.865817
4.072
4.376332
4.466901
4.542585
4.670832
4.857353
5.026345
5.148813
5.221913
5.19857
5.175762
5.266691
5.862787
5.344692
5.59193
5.460716
4.986168
3.525013
1.70127
0.6267824
1.551195
2.381417
3.155585
3.421132
3.518263
4.023338
4.020495
4.188692
4.467737
4.786104
5.037879
5.213538
5.328395
5.353651
5.391846
5.538442
6.14363
5.460384
5.651076
5.509787
4.035558
2.520264
0.9930308
0.6499879
1.5668
2.382625
3.183256
3.187266
3.99021
3.808263
4.097097
4.499412
4.896698
5.169735
5.353949
5.480004
5.527177
5.562743
5.592689
6.178165
5.345243
5.51787
4.253702
2.770882
1.138645
0.6636492
1.300832
2.125341
3.118139
4.141285
3.755296
4.143959
4.599282
4.985042
5.215451
5.370525
5.487787
5.521295
5.47282
5.392958
6.030198
4.986369
3.580031
2.279331
1.188376
0.9202991
2.080253
3.077939
3.710161
4.220063
4.650431
4.966923
5.151332
5.278193
5.38154
5.397049
5.260712
4.87678
4.282663
3.142787
1.472462
0.8518095
1.619585
1.978429
2.648377
3.414622
3.70528
3.853906
3.936917
3.976562
3.898285
3.21949
2.522645
2.158415
1.225191
0.9831597
1.675987
1.872594
1.960998
1.99745
1.993769
1.888847
1.1739
0.7032617
1.135694
1.188093
1.158985
1.060927
0.6336675
0.6974739
1.277218
1.512146
1.734839
2.203907
2.639387
2.673994
2.596199
2.431628
1.934959
1.426433
1.181152
0.9542869
0.5388654
0.6891731
1.364885
2.072083
2.891369
3.314047
2.418384
2.717983
3.043491
2.995977
2.843065
2.606267
2.171744
1.894006
2.551406
2.135651
1.538723
0.9765891
0.499906
0.8125402
1.883587
2.923514
2.633335
3.375416
3.744237
3.009834
3.354817
3.572397
3.439019
3.21519
2.931634
2.53362
2.293603
2.666299
2.263922
1.901252
2.055517
1.298825
0.542495
0.8932513
2.112959
3.279476
3.406802
3.175874
3.95837
4.298613
3.711928
3.940675
4.08552
3.895164
3.624418
3.319016
2.948381
2.768811
3.007013
2.630808
2.31149
2.307819
2.21183
1.352816
0.5678992
0.9132964
2.252397
2.591639
3.603619
3.854791
3.794576
4.432515
4.740324
4.301728
4.452766
4.581969
4.382837
4.087302
3.772613
3.41004
3.23696
3.43327
3.083556
2.775592
2.617515
2.192532
1.565526
1.397055
0.5782698
0.8669304
2.231341
2.671862
3.069102
3.976354
4.287407
4.246764
4.766365
5.057806
4.747758
4.862155
5.021017
4.883966
4.603875
4.289095
3.917297
3.689672
3.897647
3.6077
3.269984
3.087743
2.587265
1.923391
1.656333
1.384827
0.5526403
0.7592423
2.01855
2.535903
3.040616
3.500432
4.22622
4.537947
4.514342
4.959696
5.264987
5.077495
5.182638
5.383149
5.352816
5.139056
4.843474
4.508901
4.280658
4.449975
4.281601
3.915875
3.738949
3.326434
2.590244
2.228795
1.767115
1.280304
0.4734682
0.636809
1.76267
3.091144
3.06486
3.425291
3.788849
4.364432
4.663082
4.685258
5.182495
5.577773
5.546897
5.65296
5.841874
5.881522
5.756691
5.525801
5.220934
4.96074
4.971413
4.861348
4.558097
4.311216
3.820799
3.437616
2.872992
1.748085
2.35677
1.235355
0.4118445
1.230179
2.65138
3.196048
3.419617
3.712607
3.974053
4.466027
4.85848
5.107518
5.819403
6.331742
6.460216
6.554459
6.61974
6.569221
6.418694
6.195466
5.929902
5.658884
5.532524
5.383765
5.111978
4.806296
4.231313
3.451352
3.385587
2.535161
1.7007
2.233656
0.9673719
0.640411
1.880551
2.504267
3.255685
3.690223
3.922202
4.1234
4.742782
5.388323
6.097235
7.220829
8.074116
8.569142
8.836398
8.681118
8.217983
7.657864
7.135946
6.726369
6.387288
6.15537
5.885165
5.615309
5.281201
4.796434
4.018163
3.021939
2.970673
2.3076
1.386472
1.640487
0.552092
1.168566
2.588214
2.880127
3.486372
3.909435
4.10231
4.417852
5.312783
6.406234
7.635745
9.045054
10.22559
11.18344
11.91522
12.13797
11.76618
10.82003
9.730789
8.730624
7.890972
7.296507
6.768555
6.22607
5.902637
5.568209
5.062483
4.025343
3.696088
3.108256
1.817452
2.370882
1.035042
1.422802
3.048624
3.283162
3.755603
4.131339
4.333116
4.830203
6.103966
7.402499
8.442772
9.276692
9.813791
10.30399
10.88898
11.49846
11.96428
12.14991
11.99823
11.47054
10.63778
9.843381
9.08722
8.255096
7.581194
6.964606
6.322192
5.373627
4.189544
3.702602
2.320928
2.922703
1.299001
1.683214
2.369044
3.085524
3.792272
4.280928
4.581387
5.232528
6.694644
7.799512
8.063823
7.931092
7.602965
7.439747
7.540303
7.794868
8.196813
8.602529
8.886663
8.967146
8.83014
8.54169
8.032939
7.351905
6.751782
6.359988
5.967728
5.43165
4.520982
4.19541
3.039441
1.812409
1.513154
0.7084086
2.220388
2.621574
3.195072
3.831518
4.377138
4.786252
5.515639
6.904061
7.777942
7.458047
6.758069
6.13923
5.932597
6.019158
6.33349
6.758152
7.131112
7.363979
7.391586
7.213013
6.886235
6.45117
5.987826
5.557568
5.275519
5.03622
4.659425
4.032662
3.967622
3.446934
2.146305
1.913325
0.580166
1.195419
2.747793
3.02789
3.428108
3.929203
4.459048
4.927607
5.644912
6.821476
7.527212
7.115095
6.239427
5.409351
4.953423
4.972512
5.295262
5.664618
6.016063
6.292426
6.436511
6.41695
6.23186
5.911079
5.505676
5.079654
4.741513
4.537862
4.166083
3.584699
3.587844
3.139866
2.076574
2.143737
0.8791977
1.296739
2.912117
3.258594
3.628183
4.045851
4.535304
5.016889
5.668369
6.590404
7.166996
6.900074
6.174905
5.453346
4.979563
4.862991
4.977345
5.186206
5.41677
5.609829
5.719839
5.723973
5.619657
5.415834
5.118084
4.770337
4.491163
4.283885
3.910287
3.27776
3.281518
2.847704
1.94524
2.038317
0.8385463
1.294259
2.946146
3.37673
3.774522
4.153816
4.599448
5.069485
5.643379
6.34906
6.828622
6.77039
6.334697
5.825351
5.43541
5.211089
5.154042
5.214764
5.328197
5.426732
5.457556
5.396185
5.24871
5.035261
4.753056
4.432041
4.218602
4.064602
3.735241
3.093326
3.091218
2.662935
1.844589
1.96372
0.7997984
1.20526
2.865339
3.402847
3.866829
4.237687
4.640649
5.08009
5.590467
6.154376
6.573829
6.680494
6.523776
6.227223
5.935912
5.698444
5.57279
5.546713
5.566057
5.565596
5.496561
5.340064
5.1119
4.840601
4.514453
4.188475
4.034519
3.903968
3.599706
2.998541
2.986415
2.529942
1.809344
1.909096
0.7601142
0.7244557
2.397139
3.089333
3.737598
4.192714
4.597095
5.010469
5.484485
5.978859
6.383497
6.603776
6.640965
6.531773
6.356828
6.194309
6.100661
6.057545
6.009885
5.905068
5.715127
5.441403
5.123959
4.800752
4.441629
4.156894
4.057242
3.911052
3.573037
3.023129
2.959517
2.397205
1.882291
1.615316
0.4855588
1.828305
2.74328
3.430559
4.044887
4.481125
4.863292
5.307193
5.770684
6.18256
6.473301
6.636404
6.695054
6.696673
6.69783
6.694255
6.644192
6.509771
6.277629
5.955857
5.572758
5.207262
4.892564
4.566589
4.411259
4.357566
4.149785
3.713373
3.203598
3.024059
2.250673
2.241713
1.296935
1.499528
3.408326
4.092805
4.695764
5.017482
5.203562
5.459232
5.782881
6.131859
6.453124
6.75181
7.025437
7.227163
7.330397
7.3033
7.136481
6.852274
6.486878
6.067969
5.641751
5.340841
5.140982
4.933696
4.953821
4.950069
4.582557
3.992072
3.482359
3.16449
2.18514
2.757822
1.188526
1.174698
2.803244
3.492974
4.339891
5.021805
5.502671
5.885476
6.239655
6.620964
7.042366
7.431888
7.709582
7.836506
7.773501
7.543667
7.205594
6.823021
6.430488
6.028334
5.687194
5.615714
5.624832
5.575343
5.76238
5.752355
5.083023
4.330648
3.683345
3.369022
2.46638
2.508104
1.042825
0.6379199
1.996934
2.80644
3.63694
4.428915
5.097271
5.731924
6.322876
6.835767
7.240742
7.524532
7.670497
7.617151
7.382806
7.077704
6.780945
6.518768
6.270221
6.003337
5.875344
6.168475
6.376321
6.42914
6.76068
6.630205
5.535642
4.657015
3.761986
3.617521
3.101684
1.923514
0.622908
1.22979
2.728981
3.406498
3.952161
4.524921
5.076328
5.636276
6.115966
6.4111
6.602941
6.723383
6.607127
6.416465
6.327355
6.319863
6.324788
6.282954
6.184189
6.335135
7.005359
7.28337
7.358411
7.742793
7.387609
5.888132
4.876553
3.83556
3.825386
3.070548
1.323287
0.6108004
1.717371
3.036816
3.138342
3.583625
4.007539
4.574498
5.032347
5.202677
5.449921
5.741193
5.615224
5.62821
5.914082
6.228068
6.452896
6.557404
6.597283
7.007318
7.91835
8.138374
8.168406
8.467922
7.948622
6.153419
4.977737
3.86538
4.067347
2.139433
0.7181671
0.7020701
1.886447
2.36903
2.800738
3.138879
3.832691
4.232628
4.21946
4.716131
5.276964
5.064708
5.355934
5.988762
6.479758
6.792136
6.966357
7.110542
7.668146
8.610885
8.798016
8.74943
8.812983
8.093115
6.032026
4.799717
3.777166
2.772672
0.9864505
0.7958759
2.053321
2.38156
2.616366
3.539009
3.791385
3.622364
4.479706
5.249884
4.889144
5.469469
6.308394
6.809488
7.110803
7.317675
7.526196
8.106834
9.05453
9.030112
8.638208
8.509295
7.722057
5.42261
4.430364
3.436328
1.285184
0.8579801
2.132226
2.338875
3.476606
3.616158
3.426062
4.596899
5.419763
4.940616
5.74554
6.646141
7.093052
7.371906
7.554014
7.64582
8.008278
8.872419
8.54565
7.783901
7.555701
6.867577
4.636116
3.786097
1.488791
0.9021939
2.208612
3.572607
3.566929
3.329944
4.65627
5.431501
4.827722
5.732831
6.599327
6.971605
7.181019
7.261079
7.137194
7.197947
8.100468
7.501267
6.381056
6.471573
5.900061
3.743397
1.556034
0.9149631
2.199977
3.575042
3.148915
4.406299
5.121708
4.269497
5.249884
6.103608
6.417469
6.557066
6.533313
6.173771
5.85806
6.938305
6.170845
5.066765
5.322673
3.42092
1.460882
0.8547002
1.75169
2.785544
4.022867
4.82095
3.578007
4.393369
5.24855
5.522705
5.61015
5.520837
4.969449
4.578691
5.946354
5.130666
3.766688
2.491133
1.256906
0.9780471
1.810084
2.232291
2.68408
3.550548
4.443752
4.703191
4.770807
4.68795
3.948346
3.124205
2.718487
2.260142
1.266081
1.128283
1.896343
2.064376
2.089616
1.990499
1.244344
0.6880709
1.210411
1.438468
1.549085
1.57756
1.548565
1.475113
1.320898
1.102034
0.6093698
0.6904864
1.342268
1.778853
2.398111
3.109392
2.266939
2.300214
2.273393
2.15964
2.017792
1.944984
2.66568
1.954588
1.357996
1.05971
0.5701927
0.9809192
2.251693
2.138104
2.635241
3.235954
3.845135
3.187788
3.365994
3.226762
2.970953
2.70164
2.483107
2.685122
2.100961
1.692988
1.55725
1.738002
0.7667562
0.7444106
1.599512
2.045417
3.1096
3.103063
3.89065
4.417233
4.85055
4.381007
4.353386
4.064168
3.689087
3.33816
3.082846
3.015618
2.534463
2.194109
1.958052
1.757739
1.326191
1.084255
0.5399914
0.8000086
2.145505
2.496115
3.007045
4.221807
4.384782
5.029405
5.390912
5.639762
5.277539
5.080901
4.681233
4.250389
3.88644
3.63909
3.485992
3.095068
2.785697
2.482052
2.115007
1.663501
1.396471
1.372253
0.542377
0.799492
2.218453
2.85428
3.479996
4.21085
5.190035
5.388035
5.856898
6.083738
6.212778
5.915593
5.632342
5.17474
4.733356
4.399377
4.196678
4.053057
3.739186
3.436359
3.066142
2.595814
2.095325
1.724715
1.512199
1.393932
0.5611201
0.7938773
2.196125
2.87384
3.686387
4.569401
5.214564
5.895799
6.056848
6.400351
6.565157
6.642271
6.422875
6.138
5.668812
5.230663
4.929965
4.776767
4.675213
4.416218
4.11007
3.69068
3.144842
2.575097
2.141088
1.862818
1.713379
1.500729
0.585935
0.7160595
2.066753
2.756558
3.605393
4.573725
5.387251
5.88746
6.328182
6.453122
6.736858
6.899724
6.979741
6.852125
6.656038
6.24529
5.811144
5.513688
5.414884
5.435183
5.277317
4.974971
4.513374
3.911313
3.236493
2.7158
2.418757
2.202081
1.982343
1.523289
0.5576668
1.511566
2.319253
3.283316
4.33563
5.227428
5.887113
6.243104
6.523038
6.636634
6.919565
7.142541
7.296102
7.29276
7.221611
6.94101
6.573888
6.301235
6.175966
6.197883
6.120759
5.86052
5.388069
4.811475
4.104248
3.457005
3.040677
2.718402
2.458669
1.927348
1.13734
0.9292407
1.881968
2.78237
3.895891
4.891011
5.644385
6.134754
6.357209
6.545807
6.738516
7.121718
7.452885
7.662901
7.756492
7.802528
7.672536
7.3991
7.121378
6.933956
6.87389
6.821219
6.635493
6.228517
5.731679
5.041789
4.393829
3.793571
3.154024
3.231972
2.471702
1.520478
0.6723178
0.6796961
2.128677
2.643998
3.48365
4.453469
5.308088
5.892477
6.219144
6.394674
6.625918
6.921457
7.466784
7.941305
8.202987
8.337079
8.392125
8.309441
8.099468
7.83677
7.604324
7.442323
7.32908
7.150763
6.819155
6.39464
5.773998
5.002375
4.600563
3.95456
3.369989
3.283373
2.256601
1.708889
0.4990871
1.33148
1.934827
2.731696
3.801228
4.812173
5.587711
6.039511
6.334834
6.505179
6.872617
7.482177
8.464994
9.33533
9.911503
10.20316
10.12298
9.753235
9.227229
8.705905
8.283731
7.965284
7.733244
7.478624
7.16244
6.773465
6.26237
5.558371
4.655402
4.21028
3.681572
2.845713
2.484706
1.466987
1.048517
1.741641
2.359413
3.238417
4.188276
5.10114
5.794378
6.251578
6.502165
6.814121
7.571234
8.792317
10.24324
11.50206
12.52568
13.27867
13.55739
13.26962
12.39077
11.37262
10.35056
9.452348
8.785511
8.235485
7.723604
7.280276
6.822259
6.261867
5.431723
4.768352
4.126832
3.101266
2.867749
1.73485
1.3794
0.6851246
2.354622
2.959315
3.784406
4.599573
5.373787
6.024083
6.499699
6.797531
7.396151
8.599827
9.817636
10.77042
11.37425
11.90628
12.52145
13.16221
13.65369
13.79395
13.59817
13.04268
12.16565
11.29457
10.47714
9.619342
8.851169
8.169959
7.49751
6.691258
5.704093
4.909418
3.75567
3.254965
1.944304
1.937
0.5643764
1.252576
3.174809
3.747329
4.410223
5.03705
5.649355
6.275782
6.777052
7.174423
8.002711
9.205687
9.624919
9.413872
8.942289
8.65353
8.685364
8.940103
9.339139
9.766931
10.05431
10.10875
9.923965
9.588638
9.062664
8.448957
7.914461
7.511031
7.127983
6.671743
6.047297
5.592332
4.757605
3.51841
2.384603
2.759887
1.068271
1.50362
2.373678
3.310626
4.382506
5.164024
5.791012
6.463836
7.041794
7.538036
8.377519
9.33238
9.059822
8.062962
7.167808
6.816012
6.934273
7.251773
7.730425
8.144668
8.391364
8.404321
8.189386
7.817491
7.350736
6.895987
6.519791
6.256261
6.024245
5.74042
5.399286
5.279362
4.940539
4.055305
3.161238
1.915193
1.297672
1.645339
2.56017
3.741696
4.691769
5.351509
5.901157
6.583315
7.244624
7.821408
8.548701
9.174362
8.726972
7.51445
6.333122
5.698801
5.736487
6.156775
6.61009
7.016517
7.310222
7.431188
7.357073
7.104858
6.727954
6.306398
5.922151
5.630859
5.388853
5.090097
4.769657
4.686459
4.419823
3.868346
3.603111
2.225177
1.351713
1.697657
2.718966
4.057703
5.041135
5.611505
6.041196
6.664315
7.360336
7.993295
8.60852
8.981686
8.547476
7.505179
6.466768
5.822567
5.686501
5.86724
6.154514
6.446115
6.662811
6.747979
6.682653
6.483825
6.190508
5.846759
5.51447
5.258643
5.030979
4.722584
4.340364
4.191579
3.879876
3.452279
3.251833
2.174666
1.183012
1.670222
2.759988
4.245341
5.348476
5.913658
6.238479
6.748924
7.401334
8.049904
8.608088
8.876101
8.569454
7.834891
7.066363
6.518779
6.264825
6.225735
6.326388
6.473644
6.574219
6.560317
6.409166
6.144045
5.814895
5.465324
5.149308
4.934262
4.75782
4.484231
4.073092
3.856349
3.473652
3.019446
2.760928
2.025796
1.019331
1.595101
2.754513
4.357157
5.638609
6.282059
6.534152
6.894904
7.429491
8.029561
8.562674
8.848037
8.733265
8.313165
7.80932
7.410573
7.115547
6.970349
6.941666
6.945849
6.893619
6.727696
6.438346
6.061499
5.654238
5.256709
4.93173
4.741634
4.593626
4.342074
3.929546
3.655484
3.196128
2.70519
2.324414
1.894902
0.938714
1.425469
2.74773
4.248945
5.783911
6.683676
6.977957
7.191061
7.553272
8.024729
8.512359
8.856719
8.940171
8.790829
8.525605
8.287654
8.081916
7.950006
7.851238
7.710293
7.467325
7.104181
6.644718
6.150393
5.683048
5.26885
4.981651
4.832324
4.67945
4.38847
3.940459
3.578272
3.014594
2.538797
1.946997
2.019415
0.8469062
1.166142
3.140134
4.26468
5.80992
6.989919
7.622847
7.836759
8.020963
8.265158
8.610831
8.947829
9.161085
9.232796
9.250836
9.224216
9.158539
9.038826
8.820851
8.47402
8.003465
7.444919
6.856332
6.323946
5.893905
5.563336
5.411246
5.330435
5.128091
4.717275
4.1553
3.638999
2.928486
2.480378
1.66092
2.045733
0.745945
0.6384624
2.309822
3.330969
4.958308
6.398086
7.443529
8.103948
8.566054
8.834449
9.101906
9.417468
9.740713
10.04591
10.24957
10.2978
10.17681
9.875371
9.411252
8.831945
8.198402
7.566476
7.004309
6.611467
6.375996
6.25862
6.324398
6.293149
5.956024
5.335877
4.552897
3.815594
2.954782
2.412044
1.572582
1.59845
0.4404874
1.574223
2.623096
4.147866
5.606386
6.793494
7.701856
8.523774
9.156774
9.670957
10.13867
10.54947
10.7932
10.84468
10.69036
10.32623
9.802909
9.20387
8.605148
8.056622
7.588248
7.276048
7.224118
7.313712
7.490473
7.769015
7.670196
7.094933
6.177627
5.045847
4.050966
3.094152
2.262166
1.620903
1.214964
1.185548
2.235724
3.378849
4.685482
5.831711
6.77987
7.65399
8.376788
8.976521
9.461485
9.781482
9.924304
9.889158
9.675691
9.308168
8.893194
8.524348
8.230966
8.015749
7.897485
7.994264
8.380677
8.808916
9.255812
9.618007
9.278643
8.414556
7.11909
5.547499
4.273472
3.198802
2.110518
1.899239
1.01052
0.6201696
2.072159
2.723033
3.711774
4.697571
5.573698
6.357195
6.996392
7.470012
7.846296
8.051667
8.15719
8.224948
8.219013
8.127216
8.10992
8.197154
8.329651
8.499885
8.770353
9.295612
10.03993
10.6946
11.28239
11.4878
10.79955
9.642921
7.931627
5.957802
4.442388
3.220247
2.051405
1.910516
0.5681281
0.8777107
2.058213
2.738952
3.578807
4.352843
4.973212
5.465152
5.777844
6.156221
6.355712
6.639444
7.04954
7.418471
7.679997
8.111556
8.611864
9.065996
9.532361
10.12845
10.95861
11.8342
12.53346
13.03925
12.86897
11.86615
10.46374
8.481784
6.226783
4.488194
3.18004
1.991899
0.8928547
1.32739
2.092499
2.755742
3.405757
3.859498
4.228173
4.431756
5.018727
5.343257
5.979095
6.802857
7.545861
8.056477
8.816251
9.545015
10.15426
10.80099
11.58596
12.48186
13.22759
13.78511
14.05318
13.68726
12.39431
10.75712
8.519784
6.088204
4.275322
3.055636
1.658463
0.6598641
1.862665
2.263159
2.731898
3.091352
3.44245
3.630574
4.565642
5.062018
6.074164
7.207102
8.242285
8.824879
9.740568
10.51403
11.14853
11.82388
12.566
13.33602
13.91708
14.32724
14.27763
13.67591
12.07471
10.27559
7.865762
5.458237
3.929599
2.730608
0.891982
0.7406243
2.028522
2.372112
2.617993
3.033156
3.366275
4.609655
5.19935
6.480019
7.741938
8.901985
9.423891
10.36199
11.05376
11.60309
12.22795
12.91812
13.56392
13.82534
13.90895
13.5787
12.83092
10.83394
8.888476
6.507043
4.70002
3.311236
1.13658
0.8136378
2.218705
2.422332
2.69743
3.105937
4.629936
5.298598
6.766458
8.062669
9.24924
9.700006
10.6177
11.20109
11.61707
12.0617
12.52598
12.95545
12.84682
12.61572
12.0232
11.19735
8.693599
6.661283