/*--------------------------------*- C++ -*----------------------------------*\
  =========                 |
  \\      /  F ield         | OpenFOAM: The Open Source CFD Toolbox
   \\    /   O peration     | Website:  https://openfoam.org
    \\  /    A nd           | Version:  6
     \\/     M anipulation  |
\*---------------------------------------------------------------------------*/
FoamFile
{
    version     2.0;
    format      ascii;
    class       volScalarField;
    location    "50";
    object      alphat;
}
// * * * * * * * * * * * * * * * * * * * * * * * * * * * * * * * * * * * * * //

dimensions      [1 -1 -1 0 0 0 0];

internalField   nonuniform List<scalar> 
203709
(
0.6082775
0.9876252
0.9822701
0.591244
0.6949543
1.27083
1.620298
1.914285
1.85766
1.442631
1.058338
0.605784
0.6451869
1.178122
1.561342
2.135441
2.290308
2.274837
2.208645
2.054972
1.868265
1.38916
0.9876146
0.5608963
0.6183487
1.370795
1.919455
2.139435
2.3185
2.405422
2.415775
2.376183
2.260021
2.129209
1.933796
1.710328
1.207758
0.5303836
1.014259
1.801676
2.062373
2.177249
2.230092
2.256378
2.265828
2.2518
2.212091
2.122043
1.970631
1.804335
1.536164
0.8251087
0.6278053
1.358921
1.894668
2.069705
2.148255
2.200419
2.238361
2.241933
2.210364
2.152776
2.081146
1.996806
1.881475
1.678854
1.156375
0.4819464
1.044585
1.719741
1.900162
1.935389
2.032484
2.179801
2.271865
2.318332
2.313935
2.262015
2.180783
2.081185
1.965057
1.804106
1.52697
0.8253079
0.6421811
1.477905
1.936207
2.010508
2.026245
2.11269
2.220623
2.317209
2.384507
2.410445
2.389992
2.33097
2.241157
2.123985
1.968505
1.728319
1.1794
0.4795992
1.030551
1.870892
2.114746
2.185018
2.230104
2.29515
2.357898
2.415028
2.455894
2.478429
2.476331
2.439315
2.372138
2.274082
2.1284
1.912167
1.56549
0.815919
1.02832
1.886452
2.183406
2.304165
2.373754
2.420597
2.459453
2.494848
2.519847
2.533404
2.530691
2.501264
2.448221
2.36576
2.230964
2.014354
1.652848
0.8658512
0.646229
1.526805
2.142343
2.344366
2.438773
2.485058
2.513807
2.539262
2.560828
2.568792
2.558325
2.530603
2.483
2.401328
2.260805
2.003402
1.384572
0.5663935
1.128921
2.004854
2.302212
2.436301
2.498717
2.533461
2.558046
2.576674
2.58061
2.567073
2.537776
2.485634
2.394
2.224587
1.90009
1.05789
0.6883666
1.567944
2.186752
2.389967
2.481872
2.532824
2.563255
2.578458
2.576891
2.558295
2.520276
2.455082
2.340833
2.112211
1.497159
0.6556692
1.12422
1.989478
2.275278
2.420541
2.5014
2.545048
2.558045
2.549012
2.520267
2.46541
2.376919
2.225467
1.932625
1.090645
0.6777691
1.483339
2.03157
2.255046
2.398408
2.471328
2.493604
2.478344
2.429796
2.342938
2.197383
1.987053
1.448411
0.6631944
0.6944722
1.16895
1.644281
2.105804
2.259545
2.334498
2.324507
2.232563
2.07918
1.623792
1.179213
0.6985568
0.7111524
1.180525
1.611328
2.00774
2.019167
1.632982
1.228248
0.7484164
0.686251
1.124323
1.148536
0.7199814
0.6393838
1.045678
1.136445
1.177835
1.180209
1.15328
1.105727
1.036523
0.9305739
0.5522761
0.628102
1.110337
1.555616
1.986965
2.147562
2.258122
2.295652
2.255545
2.152933
2.003556
1.815959
1.382629
0.9774246
0.547965
0.6547486
1.425155
1.999326
2.278165
2.515053
2.721417
2.94068
3.077881
3.043914
2.858267
2.61519
2.380526
2.110403
1.83402
1.29826
0.576476
0.6568684
1.48013
2.050166
2.42704
2.73051
3.084733
3.5345
3.251772
3.30321
3.271868
3.104193
3.415248
2.985609
2.639312
2.344925
1.974749
1.359934
0.5920702
0.6390275
1.483563
2.12018
2.523771
3.053868
3.665305
3.771339
4.223813
3.941766
3.858257
3.71286
3.436768
3.555391
3.372353
3.427724
2.921917
2.484812
2.057982
1.385157
0.5933177
0.6050032
1.420755
2.117393
2.690342
3.579694
4.206794
5.097056
5.414064
6.420522
6.138432
5.487087
4.883565
4.288619
4.105773
3.815145
3.84059
2.862235
3.185726
2.552756
2.063271
1.364221
0.5807514
1.032555
1.961503
2.558519
3.382076
3.60527
4.583002
5.862562
6.639421
7.586219
8.013941
7.946695
7.332669
6.099715
5.369264
4.733713
4.337701
3.338998
2.403128
3.103745
2.531347
1.983614
1.046562
0.5993858
1.492163
2.24775
2.878062
3.887234
3.134133
4.346293
4.963724
5.328345
5.75609
6.204141
6.717485
7.154992
7.301858
7.028338
6.517967
6.011782
5.326122
3.93012
4.132119
3.042259
2.335665
1.477717
0.5612049
0.992055
1.924616
2.489891
3.167482
3.503337
3.164976
3.979031
4.24486
4.400517
4.583864
4.87032
5.17156
5.443466
5.649776
5.728585
5.708136
5.54303
5.144407
4.073906
3.028202
3.095055
2.339132
1.729553
0.8499095
1.088246
2.086281
2.698725
3.574373
3.572131
3.067497
3.622178
3.646946
3.719403
3.897534
4.166607
4.466946
4.7342
4.890669
4.887216
4.743464
4.495721
4.13332
3.597653
2.66692
2.961803
2.251037
1.721293
0.865224
1.13913
2.199944
2.911841
3.517008
3.70016
3.250732
3.380646
3.295876
3.234907
3.351642
3.551321
3.795045
4.044974
4.252642
4.369254
4.362165
4.218052
3.930696
3.462537
2.480291
1.576048
2.370063
1.785927
0.8949632
1.166074
2.26708
3.064598
3.46614
3.726195
3.516609
3.437302
3.310174
3.219983
3.226337
3.320521
3.466399
3.630019
3.775976
3.883479
3.930412
3.899746
3.753604
3.414038
2.828433
2.007047
2.542584
1.864508
0.9321486
1.175887
2.282666
3.077159
3.40061
3.679686
3.676773
3.602403
3.479749
3.373414
3.328674
3.356436
3.428588
3.516851
3.591537
3.638971
3.647484
3.613252
3.500194
3.19148
2.57935
1.9826
2.601005
1.915884
0.9660395
1.16827
2.244031
2.947023
3.262132
3.510825
3.660183
3.67074
3.605265
3.553048
3.530691
3.539788
3.567465
3.595356
3.605292
3.590532
3.546054
3.468994
3.314917
2.898897
2.119748
2.114485
2.531847
1.921647
0.9865768
1.135405
2.151766
2.752723
3.554935
3.680012
3.82224
3.884854
3.885846
3.843236
3.806085
3.784127
3.769123
3.747425
3.7053
3.642214
3.556144
3.446446
3.237484
2.619197
1.825283
3.136896
2.42837
1.888714
0.9852979
1.053524
2.00441
2.561278
3.151269
3.463684
3.678423
3.826818
3.900229
3.935885
3.954047
3.957197
3.937917
3.890617
3.812775
3.724275
3.620367
3.512855
3.264656
2.38406
2.142366
2.910158
2.364546
1.826361
0.9428532
0.6445641
1.58255
2.331895
2.835575
3.581251
3.806805
3.971049
4.052393
4.089204
4.116624
4.112518
4.072516
3.997968
3.892511
3.812232
3.721258
3.671458
3.412184
2.378023
3.57724
2.814925
2.290098
1.507154
0.5985153
1.164313
2.109011
2.614561
3.160795
3.456764
3.695094
3.904183
4.044575
4.13095
4.158487
4.118149
4.037798
3.921282
3.91044
3.85629
3.93013
3.719825
3.201586
3.385285
2.791792
2.204058
1.156448
0.6743212
1.579889
2.32169
2.820026
3.46684
3.621606
3.871716
4.016792
4.130304
4.111305
4.066284
4.010936
3.90033
4.035983
3.983458
4.181339
3.909847
3.935313
3.24271
2.687553
1.793828
0.7303735
0.7166546
1.672333
2.405471
2.836744
3.270796
3.775729
3.743251
3.964102
3.913518
3.916072
3.920898
3.841798
4.221242
4.087103
4.543608
4.009413
3.561826
3.088352
2.148901
0.9081197
0.7084676
1.631284
2.289583
2.653162
2.967412
3.347037
3.861592
3.654544
3.810516
3.915392
3.869127
4.588069
4.202465
3.939177
3.684778
3.28072
2.374268
1.042747
0.6916919
1.547279
2.147756
2.517546
2.850798
3.166711
3.539022
3.867478
4.01537
3.97402
3.85879
3.767514
3.561534
3.220203
2.412644
1.108793
0.6784695
1.226645
1.819501
2.398673
2.696065
2.957636
3.150437
3.263816
3.309494
3.288315
3.176286
2.564766
1.861035
1.100368
0.785743
1.35024
1.535204
1.664296
1.749077
1.803753
1.838739
1.836951
1.747652
1.088852
0.6554189
1.061828
1.133856
1.137575
1.106347
1.048924
0.9413186
0.5552787
0.6687131
1.211904
1.409205
1.808274
2.212551
2.292975
2.281238
2.217837
2.11833
1.961653
1.532519
1.140844
0.9363134
0.5209255
0.8054704
1.715944
2.412821
2.754447
2.982773
3.124008
3.183997
3.154495
3.066031
2.941005
2.776121
2.563921
2.277924
1.916866
1.36548
0.6131713
0.678928
1.264771
1.965234
2.746106
3.423578
3.061714
3.175656
3.340673
3.445613
3.4205
3.310563
3.154456
2.954098
2.738339
2.538175
2.807409
2.254235
1.554057
0.9198961
0.4616185
0.6864837
1.598595
2.388945
3.065549
2.935428
3.555534
3.30773
3.437263
3.62024
3.77997
3.795338
3.688317
3.509342
3.273077
3.035633
2.80307
2.991223
2.529711
2.537052
1.862725
1.146168
0.4421771
0.6529806
1.569546
2.381133
3.136045
3.19381
3.12083
3.772136
3.64609
3.733643
3.906083
4.090129
4.156324
4.082852
3.906379
3.65091
3.386932
3.137887
3.23787
2.862028
2.860817
2.63308
1.901919
1.138653
0.4194767
1.175244
2.256079
3.032323
3.247131
3.421189
3.524458
4.269464
4.287414
4.345532
4.432954
4.529785
4.562477
4.491681
4.318467
4.095609
3.847593
3.600093
3.56142
3.284931
3.101377
2.509664
2.677496
1.892565
0.8936474
0.7473695
1.82929
2.856433
3.162285
3.571638
3.99427
4.457026
5.386526
5.645186
5.744625
5.727424
5.577898
5.371278
5.162764
4.923943
4.696651
4.416181
4.187445
4.028284
3.745547
3.450867
2.740308
1.952452
2.643618
1.587121
0.6108593
0.6046698
1.605377
2.559831
2.954068
3.517606
4.241143
4.997141
5.851776
6.880986
7.582465
8.035633
8.361327
8.027098
7.265997
6.528053
5.85769
5.439654
5.089774
4.851557
4.466185
4.267767
3.910263
3.388758
2.419838
1.508068
2.398529
1.46245
0.5491575
1.063982
2.162702
3.093993
3.251433
4.054806
5.017107
5.888789
6.740928
7.735303
8.714746
9.589472
10.41962
10.7981
10.54404
9.640049
8.213241
7.155403
6.313157
5.761973
5.146133
4.451666
4.311402
4.009018
3.477429
2.089508
3.143025
2.145226
1.040753
1.260067
2.474477
3.030264
3.502244
4.523823
5.575241
6.137395
6.422348
6.90046
7.241259
7.60399
8.119284
8.703394
9.356076
9.888
10.0071
9.571487
8.763488
7.984925
7.208962
6.23427
5.847154
5.293046
4.657251
3.305559
2.021876
2.569118
1.265215
0.6029992
1.676927
2.756961
3.122626
3.6556
4.701845
5.774044
5.988661
5.765023
5.776937
5.713138
5.782072
5.98942
6.354697
6.792003
7.205776
7.534751
7.687918
7.677575
7.510362
7.067863
6.283352
5.565664
5.211839
4.762127
4.078946
2.566784
2.810173
1.638115
0.5555566
1.007529
2.082407
2.92326
3.228824
3.746406
4.682619
5.641852
5.793299
5.29167
5.030871
4.765295
4.758291
4.912913
5.267566
5.6811
6.063721
6.317795
6.368836
6.23368
5.969267
5.582902
5.112507
4.573882
4.310024
4.070287
3.599944
2.394102
2.690586
1.864813
0.8472268
1.109378
2.197232
3.016816
3.319684
3.802111
4.585435
5.393968
5.548952
5.107499
4.70924
4.297515
4.064296
4.154406
4.405933
4.722533
5.051969
5.336565
5.514262
5.546027
5.412917
5.124551
4.702025
4.140132
3.648407
3.670091
3.237346
2.140112
2.555228
1.809164
0.8451455
1.160865
2.26264
3.077456
3.389148
3.839396
4.477108
5.131237
5.337124
5.055259
4.705078
4.333244
4.083203
4.034187
4.127103
4.29816
4.496784
4.678697
4.811357
4.873217
4.845824
4.70661
4.416001
3.989246
3.602527
3.532783
3.086717
1.968946
2.527952
1.792667
0.8420445
1.186501
2.30661
3.122881
3.434995
3.858921
4.385338
4.911879
5.167946
5.078148
4.857271
4.57675
4.349124
4.223964
4.207513
4.269023
4.366507
4.456887
4.509258
4.507772
4.449035
4.322564
4.065537
3.658459
3.398568
3.38638
2.994414
1.885193
2.574287
1.823881
0.8580519
1.181312
2.319397
3.146519
3.450189
3.848766
4.299539
4.741691
5.031458
5.098418
5.004995
4.836299
4.660326
4.527832
4.466042
4.463125
4.486604
4.499786
4.476735
4.404669
4.283769
4.108235
3.78603
3.339001
3.281699
3.266039
2.908002
1.860963
2.641251
1.866371
0.8759532
1.112192
2.262931
3.126254
3.417592
3.788798
4.187839
4.590337
4.912758
5.087883
5.11035
5.049326
4.933185
4.833817
4.778956
4.756396
4.735448
4.686553
4.594676
4.454485
4.272876
4.049974
3.645329
3.239724
3.357003
3.271494
2.880203
1.931225
2.702617
1.871488
0.8561408
0.6743642
1.87595
3.041012
3.318433
3.658267
4.019054
4.394783
4.733722
4.970221
5.0786
5.094285
5.085095
5.083866
5.08961
5.077564
5.024759
4.92041
4.769055
4.571948
4.347013
4.114421
3.680792
3.516472
3.54901
3.446096
2.95987
2.199318
2.731168
1.593777
0.550344
1.472033
2.847715
3.197065
3.469679
3.801968
4.142858
4.478693
4.767381
4.978601
5.140064
5.289131
5.388805
5.423344
5.382976
5.275403
5.115925
4.924472
4.695103
4.462763
4.294136
3.93226
3.975235
3.939949
3.803328
3.133867
2.873401
2.660512
1.293455
1.216222
2.481914
3.581937
3.8438
4.092001
4.351569
4.645789
4.960075
5.226365
5.446129
5.597914
5.666738
5.636205
5.527795
5.376209
5.201485
5.016747
4.794708
4.606238
4.606621
4.397014
4.411364
4.410715
4.245479
3.378206
3.783349
2.490949
1.168083
0.6479929
1.763847
2.894913
3.366452
3.785497
4.183002
4.559086
4.903561
5.202647
5.414806
5.521918
5.543075
5.503557
5.413939
5.311789
5.197572
5.063988
4.884102
4.781297
5.024518
4.804662
4.882618
4.896745
4.676364
4.215022
3.319927
1.924003
0.7009526
0.7834057
2.018941
3.211184
3.615266
4.012883
4.362173
4.640751
4.885254
5.01759
5.073686
5.099999
5.1361
5.182189
5.206443
5.189023
5.107873
5.001219
4.99138
5.462588
5.082407
5.259113
5.23154
4.850664
4.207074
2.473106
0.9455408
1.205703
2.372079
3.21352
3.549406
3.863584
4.055738
4.362032
4.447031
4.524336
4.659741
4.853796
5.025999
5.147733
5.218102
5.190873
5.163149
5.246051
5.839109
5.309441
5.549076
5.420533
4.935619
3.487936
1.683297
0.6305673
1.559271
2.394218
3.174009
3.430149
3.51584
4.028982
4.018923
4.189508
4.473819
4.795136
5.044751
5.216018
5.326802
5.348081
5.381094
5.5195
6.125657
5.430247
5.615643
5.47185
3.998101
2.494195
0.9824945
0.6539324
1.575986
2.398601
3.206374
3.200109
4.010815
3.822722
4.111521
4.51546
4.911297
5.17913
5.358066
5.480157
5.524406
5.556191
5.580372
6.164842
5.320922
5.489896
4.226518
2.745196
1.127152
0.6682308
1.309768
2.140744
3.140444
4.167926
3.774287
4.160648
4.614835
4.996179
5.221799
5.37367
5.488764
5.520266
5.46909
5.384133
6.015683
4.967014
3.561913
2.264803
1.178037
0.9265656
2.092368
3.093085
3.72406
4.23265
4.66027
4.973353
5.155025
5.280018
5.381792
5.395492
5.256974
4.870259
4.272445
3.1304
1.464818
0.8556935
1.625169
1.983562
2.653839
3.419288
3.708187
3.855447
3.93755
3.976366
3.896978
3.217172
2.51905
2.153028
1.219954
0.9847232
1.677437
1.87337
1.961262
1.997391
1.993402
1.88802
1.172915
0.6995694
1.133033
1.188565
1.16312
1.068102
0.6394648
0.6925847
1.266733
1.500947
1.725237
2.195775
2.637857
2.680625
2.611342
2.453535
1.957481
1.44652
1.197486
0.9658275
0.5442767
0.6845101
1.353976
2.054657
2.866144
3.289597
2.403126
2.720732
3.062518
3.029163
2.886332
2.653003
2.211594
1.921384
2.585658
2.161747
1.557622
0.989709
0.5063994
0.8070113
1.866859
2.896032
2.59948
3.34415
3.711682
2.995311
3.373485
3.620541
3.50641
3.291219
3.005053
2.592035
2.327491
2.707007
2.29545
1.923798
2.086505
1.319142
0.5498584
0.8869875
2.093531
3.244567
3.3599
3.123662
3.917336
4.26573
3.69674
3.976658
4.165889
3.998981
3.732744
3.417627
3.025769
2.815994
3.053014
2.665544
2.335031
2.343595
2.247695
1.373705
0.5750407
0.9070341
2.231016
2.555879
3.554855
3.788868
3.721711
4.382638
4.70818
4.287035
4.499176
4.691409
4.525073
4.231266
3.899366
3.510699
3.303226
3.487579
3.123438
2.800662
2.651176
2.225646
1.588227
1.4208
0.5883479
0.8614242
2.212591
2.63576
3.011594
3.908273
4.200924
4.153704
4.706478
5.023376
4.730601
4.906106
5.140437
5.053884
4.78291
4.44835
4.046495
3.7844
3.965436
3.64016
3.280375
3.110399
2.600116
1.935743
1.676345
1.414597
0.5639775
0.754821
2.004321
2.508542
2.989185
3.419775
4.142161
4.43872
4.40731
4.906343
5.247121
5.076859
5.227635
5.494298
5.524667
5.335618
5.029105
4.64701
4.377391
4.530544
4.329508
3.934442
3.754882
3.307435
2.566898
2.241283
1.949973
1.296858
0.4875828
0.6333722
1.752942
3.06881
3.015173
3.352765
3.69056
4.284784
4.588231
4.65012
5.265321
5.684208
5.660375
5.772034
5.978173
6.050163
5.944571
5.71097
5.370266
5.069295
5.058405
4.924261
4.592601
4.352427
3.881973
3.403313
2.848132
1.857226
2.285267
1.19631
0.4024691
1.222455
2.635791
3.178387
3.362418
3.630573
3.885816
4.460965
4.936873
5.314023
6.192676
6.740817
6.857084
6.891304
6.869696
6.756089
6.581596
6.341816
6.052232
5.751118
5.603752
5.439339
5.148117
4.849326
4.311598
3.550246
3.424844
2.563777
1.835265
2.241836
0.9401931
0.6348717
1.869981
2.50504
3.258938
3.643939
3.854616
4.124435
4.921841
5.745011
6.696687
7.930613
8.816076
9.330932
9.570088
9.279917
8.623309
7.913417
7.248344
6.779279
6.412261
6.166281
5.896126
5.616067
5.277318
4.793972
3.99673
3.019313
2.982714
2.328675
1.43424
1.635185
0.5449828
1.157262
2.568666
2.870466
3.48995
3.879758
4.072375
4.556235
5.729421
6.945903
8.194359
9.447215
10.49942
11.42835
12.22005
12.57352
12.278
11.2953
9.890228
8.706645
7.75232
7.111596
6.579645
6.044665
5.683927
5.311706
4.788619
3.748362
3.505964
2.987511
1.765129
2.32556
1.018504
1.412228
3.027044
3.267617
3.758007
4.11972
4.353545
5.074754
6.583179
7.685732
8.393262
8.838267
9.114293
9.478205
10.03715
10.70798
11.37023
11.88986
11.9677
11.446
10.50227
9.571441
8.723948
7.894994
7.319396
6.756533
6.133387
5.184424
3.97961
3.510659
2.203742
2.865165
1.275489
1.671302
2.370042
3.102767
3.816441
4.29457
4.629818
5.489494
7.046529
7.774488
7.672088
7.33262
7.009694
6.959277
7.171108
7.551689
8.07292
8.5712
8.964403
9.143576
9.113204
8.926818
8.465238
7.816926
7.21671
6.782964
6.333074
5.728372
4.709865
4.28425
3.063124
1.802888
1.519535
0.7053872
2.211374
2.616509
3.207609
3.86224
4.409413
4.840927
5.710047
7.096013
7.645583
7.037624
6.290587
5.758919
5.661404
5.814289
6.234882
6.728614
7.179762
7.480385
7.547184
7.400075
7.113177
6.707664
6.273887
5.86979
5.592186
5.333451
4.940897
4.27081
4.138387
3.576644
2.198887
1.959023
0.5958263
1.19272
2.73883
3.016793
3.431845
3.955665
4.497837
4.978666
5.763467
6.877793
7.349305
6.773429
5.921608
5.201291
4.837968
4.930418
5.254537
5.64221
6.032013
6.356033
6.545161
6.563699
6.403693
6.09194
5.689338
5.268076
4.930893
4.700931
4.315417
3.733278
3.698244
3.235178
2.122369
2.186656
0.8982677
1.297095
2.908404
3.251985
3.630699
4.067942
4.573013
5.069442
5.73654
6.576984
6.988375
6.653462
5.976293
5.343631
4.950019
4.864993
4.978697
5.191321
5.43359
5.642984
5.772269
5.799427
5.719764
5.535684
5.249066
4.906174
4.623076
4.386936
3.990158
3.359887
3.337209
2.890266
1.964408
2.051428
0.8442396
1.296886
2.949137
3.378025
3.781681
4.175394
4.634328
5.120157
5.691724
6.324373
6.688684
6.589201
6.194727
5.739768
5.390267
5.189391
5.145615
5.216698
5.339197
5.444626
5.481022
5.42683
5.290545
5.091553
4.824449
4.515024
4.303342
4.13112
3.780403
3.133058
3.110752
2.671839
1.843374
1.956713
0.795652
1.20875
2.872982
3.412802
3.883196
4.264896
4.67653
5.125005
5.626609
6.141016
6.484581
6.553233
6.408158
6.135877
5.86429
5.653566
5.553061
5.545736
5.57502
5.576702
5.506063
5.349015
5.12396
4.858906
4.540718
4.220065
4.067746
3.931625
3.617692
3.011168
2.985813
2.524816
1.798205
1.897667
0.7553161
0.7266722
2.40631
3.109276
3.767964
4.234271
4.643624
5.057049
5.510008
5.969087
6.326912
6.510798
6.533676
6.431389
6.273717
6.146422
6.086426
6.063929
6.022008
5.912896
5.715729
5.437431
5.119128
4.796409
4.436456
4.14635
4.043474
3.898182
3.560546
3.010091
2.942942
2.383623
1.863337
1.607284
0.4832111
1.837309
2.761957
3.467422
4.106446
4.555307
4.929832
5.341208
5.767169
6.138691
6.393574
6.537439
6.613407
6.654592
6.695613
6.715012
6.668409
6.524563
6.27902
5.946562
5.558118
5.189654
4.870375
4.535669
4.367964
4.306372
4.105254
3.674416
3.169036
2.993889
2.228103
2.204026
1.292036
1.506424
3.426411
4.129686
4.770662
5.13428
5.333551
5.566244
5.855749
6.170651
6.469894
6.791704
7.087665
7.301356
7.398281
7.350421
7.158003
6.851784
6.471716
6.045427
5.616334
5.31057
5.101327
4.880174
4.88399
4.871767
4.520081
3.936517
3.438351
3.125394
2.157876
2.742807
1.185236
1.179294
2.816287
3.516031
4.385147
5.105855
5.632444
6.042425
6.414778
6.806375
7.232365
7.589577
7.833025
7.917095
7.809564
7.544373
7.185087
6.793319
6.398286
5.996019
5.653428
5.573679
5.569638
5.503753
5.67147
5.658343
5.013318
4.267934
3.641542
3.324018
2.433644
2.497987
1.041517
0.6397048
2.00477
2.82022
3.66363
4.475119
5.161137
5.799775
6.391064
6.900543
7.286938
7.547786
7.666862
7.585237
7.332629
7.025067
6.735691
6.481927
6.237885
5.971105
5.838389
6.11953
6.312247
6.345553
6.658878
6.534254
5.459952
4.589204
3.71438
3.572159
3.082826
1.918873
0.6231615
1.234175
2.738933
3.417273
3.962762
4.537597
5.074076
5.622008
6.09217
6.368878
6.546499
6.6628
6.541281
6.358195
6.287365
6.294808
6.305578
6.262164
6.158073
6.300273
6.957736
7.2198
7.271421
7.645878
7.304
5.796547
4.79418
3.782101
3.778202
3.051264
1.317803
0.6125249
1.722634
3.0463
3.140718
3.581646
3.993753
4.553442
5.000137
5.156285
5.406706
5.709689
5.583875
5.611172
5.913592
6.231727
6.451244
6.547464
6.579438
6.979322
7.879839
8.085061
8.087341
8.381124
7.869277
6.055004
4.902725
3.818903
4.027939
2.122975
0.7143792
0.7038938
1.892084
2.37304
2.801486
3.135696
3.826904
4.221561
4.198959
4.710861
5.284581
5.070996
5.37489
6.01407
6.497631
6.798784
6.964578
7.10211
7.649878
8.585696
8.755873
8.683612
8.745575
8.031154
5.947868
4.738937
3.739638
2.743539
0.9774395
0.7984857
2.061568
2.385974
2.620221
3.546075
3.802493
3.633449
4.504757
5.279016
4.918597
5.505625
6.339749
6.82877
7.120787
7.324005
7.527076
8.098515
9.042303
9.00615
8.59128
8.457824
7.671437
5.359625
4.382811
3.399362
1.271927
0.8620455
2.1428
2.348096
3.49356
3.639663
3.458429
4.637812
5.459786
4.982919
5.787175
6.676339
7.112008
7.384052
7.56242
7.650193
8.005356
8.868564
8.532824
7.748244
7.515897
6.825414
4.590777
3.747874
1.473462
0.9068096
2.220599
3.592269
3.590094
3.355016
4.687252
5.460845
4.856057
5.758113
6.616732
6.98242
7.188366
7.267049
7.140807
7.194835
8.097947
7.492264
6.351503
6.437667
5.857436
3.710345
1.541504
0.9191578
2.209197
3.58907
3.16359
4.422289
5.136915
4.282072
5.260977
6.110437
6.420913
6.559168
6.535411
6.174591
5.852475
6.932515
6.159974
5.042116
5.293485
3.394083
1.448573
0.8575284
1.75674
2.792142
4.029772
4.826447
3.582819
4.396066
5.249097
5.521679
5.608649
5.519552
4.967411
4.572627
5.934865
5.114298
3.747379
2.476425
1.246448
0.9798628
1.812279
2.233911
2.684906
3.550615
4.44247
4.701019
4.768203
4.684944
3.944955
3.120164
2.71282
2.252252
1.258955
1.128316
1.895626
2.06325
2.08832
1.989123
1.243299
0.683443
1.202909
1.430649
1.543359
1.575145
1.550217
1.480933
1.330235
1.112725
0.6153128
0.6881096
1.336282
1.767295
2.380933
3.089826
2.2584
2.306563
2.292035
2.188609
2.052923
1.980617
2.700198
1.981892
1.375995
1.070909
0.5746226
0.9777705
2.241288
2.123311
2.612319
3.210008
3.820771
3.189097
3.400421
3.287165
3.047685
2.781028
2.547896
2.745727
2.141994
1.71716
1.571958
1.756931
0.774051
0.7432128
1.59602
2.031797
3.089252
3.069736
3.84849
4.379374
4.828692
4.403783
4.42399
4.167584
3.808903
3.454532
3.177437
3.093042
2.586608
2.2299
1.989506
1.796517
1.350138
1.097473
0.5452721
0.7995046
2.139884
2.483332
2.974837
4.177874
4.32422
4.971807
5.350487
5.630758
5.32916
5.190059
4.820398
4.398074
4.022305
3.747425
3.569979
3.154931
2.834351
2.532801
2.169407
1.701297
1.42149
1.389709
0.5469967
0.7983798
2.214243
2.84153
3.447548
4.149132
5.118822
5.307707
5.795028
6.050677
6.223166
6.000616
5.784578
5.34992
4.902989
4.546186
4.31107
4.140673
3.806338
3.496255
3.129908
2.660585
2.145456
1.760045
1.537413
1.40578
0.5643434
0.7913074
2.1897
2.86147
3.655616
4.509103
5.121529
5.800552
5.965912
6.342318
6.545874
6.673566
6.535782
6.335523
5.889384
5.430603
5.093225
4.900887
4.769424
4.492292
4.178025
3.756627
3.205157
2.622531
2.180715
1.901414
1.74915
1.514526
0.5905412
0.7141519
2.062846
2.74974
3.581069
4.519068
5.297316
5.765382
6.212239
6.354783
6.682225
6.891724
7.027209
6.980902
6.881881
6.514549
6.057341
5.709218
5.539125
5.513925
5.339894
5.0454
4.572526
3.942163
3.264772
2.762849
2.489582
2.260378
1.991149
1.538959
0.568476
1.504562
2.322552
3.279061
4.299505
5.149382
5.769794
6.093817
6.388408
6.531391
6.874411
7.170733
7.382403
7.448839
7.466531
7.23914
6.856653
6.521734
6.341558
6.312509
6.206913
5.938423
5.445822
4.832556
4.114487
3.513205
3.156651
2.840073
2.444405
1.879582
1.157372
0.9224289
1.900393
2.802519
3.894984
4.846016
5.548138
5.994366
6.18764
6.433893
6.683967
7.128347
7.515496
7.747025
7.88452
8.000138
7.934682
7.677555
7.361965
7.125831
7.020357
6.937886
6.735003
6.301922
5.762771
5.04674
4.37429
3.866348
3.441053
3.278187
2.447303
1.540416
0.6638205
0.6723688
2.113595
2.641726
3.490942
4.446792
5.258408
5.787417
6.070492
6.272826
6.586524
6.981405
7.669809
8.216382
8.484368
8.597183
8.622049
8.527635
8.318405
8.034385
7.772186
7.581213
7.448126
7.256575
6.904661
6.457981
5.825748
5.059509
4.681747
4.154616
3.742861
3.410582
2.308238
1.653279
0.4932432
1.318905
1.933604
2.748915
3.8226
4.815606
5.546527
5.950302
6.226748
6.476732
7.040273
7.908247
9.100968
10.05375
10.66145
10.92617
10.71531
10.17666
9.513402
8.856045
8.374658
8.031636
7.792491
7.538527
7.213348
6.811044
6.284554
5.560344
4.685422
4.304285
3.858434
3.057491
2.59404
1.468139
1.029189
1.730264
2.345567
3.23544
4.200635
5.111168
5.772257
6.203333
6.48004
6.987149
8.067384
9.412635
10.79075
11.92779
12.90525
13.70013
14.07374
13.82521
12.88266
11.57926
10.35897
9.332818
8.610544
8.047577
7.527007
7.066339
6.592442
6.021874
5.186826
4.593258
4.037512
3.080891
2.893304
1.750209
1.37073
0.6813995
2.342462
2.941665
3.770117
4.601895
5.388041
6.026443
6.489751
6.877627
7.749618
9.014835
9.922943
10.4385
10.71296
11.07955
11.66446
12.3882
13.0453
13.53308
13.59395
13.05755
12.07633
11.06191
10.14125
9.307291
8.584469
7.925529
7.252235
6.432199
5.420156
4.629826
3.547105
3.132334
1.911324
1.926158
0.5648359
1.247605
3.158532
3.714266
4.378027
5.026406
5.66302
6.290633
6.800619
7.30253
8.339913
9.331422
9.281348
8.749629
8.219618
8.040587
8.226085
8.610901
9.17793
9.728519
10.14854
10.31782
10.24535
10.01804
9.537984
8.948464
8.404201
7.956274
7.507849
6.967957
6.225317
5.641615
4.724268
3.4419
2.349141
2.753095
1.070454
1.502235
2.371476
3.309189
4.373751
5.165156
5.81312
6.485164
7.081397
7.657203
8.598607
9.298622
8.625325
7.502803
6.710446
6.502905
6.678616
7.143785
7.704871
8.203433
8.522355
8.577255
8.396969
8.070397
7.637941
7.216273
6.863672
6.605024
6.362605
6.061338
5.672487
5.482145
5.081547
4.106809
3.169764
1.894641
1.308861
1.646735
2.557086
3.723271
4.670941
5.34744
5.923988
6.603259
7.27891
7.901407
8.653673
9.067925
8.359299
7.12399
6.094086
5.589108
5.699689
6.120707
6.594168
7.042927
7.386745
7.553299
7.518719
7.295852
6.933374
6.51777
6.134161
5.833881
5.572182
5.260761
4.930055
4.819982
4.530625
3.918208
3.610816
2.201342
1.361276
1.701363
2.722853
4.049175
5.023113
5.605244
6.061524
6.678459
7.369904
8.022149
8.628973
8.863268
8.289977
7.271888
6.356
5.810052
5.717507
5.889549
6.173995
6.474415
6.705597
6.807563
6.763323
6.590006
6.320715
5.993195
5.666007
5.399624
5.144573
4.81207
4.42224
4.256756
3.930699
3.469445
3.241326
2.137989
1.18606
1.674396
2.768131
4.249713
5.344583
5.916871
6.262408
6.760452
7.392411
8.032235
8.568889
8.764282
8.401249
7.699029
7.004445
6.5266
6.279864
6.242403
6.346142
6.497233
6.599754
6.586605
6.438836
6.183274
5.869822
5.538167
5.235055
5.019129
4.823949
4.527012
4.104956
3.876609
3.486985
3.019967
2.745198
1.996365
1.012453
1.599215
2.764489
4.372104
5.655847
6.305376
6.573748
6.915289
7.422662
7.997006
8.495613
8.740926
8.609362
8.212785
7.744767
7.370126
7.099915
6.976946
6.96171
6.968247
6.90955
6.734278
6.438868
6.062459
5.661623
5.273604
4.955667
4.765893
4.609884
4.346844
3.929155
3.65085
3.192263
2.697873
2.304444
1.872398
0.9303081
1.429449
2.758457
4.267583
5.817892
6.73443
7.049358
7.241619
7.575002
8.019382
8.464739
8.769484
8.838058
8.694267
8.451505
8.239884
8.071421
7.968303
7.879746
7.731658
7.472401
7.093013
6.623166
6.124928
5.657315
5.242696
4.951029
4.796144
4.641174
4.351632
3.911187
3.557117
3.003562
2.532176
1.931143
1.995007
0.8465865
1.168904
3.150836
4.292304
5.854638
7.057036
7.72275
7.937805
8.113606
8.339132
8.6413
8.932069
9.123418
9.192538
9.250848
9.249247
9.204605
9.08652
8.851899
8.479999
7.985992
7.41114
6.813694
6.275842
5.839185
5.497692
5.330256
5.238956
5.039654
4.640593
4.100377
3.605351
2.912824
2.477243
1.653371
2.043739
0.7480935
0.6394038
2.316844
3.348235
4.991505
6.452317
7.529949
8.221124
8.718288
9.015933
9.279985
9.578869
9.90285
10.21681
10.3903
10.40679
10.24575
9.901352
9.400292
8.795452
8.14776
7.509273
6.942827
6.542147
6.292251
6.15364
6.196786
6.155032
5.826691
5.226345
4.480074
3.775034
2.937453
2.41747
1.567062
1.598655
0.441835
1.578347
2.631866
4.167822
5.641547
6.84849
7.776611
8.61819
9.294308
9.847482
10.32664
10.69484
10.88975
10.89493
10.69327
10.28875
9.739944
9.131467
8.533743
7.989208
7.522021
7.204453
7.138097
7.204098
7.350801
7.605369
7.49909
6.934574
6.043416
4.961919
4.007759
3.079456
2.268178
1.612508
1.215266
1.18769
2.239693
3.386987
4.701569
5.856059
6.810933
7.680341
8.407217
8.99551
9.457441
9.752768
9.864961
9.802796
9.574315
9.205539
8.802982
8.452253
8.172708
7.962395
7.839537
7.922583
8.286709
8.683987
9.095697
9.440687
9.093086
8.237982
6.970662
5.454409
4.227141
3.186888
2.107639
1.896759
1.010314
0.6208444
2.075987
2.725746
3.7145
4.700146
5.574979
6.342401
6.975244
7.431489
7.786107
7.968751
8.062392
8.133751
8.141565
8.067797
8.07241
8.174459
8.308946
8.471269
8.727012
9.231739
9.949912
10.57148
11.12657
11.32596
10.61995
9.484223
7.780808
5.857403
4.387398
3.196538
2.034669
1.903569
0.5675061
0.8790617
2.056221
2.736281
3.573495
4.344558
4.9507
5.432703
5.732965
6.103982
6.304037
6.601635
7.030915
7.418253
7.692612
8.134468
8.632245
9.07309
9.522725
10.09981
10.90936
11.75958
12.42986
12.91694
12.7366
11.7058
10.31054
8.340086
6.121239
4.434612
3.153174
1.980435
0.8878093
1.329627
2.090747
2.750963
3.399986
3.847689
4.210977
4.419034
5.009744
5.353829
6.011955
6.849477
7.60283
8.114191
8.869773
9.582912
10.17294
10.80263
11.56942
12.44952
13.17729
13.71005
13.95424
13.57426
12.25446
10.62027
8.390939
5.999704
4.228021
3.031803
1.64332
0.6606786
1.866465
2.262343
2.734365
3.092113
3.457029
3.659795
4.595467
5.121358
6.150855
7.28526
8.320049
8.895176
9.797333
10.55129
11.16676
11.82601
12.55689
13.31981
13.88366
14.27056
14.19731
13.58119
11.94899
10.1536
7.751947
5.394349
3.890293
2.700725
0.8830171
0.7423554
2.03526
2.378236
2.626796
3.059
3.406919
4.666108
5.277985
6.567013
7.821041
8.968967
9.485115
10.408
11.08081
11.61839
12.23425
12.91579
13.55223
13.79915
13.86077
13.50656
12.74994
10.72016
8.78577
6.425608
4.651231
3.275211
1.12422
0.8165289
2.228376
2.431485
2.717546
3.134571
4.676368
5.356602
6.827836
8.115353
9.29003
9.736293
10.64067
11.21159
11.62048
12.06033
12.5192
12.94257
12.8226
12.57206
11.9566
11.13165
8.59445
6.584611