/*--------------------------------*- C++ -*----------------------------------*\
  =========                 |
  \\      /  F ield         | OpenFOAM: The Open Source CFD Toolbox
   \\    /   O peration     | Website:  https://openfoam.org
    \\  /    A nd           | Version:  6
     \\/     M anipulation  |
\*---------------------------------------------------------------------------*/
FoamFile
{
    version     2.0;
    format      ascii;
    class       volScalarField;
    location    "50";
    object      Co;
}
// * * * * * * * * * * * * * * * * * * * * * * * * * * * * * * * * * * * * * //

dimensions      [0 0 0 0 0 0 0];

internalField   nonuniform List<scalar> 
203709
(
0.05942791
0.05284527
0.05274685
0.05095293
0.03660033
0.03005764
0.03789723
0.04032025
0.0407428
0.04130316
0.04624129
0.03438877
0.04446879
0.04227712
0.03123261
0.02660906
0.0221929
0.02291389
0.02881976
0.03119927
0.03135249
0.02974168
0.03117724
0.03984958
0.06615445
0.05857521
0.05263468
0.04824767
0.04156228
0.03433274
0.02594881
0.01564012
0.01539024
0.02071249
0.02232064
0.02486739
0.03248538
0.04423798
0.07623452
0.06335795
0.05869603
0.05290859
0.04809761
0.04706946
0.04359455
0.03666465
0.0287877
0.0197527
0.0121259
0.01203093
0.01905858
0.02560399
0.0699285
0.05424116
0.05299335
0.04771623
0.037866
0.03910215
0.0446176
0.04549659
0.04277345
0.03714017
0.03101503
0.02550477
0.02103982
0.01913533
0.02147906
0.03531873
0.04979007
0.03837487
0.03030938
0.02148415
0.0097622
0.02105661
0.0303099
0.03458835
0.03488775
0.032363
0.02871397
0.02593811
0.02558416
0.02682535
0.0294129
0.03313242
0.08989539
0.06848898
0.05863132
0.04801405
0.03717253
0.03065616
0.04254678
0.04908995
0.05131782
0.05091542
0.04908831
0.04689201
0.04439692
0.04239454
0.04119023
0.04137378
0.04227799
0.04994346
0.09216858
0.08227901
0.07209273
0.06224244
0.05146951
0.05437357
0.06468998
0.06997412
0.07143909
0.07022182
0.06751725
0.06435341
0.06095636
0.05777005
0.05515185
0.05359207
0.05441548
0.05637039
0.09717777
0.08730391
0.07839471
0.0685985
0.05886698
0.06886635
0.07789674
0.08223398
0.08361674
0.08224854
0.07952131
0.07615789
0.07266123
0.06919856
0.06618587
0.06417414
0.06445809
0.067749
0.1019463
0.09178885
0.08003054
0.06997768
0.0647761
0.07645906
0.08445602
0.08831046
0.08941267
0.08842767
0.08621007
0.08317301
0.07990747
0.07665516
0.07380691
0.07207408
0.07299582
0.07596322
0.1039062
0.07886851
0.06760057
0.06925183
0.07923698
0.08610251
0.09001205
0.09123922
0.09056287
0.0888506
0.08641846
0.08365239
0.08088697
0.0786
0.07817608
0.09140644
0.1033637
0.08199336
0.06656238
0.07163238
0.07897242
0.08472113
0.08827977
0.08984782
0.08973974
0.08868806
0.08692183
0.08478392
0.08270754
0.08116333
0.08148391
0.09009205
0.0867188
0.06901451
0.07228682
0.07703721
0.08116706
0.08465273
0.0865736
0.08702105
0.08641372
0.08529046
0.08373748
0.08243745
0.08231993
0.09626991
0.08402419
0.06918137
0.07235389
0.0754021
0.07776443
0.07991453
0.0818245
0.08281581
0.08261955
0.08183096
0.08036991
0.07948782
0.07699135
0.08499185
0.07619278
0.07158866
0.07309866
0.07640596
0.07704094
0.07705213
0.07730663
0.07751527
0.07829491
0.07894632
0.09285716
0.08480534
0.08018986
0.07476924
0.0742874
0.07609077
0.07569523
0.07724611
0.0899975
0.08867582
0.08428531
0.07925007
0.0805681
0.0862208
0.06792675
0.05898795
0.0584774
0.05888324
0.05933925
0.05925006
0.0583189
0.05649973
0.05395109
0.05685639
0.06123317
0.05248082
0.05135621
0.0496788
0.04992099
0.05112161
0.05229739
0.05224554
0.05080181
0.04880705
0.04606579
0.04565698
0.04738577
0.04422699
0.05583469
0.04620335
0.04165288
0.04261959
0.04450444
0.04519547
0.0473953
0.05021588
0.05080339
0.04763285
0.04573867
0.04334338
0.04049912
0.03781496
0.03595084
0.03559091
0.05263983
0.04027145
0.03458685
0.03362661
0.03564041
0.03947806
0.04900995
0.05140666
0.04959331
0.04915111
0.04457989
0.04505632
0.04176892
0.0399426
0.03811671
0.03582492
0.03286636
0.03910684
0.05287968
0.0383366
0.0315685
0.02863593
0.02602387
0.03058562
0.03303128
0.03462993
0.03901148
0.0414212
0.04207511
0.04391796
0.04491419
0.03884694
0.04065001
0.03676005
0.03674686
0.03568958
0.03639578
0.04618639
0.05639486
0.04117635
0.03611064
0.03646545
0.03526018
0.03344741
0.03513005
0.03002859
0.02667904
0.0254301
0.02940699
0.0345113
0.03745415
0.03837105
0.03927882
0.03962636
0.03688657
0.03554287
0.03516922
0.03551551
0.0425943
0.05350729
0.04109272
0.04025212
0.04390767
0.04713988
0.04931566
0.0516594
0.05053489
0.04822252
0.04312151
0.03623139
0.02842626
0.0220987
0.02437675
0.03021463
0.03359237
0.03554774
0.03699296
0.03538521
0.03716966
0.03912202
0.04419502
0.04873047
0.06195896
0.04510125
0.04319483
0.04964896
0.05746209
0.06549727
0.06310717
0.06150843
0.05807886
0.0522466
0.05077029
0.04622874
0.03885345
0.02976401
0.01990786
0.01779293
0.02287416
0.02617736
0.02908317
0.03609211
0.03548401
0.04013035
0.04356681
0.06138164
0.05402879
0.04854227
0.04498579
0.04538902
0.0515697
0.05710473
0.0573316
0.05354012
0.04626694
0.04355989
0.04822917
0.04855871
0.04515186
0.03887707
0.03213078
0.0254056
0.01983552
0.01961182
0.02287977
0.03032432
0.0318338
0.03424982
0.03786885
0.04345007
0.06020119
0.05810244
0.0540293
0.05529852
0.05155207
0.04412244
0.0385512
0.03074673
0.01975448
0.02806398
0.0359634
0.03917429
0.03871083
0.03568701
0.03160601
0.02941447
0.02988689
0.03102882
0.03252017
0.03509297
0.03655329
0.03400443
0.03676541
0.03942708
0.06650741
0.06695873
0.06961331
0.07048931
0.06179533
0.05394967
0.04378467
0.0337822
0.02496061
0.03826512
0.04638043
0.05043658
0.05180057
0.0515821
0.05067055
0.04934899
0.04804524
0.04700867
0.04618155
0.04297835
0.04402562
0.0419807
0.04115619
0.04175345
0.07123827
0.07302935
0.07731549
0.0811633
0.07672226
0.06882952
0.05870288
0.04939447
0.04852923
0.06093829
0.0679668
0.07102124
0.07132128
0.07010485
0.06812049
0.06586736
0.06358223
0.06152182
0.05975684
0.05811151
0.05490691
0.05111464
0.04861649
0.04806415
0.0732505
0.07504983
0.08076953
0.08534677
0.08359509
0.07731806
0.06721242
0.05842113
0.06458824
0.07557817
0.08168083
0.08432737
0.08426551
0.08269458
0.08026255
0.07757642
0.07482033
0.07229522
0.0700991
0.06802719
0.06435177
0.06009112
0.05644263
0.0560833
0.07244474
0.07354549
0.07668835
0.07906643
0.08590117
0.08082035
0.0713383
0.06311092
0.07418296
0.08365431
0.08903717
0.09131795
0.09131134
0.08987917
0.08754372
0.08481767
0.08199417
0.07936199
0.07707151
0.07407008
0.06586871
0.06398746
0.062852
0.06372529
0.06926932
0.06959579
0.07363104
0.07933424
0.08800759
0.07987877
0.07050591
0.06577508
0.07790803
0.08624047
0.09129042
0.09361373
0.0938588
0.09276263
0.09078061
0.08831962
0.08571451
0.08330949
0.08151116
0.08330244
0.07488646
0.06879723
0.06737785
0.06956956
0.06497667
0.06360437
0.06666852
0.07090859
0.07323161
0.07680811
0.06686525
0.068772
0.07792636
0.0853357
0.09002862
0.09247057
0.09310621
0.09246495
0.09088555
0.08876566
0.08646154
0.08427126
0.08158769
0.07490858
0.07309449
0.0702394
0.06950832
0.07333964
0.06495431
0.05853483
0.05804153
0.0610197
0.06308013
0.06982714
0.06413512
0.0693794
0.07534961
0.08154932
0.08626539
0.08900616
0.09006315
0.08970111
0.08834661
0.08634852
0.08413963
0.08269006
0.08623234
0.077993
0.07222012
0.06939565
0.06748642
0.07263868
0.05760762
0.0488386
0.04993717
0.05191797
0.06324893
0.06174437
0.06819948
0.07291508
0.0767249
0.0804791
0.08351774
0.08495681
0.0846552
0.08299484
0.0805042
0.07759512
0.07449978
0.07095323
0.07048806
0.06929542
0.06764276
0.07530358
0.05028141
0.04073901
0.04120687
0.04313416
0.05645515
0.06073529
0.06757289
0.06812557
0.07260739
0.07421498
0.07646486
0.0773285
0.07702673
0.0757062
0.07434772
0.07683364
0.06716969
0.06619554
0.0661239
0.06468221
0.06570757
0.06591042
0.04216151
0.0391606
0.04398108
0.04696409
0.05594591
0.06475847
0.06769222
0.0695978
0.06885243
0.07065303
0.07022175
0.07076515
0.07424043
0.06565578
0.06717149
0.06422409
0.06379734
0.06444596
0.06978019
0.08146966
0.03981746
0.04229348
0.04676528
0.0502296
0.05280926
0.05984226
0.0690205
0.07037345
0.0687343
0.06810925
0.06311737
0.06404402
0.06283953
0.06224862
0.06180688
0.06449088
0.07372634
0.09093663
0.04341238
0.04609179
0.04861705
0.05141276
0.05499589
0.05628107
0.05998145
0.06296045
0.06404206
0.06118327
0.0601461
0.06029408
0.06188133
0.06503689
0.0795723
0.09957408
0.05725942
0.04864802
0.05207545
0.05610163
0.05810232
0.06040818
0.06217737
0.06283849
0.06382508
0.06748413
0.07305856
0.08244441
0.08912775
0.1060607
0.07047521
0.06522657
0.06723102
0.06909553
0.0723736
0.07751873
0.08279905
0.08831922
0.09475086
0.1155762
0.07313122
0.06365294
0.06391528
0.0644298
0.06475559
0.06470185
0.06486482
0.07285647
0.06615543
0.06007457
0.06374471
0.0602593
0.05575917
0.0561803
0.0565406
0.05663145
0.05651752
0.0565435
0.05384437
0.05225704
0.0551714
0.06206256
0.06399401
0.05554715
0.05130045
0.05087823
0.05266833
0.05312185
0.05394546
0.0542815
0.05403236
0.05325425
0.05185175
0.04974541
0.04595497
0.04486118
0.04474103
0.04618112
0.05742106
0.05241011
0.0488773
0.04930864
0.058088
0.05857176
0.05438094
0.05428787
0.05458202
0.05475918
0.05439358
0.05311488
0.05050756
0.04700711
0.04712439
0.04493678
0.03739822
0.03313006
0.03302352
0.03829213
0.04760109
0.04521696
0.04586372
0.05177305
0.05370104
0.04879251
0.04927208
0.05066824
0.05109976
0.05186248
0.05226109
0.05183045
0.05029892
0.04764411
0.04394346
0.04122396
0.03695648
0.03306542
0.02867968
0.02318388
0.02103298
0.01884529
0.0487507
0.0432554
0.04320407
0.04839712
0.04861443
0.04471307
0.0453057
0.04599921
0.04689075
0.04834397
0.04969812
0.05027232
0.04981663
0.04810864
0.04539452
0.0418663
0.0386568
0.03515773
0.03156302
0.0265503
0.01964131
0.01527596
0.009455768
0.008202576
0.04409241
0.04209467
0.04610669
0.04506176
0.04049283
0.04007701
0.03921329
0.04081831
0.0427486
0.04462727
0.04602674
0.04679251
0.04640057
0.04486112
0.04424712
0.04259705
0.04058605
0.038503
0.03521706
0.03137608
0.02872124
0.02183298
0.01822917
0.01791639
0.04366539
0.03973089
0.04528614
0.04319603
0.03740166
0.03556157
0.03424229
0.03375995
0.03478276
0.03670837
0.03928549
0.04154697
0.04273198
0.04338118
0.04371948
0.04327807
0.04351865
0.04241203
0.04083912
0.03915767
0.03696624
0.03509587
0.03255492
0.02857108
0.02546999
0.02981384
0.05031162
0.04326232
0.04489463
0.04224835
0.03737488
0.03577909
0.03639257
0.03692175
0.03608276
0.03452009
0.03261205
0.03012582
0.03104177
0.03591496
0.03971012
0.04199671
0.04282075
0.04323096
0.04273119
0.04254351
0.0412877
0.03995304
0.03861921
0.03927595
0.04156403
0.03924506
0.04186465
0.0512571
0.04698346
0.04327877
0.0471337
0.044514
0.03931838
0.04154802
0.04623323
0.04937023
0.05095312
0.05101155
0.04924464
0.04514113
0.03916
0.03216322
0.02778873
0.03073991
0.03590231
0.03891682
0.04042713
0.04100584
0.0407157
0.04196118
0.04350733
0.04615991
0.0494102
0.05629965
0.05023542
0.05604098
0.04568785
0.04698587
0.04755218
0.04340113
0.04360125
0.04688247
0.05415216
0.06048118
0.06387387
0.06485557
0.06310213
0.05844511
0.05416569
0.04976754
0.04234689
0.0331778
0.0251334
0.02498356
0.03022752
0.03387213
0.0361509
0.03936013
0.04310351
0.04629992
0.04753997
0.05540367
0.05073166
0.05275226
0.05365341
0.04649121
0.04967371
0.05189504
0.05108552
0.04921294
0.04896405
0.05390064
0.06022952
0.06226123
0.06091217
0.05560474
0.05071434
0.05258093
0.05304719
0.04976865
0.04372455
0.03693061
0.03008759
0.02502969
0.02573206
0.03020276
0.03396766
0.03714625
0.03958948
0.04200086
0.04400911
0.04399232
0.04331725
0.05689755
0.05003688
0.04979463
0.05242779
0.05637039
0.05817848
0.05883946
0.05526579
0.05002442
0.04818461
0.04649991
0.04127655
0.03196454
0.03425997
0.0418778
0.04475897
0.04406198
0.04092154
0.03673831
0.03474157
0.03551551
0.03672543
0.03797787
0.03876235
0.03971899
0.04026781
0.04052353
0.04052417
0.0398525
0.04012655
0.04220914
0.05013719
0.05058256
0.05510847
0.06072806
0.06479029
0.06817535
0.06803763
0.06237467
0.05470723
0.04501591
0.03416888
0.02350081
0.03584447
0.04563597
0.05123396
0.05398651
0.05497356
0.05503012
0.05452207
0.05377868
0.05301085
0.0521557
0.0506923
0.0489368
0.04706449
0.04506598
0.04274214
0.0406608
0.03896696
0.03828778
0.05018817
0.05104509
0.05666725
0.06366519
0.06922923
0.07461584
0.07714993
0.07474872
0.0678914
0.05942398
0.04971491
0.04426319
0.05863882
0.06734856
0.07181347
0.07340289
0.07327317
0.07223463
0.07077844
0.06916166
0.06751246
0.06572596
0.0635008
0.06018588
0.05642315
0.05259783
0.04834811
0.04465155
0.04116859
0.03875752
0.04907118
0.05034786
0.05660186
0.0644359
0.07067869
0.07723527
0.08143008
0.08143256
0.07649582
0.06781192
0.05915759
0.06117744
0.07395703
0.08170707
0.08554562
0.08657336
0.08588164
0.08423608
0.0821963
0.08003204
0.07788517
0.07565402
0.07301288
0.06938505
0.06501169
0.06032078
0.05518777
0.05022927
0.04537047
0.04202736
0.04653412
0.04820006
0.05467891
0.06282523
0.06894927
0.07567569
0.08038165
0.08260577
0.07949978
0.07114636
0.06293099
0.07186375
0.08296188
0.08976095
0.09311949
0.093963
0.09317821
0.09141499
0.08917527
0.08675312
0.08428182
0.08168441
0.07866342
0.07457414
0.07065961
0.06622591
0.06144556
0.05583107
0.0502757
0.04696599
0.04296508
0.04462008
0.05080926
0.0588523
0.06434931
0.0704672
0.0761832
0.0798489
0.07756562
0.07030332
0.06459008
0.07695903
0.0865694
0.09264393
0.09579667
0.09672286
0.0961284
0.09454567
0.09238793
0.08992877
0.08729548
0.08453527
0.08155977
0.07697074
0.07285498
0.06938766
0.06579777
0.06006409
0.05457642
0.05219934
0.04667705
0.04216893
0.04562246
0.05272652
0.05756813
0.0628437
0.06863517
0.07155306
0.0710207
0.06508669
0.06722344
0.07801336
0.08637584
0.09186391
0.0949458
0.09609761
0.09579803
0.09444818
0.09240027
0.08989555
0.08704169
0.08393338
0.08023464
0.07665311
0.07271407
0.06981422
0.06742281
0.06187822
0.05543527
0.05478155
0.04072557
0.03750207
0.04401953
0.0498146
0.05357003
0.05786192
0.06084424
0.06126959
0.0610388
0.06797874
0.07590819
0.08333888
0.08848994
0.0916425
0.09303085
0.09289248
0.09157499
0.08939666
0.08664698
0.08376706
0.08117289
0.07698643
0.07333871
0.0702453
0.06657851
0.06103371
0.05853371
0.06259389
0.03662774
0.0328076
0.03589044
0.04147652
0.04274703
0.04551002
0.0500719
0.0531012
0.05912251
0.06646716
0.07271919
0.07812731
0.08308501
0.08638675
0.08789072
0.08762019
0.08591851
0.08320067
0.07978037
0.07685258
0.07454662
0.07200501
0.06911819
0.06686985
0.0693079
0.06237737
0.05800731
0.05922854
0.04013511
0.03213202
0.03203326
0.03607622
0.03524502
0.03831588
0.04417266
0.05093117
0.05726314
0.06336881
0.06850998
0.07266729
0.07560061
0.0790661
0.08049377
0.07974638
0.07736473
0.07434053
0.07071501
0.06896507
0.06719949
0.06538961
0.06314729
0.06277269
0.05687916
0.05474858
0.05574704
0.05720103
0.03332878
0.03050404
0.03692874
0.03760318
0.03796458
0.04294387
0.04884447
0.05458076
0.05985441
0.06404071
0.0674546
0.06965965
0.07072788
0.07087415
0.06994127
0.06867389
0.06657869
0.06527699
0.0637329
0.06293115
0.06241529
0.06645665
0.06401429
0.0584868
0.06044881
0.0710899
0.03356343
0.03302167
0.03870888
0.04003182
0.04083898
0.04616731
0.05100183
0.05572884
0.05975295
0.06264633
0.06423763
0.06508344
0.06491907
0.06394036
0.06336518
0.06240617
0.06120294
0.06105804
0.0647584
0.07084157
0.07198406
0.06571639
0.06163631
0.05743407
0.03608823
0.03356605
0.03479948
0.04135438
0.0432523
0.04398747
0.04782719
0.05171931
0.05529861
0.05798279
0.05958978
0.060203
0.06020469
0.05997356
0.06162935
0.06544538
0.06991196
0.07335059
0.07726317
0.08198631
0.07701762
0.06637018
0.07243422
0.08696717
0.04087458
0.03866152
0.03819833
0.04617074
0.04980176
0.04804716
0.05146054
0.05526284
0.05759686
0.05952622
0.06133376
0.06480991
0.06947446
0.07392642
0.0784383
0.08085866
0.08427027
0.09473129
0.08955257
0.07697043
0.08215556
0.09817624
0.05387876
0.05047068
0.04714964
0.04760984
0.05917442
0.0621924
0.06098772
0.06458339
0.06886869
0.07330097
0.07797188
0.08267525
0.0872764
0.09177506
0.1022825
0.1048701
0.09230401
0.09152399
0.09865099
0.1060147
0.07199399
0.06199219
0.05818516
0.06229184
0.0680885
0.07118875
0.07503368
0.07916175
0.08355945
0.08807108
0.09216757
0.09559762
0.09532641
0.09796757
0.1047404
0.1159098
0.08362604
0.07785853
0.08437348
0.08166174
0.07850283
0.08159138
0.08544027
0.0896255
0.0942358
0.09989501
0.1002223
0.1033211
0.1153884
0.1346276
0.1026417
0.09308926
0.095668
0.0994659
0.1035544
0.1079665
0.1139925
0.1367117
0.07110847
0.06315695
0.06321572
0.0640126
0.06571351
0.07423492
0.0626527
0.05719487
0.05721724
0.06284649
0.06222553
0.05891587
0.05944619
0.06027671
0.06127981
0.05774078
0.05470479
0.05698863
0.05943821
0.06373694
0.05295755
0.05218343
0.05203243
0.05398991
0.05938294
0.06079675
0.05861227
0.05980619
0.06067123
0.06128376
0.06150607
0.0613307
0.06378935
0.06324887
0.05621931
0.05004597
0.04927976
0.05839151
0.04868493
0.04461201
0.05264062
0.05594363
0.05486872
0.05734816
0.05780858
0.05716206
0.05803879
0.05883431
0.05929639
0.05929886
0.0588255
0.05628754
0.05553888
0.05436339
0.05524595
0.05411718
0.04574497
0.04918971
0.04059659
0.04240231
0.05350296
0.05465922
0.0523291
0.05492328
0.0552641
0.0549175
0.05503135
0.05608623
0.05688757
0.05710195
0.05666311
0.05563192
0.05412922
0.05215965
0.05028209
0.0478571
0.05005241
0.04892178
0.0398136
0.03486715
0.03826449
0.04447471
0.05010083
0.04872164
0.05082819
0.05356129
0.05421067
0.054123
0.05374173
0.05302944
0.05261288
0.05268025
0.0525475
0.05157772
0.04996549
0.04793521
0.04573754
0.04403823
0.0426957
0.03987818
0.03907839
0.03607105
0.02867132
0.03173429
0.03709111
0.04298012
0.04791383
0.04665036
0.04962408
0.05113564
0.05151168
0.05141382
0.05106256
0.05063023
0.05029999
0.04999635
0.04927001
0.04759846
0.04474476
0.04147361
0.03867297
0.03666525
0.0349371
0.03325935
0.03164531
0.02905932
0.02497821
0.02162904
0.0204733
0.0283288
0.0398841
0.0397919
0.04506897
0.04490192
0.04729669
0.0481259
0.04820458
0.0475082
0.04657455
0.04632279
0.04640324
0.04672467
0.04691284
0.04652884
0.04509924
0.04242024
0.03979712
0.03699254
0.03388981
0.03050999
0.02772584
0.02550418
0.02200116
0.01707658
0.01098854
0.009090025
0.01698458
0.0209149
0.0453894
0.03781467
0.04628123
0.04617484
0.04597047
0.04610459
0.04530767
0.04386568
0.04169846
0.04161029
0.04259638
0.0437813
0.044764
0.04514881
0.04492447
0.04410939
0.04287065
0.04225379
0.0411909
0.03934835
0.03664037
0.03302104
0.0287779
0.02445715
0.01864294
0.01214756
0.00694143
0.01018305
0.01060558
0.01448283
0.03661833
0.044856
0.04596303
0.04402039
0.04538153
0.04400266
0.04146459
0.03991201
0.03998675
0.04008124
0.04080444
0.04209138
0.04353151
0.04478811
0.04573846
0.04609621
0.04598582
0.04536246
0.04461185
0.04323168
0.04132485
0.03892875
0.03599599
0.03278629
0.02948177
0.02519883
0.02191291
0.0243542
0.02531057
0.02025478
0.0487439
0.03842682
0.04489013
0.04374182
0.04549031
0.04449245
0.04216211
0.04079794
0.0398529
0.03936431
0.03915628
0.03816256
0.03649338
0.03582747
0.03781916
0.04116847
0.04384295
0.04543324
0.04587106
0.04584751
0.04516588
0.0442265
0.04277905
0.04100242
0.03913286
0.03832486
0.03903435
0.04061085
0.03944539
0.04215008
0.03574401
0.04472574
0.04334641
0.0429642
0.04452695
0.04562825
0.04611325
0.04469951
0.04405676
0.04401275
0.04638206
0.05008142
0.05217057
0.05281209
0.05153205
0.04804903
0.04264464
0.03603179
0.03255044
0.03551399
0.03983629
0.04230994
0.04341639
0.0436993
0.0433092
0.04462911
0.04652445
0.04912595
0.05236666
0.05376097
0.05370578
0.05264841
0.05161384
0.05236336
0.041005
0.04783033
0.04571298
0.04701919
0.04770497
0.0477733
0.0479691
0.04908703
0.0543787
0.06096967
0.06564661
0.0679512
0.06733238
0.06358412
0.05715605
0.05320059
0.0461592
0.03732694
0.02997004
0.03024864
0.03531009
0.03890731
0.0413054
0.04485763
0.04865355
0.05184775
0.05436185
0.05585224
0.05634052
0.05523701
0.05918095
0.05125387
0.03936384
0.04714592
0.04550355
0.04874948
0.05050424
0.05256261
0.05366942
0.05256368
0.05588798
0.06284088
0.0669156
0.06739061
0.06376947
0.05678843
0.05664248
0.057551
0.05466351
0.04904827
0.04250072
0.03582233
0.03118683
0.03216528
0.03635928
0.03988806
0.04287825
0.0453723
0.04739181
0.04853405
0.04890202
0.046865
0.05146827
0.04334006
0.05033715
0.04065461
0.04523551
0.04756271
0.0507338
0.05391722
0.0577745
0.06032261
0.05873078
0.05434079
0.05306475
0.05385128
0.05065701
0.04273157
0.03906778
0.04705377
0.05007596
0.04948885
0.04647995
0.0423797
0.04032797
0.04105991
0.04227225
0.04333631
0.04410692
0.04479191
0.04526041
0.04541314
0.04483866
0.04359862
0.0419389
0.04065088
0.03611714
0.04535619
0.04434732
0.0412798
0.04470803
0.04786271
0.05233924
0.05699362
0.0621703
0.06690179
0.06805876
0.06452731
0.05844421
0.04875718
0.03724901
0.02529575
0.03385148
0.04529506
0.05234102
0.05633126
0.05833207
0.0591656
0.05924159
0.0588287
0.05810416
0.05703479
0.05548865
0.05364526
0.05168109
0.04953038
0.04675164
0.04345098
0.03990181
0.03641491
0.03332679
0.03276053
0.04432182
0.03941131
0.04378631
0.04748661
0.0529213
0.0587585
0.06488311
0.07122096
0.07494878
0.07458058
0.06984078
0.06267981
0.05254484
0.0425438
0.05668608
0.06699141
0.07288367
0.07568579
0.07650682
0.07618856
0.07523897
0.073918
0.07229593
0.07025502
0.06762652
0.0642587
0.06050862
0.0565217
0.05192602
0.04684359
0.04141633
0.0360254
0.03114301
0.02787741
0.04506224
0.03791576
0.04189194
0.04599075
0.05199729
0.05855446
0.06546243
0.07260155
0.07792706
0.07983203
0.07720562
0.07097871
0.06214479
0.05812572
0.07257243
0.08195369
0.08713317
0.0892461
0.08935128
0.08827961
0.08659524
0.0845977
0.08236822
0.07978782
0.07664217
0.07274068
0.06828766
0.06343115
0.05792515
0.0517474
0.04499389
0.03826001
0.03181727
0.02699416
0.04632629
0.0383734
0.03867114
0.04309629
0.04929493
0.05607624
0.06307932
0.07058499
0.07678915
0.08008377
0.07906317
0.07336777
0.06605121
0.06991052
0.08256708
0.09086042
0.09542294
0.09716387
0.09698315
0.09560874
0.09355878
0.09112412
0.08839197
0.08530504
0.08173098
0.07757027
0.07313481
0.06830184
0.06284798
0.05634601
0.04898547
0.04194031
0.03467593
0.02967481
0.05170996
0.03706274
0.03700214
0.03881639
0.04474494
0.05129734
0.05786782
0.06542969
0.07203333
0.0759522
0.0758508
0.0714514
0.06609874
0.0766135
0.08745818
0.0946699
0.09873461
0.10033
0.1001564
0.09879372
0.09666279
0.09399983
0.09088139
0.08736485
0.08345654
0.07907114
0.07468698
0.07029269
0.0654938
0.05925746
0.0519171
0.04529855
0.0371123
0.03357066
0.03668697
0.0409481
0.03519984
0.03884837
0.04453005
0.05036236
0.0577611
0.06406378
0.06788443
0.06837687
0.06500476
0.06723101
0.07923422
0.08836609
0.09461172
0.09830881
0.09989975
0.0998516
0.09858307
0.09642453
0.09355641
0.09007469
0.08618101
0.08195203
0.07770079
0.07345527
0.06940902
0.06530996
0.05963108
0.05152007
0.04348381
0.04201409
0.03905798
0.04227944
0.03577957
0.0352364
0.03687092
0.04106338
0.04780817
0.05334886
0.05685771
0.05779784
0.06048125
0.06899329
0.07867084
0.08631241
0.09180185
0.09526219
0.09686304
0.09684244
0.09550682
0.09315834
0.08997992
0.08625417
0.08233152
0.0780058
0.07381545
0.06978592
0.06601813
0.06211621
0.05769547
0.05538293
0.04684615
0.04333721
0.04108875
0.03829178
0.03677439
0.03514485
0.03387802
0.0349503
0.03944343
0.04399906
0.04823965
0.05177268
0.05947297
0.06810748
0.07574751
0.08223756
0.08713513
0.09035239
0.09178486
0.09151111
0.08981618
0.08707527
0.0834967
0.07970845
0.0760376
0.07221988
0.06833868
0.06452766
0.06152558
0.05729214
0.05331422
0.05081656
0.0455714
0.04316973
0.04180713
0.03416113
0.03798692
0.03504615
0.03511354
0.0344385
0.03700852
0.04069709
0.04628691
0.05265778
0.05923853
0.06576331
0.07161165
0.07695881
0.08107721
0.08381782
0.08479701
0.08403462
0.08188874
0.07893891
0.07531727
0.07191406
0.06868596
0.06519851
0.06150626
0.05780223
0.05509456
0.05180595
0.04978635
0.0430375
0.03896557
0.04290315
0.03376344
0.03789811
0.03711262
0.03459839
0.03544184
0.03797441
0.04157882
0.04654292
0.05255807
0.05823883
0.06339414
0.06773884
0.07140334
0.07414485
0.07597611
0.07631873
0.07524749
0.07313766
0.0706644
0.06748227
0.06433167
0.06137784
0.05821488
0.05682144
0.05535427
0.05532675
0.05684432
0.05273907
0.04433791
0.04149215
0.03628087
0.03183705
0.03747513
0.03606521
0.03544567
0.03786169
0.04136154
0.04524967
0.05063332
0.05583762
0.0602117
0.06370391
0.06626939
0.06767366
0.06815826
0.06786161
0.06694426
0.06528241
0.06336476
0.06213314
0.06176012
0.06277915
0.06449646
0.0633303
0.06163643
0.06060312
0.0573775
0.05295223
0.05026199
0.05477864
0.03575084
0.03369884
0.03505188
0.0350961
0.03697502
0.04056187
0.04421092
0.04792723
0.05169676
0.05572379
0.0588692
0.0606628
0.0611586
0.06093474
0.06022257
0.06115743
0.06395426
0.06631759
0.0692583
0.0729781
0.0764534
0.07693836
0.07477744
0.07027989
0.06930022
0.06167972
0.05586415
0.06687929
0.04271321
0.04047121
0.03974688
0.03940618
0.04185554
0.04477471
0.04701106
0.05003444
0.05308953
0.05541583
0.05713266
0.05790894
0.05968838
0.06350522
0.06839011
0.07323979
0.07795685
0.08250468
0.0861373
0.08860097
0.08799417
0.08386655
0.07992607
0.07769207
0.07210758
0.07800169
0.05307249
0.04823192
0.04813581
0.05095152
0.05271761
0.0525454
0.05491216
0.05753257
0.05992686
0.06282521
0.06677814
0.07112176
0.07576932
0.08062287
0.0855082
0.09018613
0.09397451
0.09692371
0.09845367
0.09382395
0.0885577
0.08715264
0.08540216
0.09016389
0.06380297
0.05550459
0.05963579
0.06288327
0.06310955
0.06371716
0.06718021
0.07000855
0.07265749
0.07616111
0.0802137
0.08468852
0.08949084
0.09443044
0.09929635
0.1027484
0.1045549
0.1024774
0.1074347
0.1034748
0.08910375
0.1007709
0.07523208
0.06313455
0.06474801
0.06995861
0.07312055
0.07841095
0.079831
0.08020186
0.08324167
0.08695581
0.09112468
0.09567755
0.1006051
0.1030857
0.1072078
0.1096203
0.1152294
0.1082844
0.09640169
0.1100094
0.08131966
0.07767653
0.07519306
0.07727174
0.08116888
0.08421357
0.08726829
0.0907875
0.09430338
0.09804819
0.1020121
0.1061204
0.1177139
0.1217633
0.1117284
0.1029024
0.1000917
0.1178529
0.0952962
0.0859297
0.08645331
0.09506922
0.09601237
0.09334078
0.09605013
0.09953742
0.1039526
0.1005238
0.09947371
0.1090134
0.1186693
0.1363111
0.1133952
0.1037958
0.1053712
0.1084061
0.1139022
0.1331815
0.06060334
0.05250785
0.05257273
0.0553426
0.05611901
0.05681633
0.05711358
0.05579668
0.0556786
0.0622331
0.04856573
0.04846484
0.0557502
0.05420418
0.05393448
0.05559937
0.05636429
0.05778795
0.05881711
0.05959248
0.0629156
0.0633235
0.05302679
0.05087412
0.05321072
0.050871
0.04750344
0.04944918
0.05179689
0.05265484
0.05554385
0.05784909
0.05828819
0.05964928
0.06103923
0.06207874
0.06260643
0.06117015
0.06105397
0.0585505
0.05582327
0.05585047
0.05230462
0.04837717
0.03903623
0.03872447
0.04291272
0.0469326
0.05007936
0.05393849
0.05652772
0.05826807
0.05970856
0.06121182
0.06266652
0.06367092
0.0639259
0.06326971
0.06176526
0.05963639
0.05692893
0.0539089
0.05462929
0.0481673
0.05156894
0.04599405
0.03251917
0.03911259
0.04519669
0.04630252
0.05082689
0.05385688
0.0558674
0.05675927
0.05730081
0.05831606
0.05977606
0.06119832
0.06207314
0.06211033
0.0613553
0.06004912
0.05831589
0.05620822
0.05456866
0.05254589
0.04883318
0.04904285
0.04088151
0.04254201
0.0314765
0.03796634
0.04434702
0.04517496
0.05002997
0.0530499
0.0551709
0.05638582
0.05615295
0.05508479
0.05523567
0.0567259
0.05809429
0.05871861
0.05838923
0.0572989
0.05579134
0.05409134
0.05233223
0.05084098
0.04889443
0.04589869
0.04060327
0.0371912
0.03157929
0.04254909
0.03126722
0.0369857
0.04294544
0.04414371
0.04832077
0.05138038
0.05343633
0.0547216
0.05510889
0.05447372
0.0529539
0.05133579
0.05142514
0.05260234
0.05285237
0.05205227
0.05051722
0.04864857
0.04680441
0.0451481
0.04373254
0.04186645
0.03875806
0.03398046
0.02713181
0.03086801
0.03319174
0.04199388
0.03856098
0.03697433
0.0419125
0.04268777
0.0465769
0.04885344
0.05080957
0.05190784
0.05225311
0.05188268
0.05096951
0.04964814
0.04818187
0.0465475
0.04517614
0.04422972
0.04288989
0.04148767
0.0410226
0.04020206
0.03902117
0.03698556
0.03406365
0.03015263
0.02484469
0.02081579
0.02807835
0.03069598
0.03207755
0.03873437
0.03543211
0.04103372
0.0412681
0.04481417
0.0468522
0.04811046
0.04880389
0.04869049
0.04787809
0.04670094
0.04596629
0.04613753
0.04588802
0.04489294
0.0431948
0.04082191
0.03777341
0.03647257
0.03699242
0.03719016
0.03643637
0.03452606
0.03135678
0.02695172
0.0207511
0.01579619
0.01983069
0.02436114
0.02509577
0.02919948
0.04340695
0.03722487
0.0400965
0.0434604
0.04536827
0.04636328
0.0463827
0.04556743
0.0441375
0.04386043
0.04520355
0.04662922
0.04767812
0.04815922
0.04773716
0.04660552
0.04513291
0.04354803
0.04178066
0.03963061
0.03681044
0.0333259
0.02961721
0.02595806
0.02188645
0.01634551
0.0116829
0.01485091
0.0165033
0.01665055
0.01628229
0.02100346
0.04879907
0.04348175
0.0396726
0.04244062
0.04424162
0.04529181
0.04524609
0.04391134
0.04363004
0.04447368
0.04512814
0.04561678
0.04642582
0.0475142
0.04866793
0.04944564
0.04962199
0.04915829
0.04821353
0.0468131
0.04514553
0.04300165
0.0404102
0.03737791
0.03373091
0.02947832
0.0245788
0.02079841
0.02076294
0.02017664
0.02019036
0.02043076
0.02236949
0.02230963
0.04471865
0.0416439
0.04036545
0.04298614
0.04434147
0.0448126
0.04428632
0.04469377
0.04574883
0.04532552
0.04382631
0.0423741
0.04147705
0.04091884
0.04169364
0.04371996
0.04602133
0.04777466
0.04861312
0.04845563
0.04780879
0.04659583
0.0450241
0.04308153
0.04079877
0.0382846
0.03814067
0.03890946
0.03968829
0.03874961
0.03764585
0.03524761
0.03625851
0.03412261
0.04740134
0.03916029
0.04166567
0.04343055
0.04449453
0.04467494
0.04598351
0.04802738
0.04773285
0.04815307
0.05124571
0.05394879
0.05504553
0.05423178
0.05127126
0.04632359
0.03999207
0.03688455
0.03952502
0.04301215
0.04489906
0.04556487
0.0454835
0.0452987
0.04726738
0.04877036
0.05219734
0.05418945
0.05454224
0.05360164
0.05183823
0.04951823
0.04695166
0.04151523
0.05671975
0.04518033
0.04015266
0.0427333
0.04418216
0.04514809
0.04665357
0.04964196
0.05185435
0.0514413
0.05470047
0.06211411
0.06756961
0.07075532
0.07099385
0.06801071
0.06206411
0.05669295
0.05022386
0.04192009
0.03460622
0.03451118
0.03929674
0.04273725
0.045571