/*--------------------------------*- C++ -*----------------------------------*\
  =========                 |
  \\      /  F ield         | OpenFOAM: The Open Source CFD Toolbox
   \\    /   O peration     | Website:  https://openfoam.org
    \\  /    A nd           | Version:  6
     \\/     M anipulation  |
\*---------------------------------------------------------------------------*/
FoamFile
{
    version     2.0;
    format      ascii;
    class       volScalarField;
    location    "50";
    object      Co;
}
// * * * * * * * * * * * * * * * * * * * * * * * * * * * * * * * * * * * * * //

dimensions      [0 0 0 0 0 0 0];

internalField   nonuniform List<scalar> 
203709
(
0.0742731
0.06607448
0.06534444
0.06845278
0.06578032
0.05576665
0.05647485
0.05739591
0.05607034
0.05720153
0.06347077
0.05649366
0.04826573
0.0416118
0.04819754
0.05155572
0.05258319
0.0525702
0.05214775
0.0512921
0.05055893
0.04796439
0.05291322
0.04849153
0.02441746
0.02637022
0.03042806
0.03850736
0.0442041
0.04859465
0.05085373
0.05127494
0.0504824
0.04927617
0.04723338
0.04598354
0.04798714
0.06017072
0.02649714
0.01968026
0.0147098
0.01952628
0.03143582
0.03995351
0.04433482
0.04542796
0.0453123
0.04439513
0.04283543
0.04170642
0.04222945
0.05497028
0.04648078
0.04010801
0.03462804
0.02939536
0.02461461
0.02015971
0.02068707
0.02795229
0.03293316
0.03433688
0.03393833
0.03278192
0.03158438
0.03449706
0.04431251
0.06042725
0.06410486
0.05207267
0.04729081
0.04360708
0.04421292
0.04179542
0.03517262
0.0250412
0.01574368
0.01328124
0.01523091
0.01571984
0.01578806
0.01865657
0.02273289
0.02809061
0.04828305
0.05396695
0.04985269
0.0450022
0.04527588
0.0525282
0.05443239
0.05140247
0.04496994
0.03949918
0.03434971
0.02932221
0.02614749
0.02522971
0.02557694
0.02675077
0.02957072
0.03922645
0.03528417
0.03038699
0.02626725
0.02076007
0.02947474
0.04012196
0.04515442
0.0457509
0.04387025
0.04100886
0.03810366
0.03605583
0.03479868
0.0343542
0.03447675
0.03473081
0.03476119
0.037805
0.06088519
0.04775391
0.0355743
0.02527513
0.03181268
0.03320421
0.03013282
0.02949584
0.03168078
0.03247195
0.03279409
0.0333903
0.0341618
0.03514534
0.03601289
0.03630605
0.03770886
0.04075326
0.08101347
0.06781701
0.04951761
0.046019
0.05416931
0.05662683
0.05487084
0.05028034
0.04471234
0.03935505
0.03483496
0.03137836
0.02907845
0.02971793
0.03211656
0.03306422
0.03654374
0.04518934
0.08809387
0.05906433
0.05839626
0.06521181
0.06810666
0.06761662
0.06492303
0.06093645
0.05654229
0.05232456
0.04835428
0.04468969
0.04144738
0.03834868
0.03488657
0.03265638
0.1014069
0.07464322
0.06945824
0.07138211
0.07366512
0.0736641
0.07195333
0.06923175
0.06596909
0.06271509
0.05946581
0.05622485
0.05315284
0.04994997
0.04512954
0.05375923
0.08665885
0.07603644
0.07528825
0.07551542
0.0752107
0.07458317
0.0729945
0.0707007
0.06808345
0.06552246
0.06289417
0.06074787
0.05933113
0.06573611
0.09515032
0.08021921
0.07878533
0.07792808
0.07658304
0.07521605
0.07390413
0.07256935
0.07052684
0.06840768
0.06603535
0.06418546
0.06336413
0.06533899
0.09342509
0.08164808
0.07845386
0.0793415
0.07707613
0.07462526
0.07257915
0.07081754
0.06940644
0.0661878
0.07750166
0.06698974
0.08894276
0.08223967
0.07761491
0.07747418
0.07484265
0.07040764
0.08148005
0.07109175
0.08859257
0.08215296
0.08020048
0.07364239
0.07707404
0.06827759
0.06766463
0.0680532
0.06872707
0.06928755
0.06952539
0.06975594
0.0708559
0.08091547
0.07326154
0.06821694
0.06066653
0.05455431
0.05431469
0.05521743
0.05654745
0.05698939
0.05640578
0.05605715
0.05661442
0.05551826
0.05658049
0.06987046
0.06881177
0.05595086
0.0504649
0.05049522
0.05213921
0.0519905
0.05300237
0.05513064
0.05420477
0.04891954
0.04593448
0.04524732
0.04442105
0.0440748
0.04329183
0.04360999
0.06297815
0.05022815
0.04495388
0.04691046
0.04812834
0.05158041
0.06150635
0.06245034
0.05846039
0.0564828
0.05193197
0.04865057
0.04253221
0.03758739
0.03196844
0.02782963
0.02559641
0.02540452
0.0581441
0.04464691
0.03889919
0.03889919
0.0430929
0.05394801
0.0565175
0.05396214
0.05457423
0.0552831
0.05386368
0.0539556
0.05331947
0.04438043
0.04191908
0.03691267
0.03394622
0.02939863
0.02321174
0.0261015
0.05449844
0.04065256
0.03257432
0.0305657
0.03712056
0.04245525
0.0434454
0.04712197
0.05086366
0.05192165
0.05293653
0.05298821
0.05215766
0.05062487
0.04869587
0.04840007
0.04140171
0.0383402
0.03570874
0.03153971
0.03027608
0.03535101
0.03453658
0.03128953
0.02876575
0.02683591
0.02578534
0.02893199
0.03569943
0.04152594
0.04674777
0.0509684
0.05343587
0.05404473
0.05339637
0.05206224
0.0502631
0.04872776
0.04842274
0.04535669
0.04169416
0.03939918
0.04010102
0.04168146
0.0531808
0.03680006
0.03196164
0.03039763
0.02890563
0.02738726
0.02205293
0.02163041
0.02763279
0.0362307
0.04318637
0.04722181
0.04861556
0.04881891
0.04816062
0.04707324
0.04634859
0.04637975
0.04807538
0.05245532
0.0461906
0.04814193
0.0469853
0.05205743
0.03529399
0.03645484
0.03733927
0.03826566
0.03831393
0.03912106
0.03623813
0.03188832
0.02718117
0.02287766
0.0233863
0.0297078
0.03468601
0.03678312
0.03704063
0.03649139
0.03599509
0.03952002
0.04332395
0.0518228
0.04756156
0.04660129
0.04460346
0.0433167
0.03713912
0.039091
0.04337678
0.04913434
0.05539948
0.05362175
0.05113907
0.047421
0.04727133
0.04484807
0.03863882
0.0297539
0.02152267
0.01694877
0.01666963
0.01853533
0.01962278
0.02372261
0.02761993
0.03143686
0.03187516
0.02840663
0.02719601
0.02480355
0.04552401
0.03852571
0.03973486
0.04426861
0.05355818
0.0539986
0.05097711
0.04815402
0.05468225
0.05675477
0.05413251
0.04841791
0.04307139
0.0380336
0.0330249
0.03040666
0.02954473
0.02965829
0.02988044
0.02884666
0.02784068
0.02503845
0.02287079
0.01601914
0.05927857
0.05247682
0.04585648
0.04015502
0.03810666
0.03668286
0.03252113
0.03357406
0.04397169
0.04860042
0.04893986
0.04684451
0.04391603
0.04107861
0.03905925
0.03791003
0.03763034
0.03779633
0.03761706
0.03618517
0.03599644
0.03428947
0.03233971
0.03033075
0.0707129
0.06629492
0.06316982
0.05777481
0.04800925
0.0384738
0.02770235
0.02860873
0.03390264
0.03387686
0.03334749
0.03422052
0.03450787
0.03455174
0.03498476
0.03589502
0.03714262
0.03826011
0.03836019
0.03776778
0.03795082
0.03641331
0.03459799
0.03331459
0.07813373
0.07483979
0.07177059
0.06749554
0.06706578
0.05434222
0.0445833
0.05148492
0.05684517
0.05748586
0.05515791
0.0515
0.04761712
0.04417496
0.04139922
0.03925572
0.03750727
0.03565023
0.03425375
0.03372055
0.03445494
0.0343045
0.03129444
0.02948945
0.08161458
0.07837068
0.07748634
0.07903676
0.07998761
0.06518399
0.05334823
0.06320929
0.06868075
0.07009012
0.06893168
0.06635311
0.06321393
0.06008024
0.05712079
0.05436945
0.05173409
0.04884249
0.04489769
0.04064609
0.03729092
0.031568
0.02851467
0.02494222
0.0828431
0.07817492
0.07718989
0.07751655
0.07506457
0.07396924
0.06424223
0.06846468
0.07377667
0.07577875
0.07550029
0.07389431
0.07162542
0.06919408
0.06675762
0.06438099
0.06199648
0.05914536
0.0534179
0.04749907
0.04324719
0.04085755
0.03771168
0.0346416
0.08521936
0.07760245
0.07360435
0.07277718
0.07182734
0.07422605
0.07085581
0.07310505
0.07448535
0.07643594
0.07734763
0.07686674
0.07552146
0.07366179
0.07163891
0.06959022
0.06755008
0.0655956
0.06508711
0.05901527
0.05259096
0.04857516
0.04485201
0.04931437
0.08494259
0.06924886
0.06688691
0.06614814
0.07492166
0.07184776
0.07582512
0.0772137
0.07695181
0.07639995
0.0766856
0.07635317
0.07506734
0.07316678
0.07111669
0.06845771
0.06622354
0.06047191
0.05958996
0.05743309
0.05462804
0.05758248
0.08311768
0.06896931
0.06050223
0.0586744
0.07007561
0.07329055
0.0793339
0.075894
0.07812806
0.07711247
0.07507291
0.07458109
0.07382755
0.07189923
0.06935374
0.07219221
0.06219778
0.06294256
0.0616544
0.05956646
0.05805764
0.06191534
0.08021804
0.06141094
0.05742602
0.06002673
0.07011797
0.07660811
0.07766208
0.08001198
0.07515451
0.07543829
0.072696
0.07093323
0.07466069
0.06485682
0.0686931
0.06326434
0.06286443
0.0614571
0.06167971
0.07022572
0.07317581
0.05818963
0.06101223
0.06406246
0.06516981
0.07270457
0.07832211
0.07717651
0.07528029
0.07280619
0.06484384
0.06944487
0.06463873
0.0645286
0.06291221
0.06191326
0.06367705
0.07300252
0.06304965
0.05913133
0.06205337
0.06399734
0.06652638
0.06594404
0.07014259
0.07066909
0.0698963
0.06534573
0.06510194
0.06355115
0.06266198
0.06247525
0.06593088
0.07594501
0.06660432
0.06220858
0.06158632
0.06484179
0.06578839
0.06717972
0.06789784
0.06731766
0.06583618
0.06467058
0.06404226
0.06670482
0.07666613
0.07982388
0.07058794
0.06733474
0.06819969
0.06938556
0.07022214
0.07032503
0.0701098
0.0702097
0.07200904
0.08042385
0.07989864
0.07239236
0.07272653
0.07339463
0.07398106
0.07426338
0.07520728
0.08325039
0.07511788
0.07023715
0.07430947
0.06930453
0.06573439
0.06636586
0.06721782
0.06807096
0.06887066
0.06996904
0.06745949
0.0691384
0.07400577
0.08075171
0.07490607
0.06294246
0.05879795
0.06048498
0.06369882
0.06449913
0.06565169
0.06666849
0.06750007
0.06804683
0.06812831
0.06806759
0.06705239
0.06617672
0.06696324
0.06964204
0.06666234
0.06428205
0.05732348
0.05542431
0.06236061
0.0634851
0.06309558
0.0645655
0.06570604
0.0666131
0.06728214
0.06761847
0.06764785
0.06777805
0.07119772
0.07174649
0.0654231
0.05778021
0.06057947
0.06580984
0.06267501
0.05147648
0.04862853
0.05487952
0.0588804
0.0595324
0.05944454
0.05755876
0.05838183
0.05953575
0.0604486
0.06092835
0.06091747
0.06055293
0.06028506
0.05881929
0.0607984
0.06296846
0.06018077
0.05062467
0.04520476
0.04646199
0.05947716
0.04800705
0.0443322
0.05114993
0.05638721
0.05360555
0.05204573
0.05268277
0.0532751
0.05395962
0.05403449
0.05391163
0.0539578
0.05335637
0.0522889
0.05100657
0.05048348
0.04980078
0.04768974
0.04839958
0.04295223
0.03130639
0.02654876
0.04011015
0.04444895
0.04206036
0.04775137
0.05232502
0.04947789
0.0482386
0.04967725
0.05166862
0.05332652
0.05411227
0.05398407
0.05301855
0.05047689
0.04639467
0.04385992
0.04264838
0.0415527
0.03955996
0.03663853
0.03123328
0.02740013
0.01903696
0.01843124
0.02777073
0.05110169
0.04128585
0.04458849
0.04802588
0.04507259
0.04333497
0.04449645
0.04681051
0.04920793
0.05110168
0.05253235
0.05257341
0.05154091
0.05077662
0.04935194
0.04674329
0.04291166
0.03874935
0.03422507
0.02913379
0.02267485
0.01471459
0.00771856
0.01575429
0.02251257
0.02994283
0.04917788
0.04188683
0.04212
0.04236619
0.04060428
0.03760874
0.03829655
0.04005389
0.04225816
0.04534073
0.04836791
0.05078409
0.05226948
0.05397482
0.05446987
0.05345885
0.05141671
0.04867014
0.0451936
0.04259434
0.03867023
0.03389992
0.02796605
0.02314391
0.02778725
0.0238736
0.02220034
0.02294131
0.04229685
0.03848098
0.0399644
0.03924945
0.03567407
0.03545923
0.03521336
0.03585391
0.03789249
0.04200193
0.04662784
0.05107265
0.0543603
0.05623549
0.05667206
0.05599939
0.05456483
0.05253614
0.05027125
0.04825903
0.04614736
0.04278482
0.04004142
0.04036109
0.03868644
0.03715861
0.02490007
0.01835154
0.04173658
0.04085623
0.04091235
0.03826216
0.03729781
0.03620359
0.03392059
0.03083576
0.02946704
0.03188016
0.03696081
0.04302416
0.04822323
0.05136863
0.05251092
0.05257562
0.05182963
0.05064158
0.04949666
0.04860689
0.0486088
0.05015537
0.05158859
0.05092854
0.04506748
0.04157244
0.02825752
0.02158109
0.04671894
0.04112951
0.04165301
0.03922346
0.03973871
0.04111631
0.04192167
0.04207296
0.04139144
0.03915331
0.0355488
0.03135043
0.02730524
0.02852234
0.03469747
0.03899506
0.04094723
0.04124826
0.04076985
0.04032995
0.04395472
0.04709072
0.05160978
0.05301897
0.050413
0.04486163
0.03564136
0.02692662
0.01977422
0.01650965
0.04635199
0.04536792
0.04485372
0.04295107
0.04298527
0.04552697
0.04980977
0.05397201
0.05602744
0.05564206
0.05325999
0.05020303
0.04798175
0.04222394
0.0342517
0.0274013
0.02183969
0.02050016
0.02295449
0.02455997
0.02972697
0.03382386
0.03611631
0.03616554
0.03407749
0.02953245
0.02233215
0.01869658
0.01705834
0.01672657
0.04835502
0.04865495
0.05033084
0.0502504
0.04485436
0.04521121
0.05140209
0.05752738
0.05967108
0.05875813
0.05534886
0.057221
0.05985105
0.05766562
0.05244811
0.04772396
0.04260819
0.03777906
0.03564441
0.03496432
0.03501214
0.03490234
0.03384952
0.03154253
0.02781917
0.02174706
0.01302765
0.009971261
0.01094684
0.01324053
0.05174269
0.05271138
0.05630202
0.05907375
0.05503675
0.04915245
0.0446267
0.04494432
0.04586642
0.04365206
0.03912759
0.04808391
0.05286713
0.05321448
0.05107761
0.04803975
0.04516375
0.04309405
0.0420009
0.04178566
0.04198386
0.0418228
0.04047178
0.03803636
0.03488388
0.03089369
0.02529695
0.01882047
0.01332768
0.0101512
0.05481531
0.05629095
0.06133526
0.06654944
0.06631095
0.06217735
0.05715889
0.05112129
0.04276914
0.03277287
0.02605023
0.03443222
0.03703894
0.03769287
0.03827585
0.03811249
0.03779764
0.03796341
0.03879142
0.04011124
0.04145893
0.04204406
0.04114326
0.03925326
0.03740243
0.03411717
0.02971522
0.02490156
0.02078129
0.01821803
0.05703857
0.05864639
0.06447232
0.07124557
0.07355345
0.07309981
0.06913474
0.06362492
0.05579484
0.04803804
0.04809084
0.05674774
0.0599738
0.05966797
0.05760119
0.05495293
0.05241576
0.05026529
0.04848552
0.04683229
0.04487694
0.04194634
0.03860037
0.03699424
0.0359365
0.03299521
0.02884936
0.0243706
0.01992019
0.0165068
0.0587092
0.05966116
0.06539072
0.07274861
0.07611515
0.07760233
0.07689817
0.07302899
0.06351201
0.05425848
0.06107258
0.0690054
0.07245061
0.07285662
0.07153683
0.06944864
0.06717664
0.06493589
0.0627371
0.06042432
0.05765486
0.05389037
0.04906129
0.04399072
0.03933134
0.03454354
0.02824587
0.02410105
0.02032091
0.0167086
0.06190993
0.05971697
0.06447457
0.07121446
0.07482446
0.07716168
0.07840872
0.07565642
0.0688479
0.05890338
0.06677873
0.07415859
0.07775331
0.07875517
0.07819327
0.07682082
0.07513279
0.07334155
0.07147681
0.06938803
0.06666188
0.06269528
0.05775355
0.05326172
0.04864138
0.04389774
0.037982
0.0332065
0.02687241
0.02885157
0.06482489
0.05969578
0.06312212
0.07107901
0.07330817
0.07445509
0.07326885
0.06902789
0.06616492
0.07030167
0.07414297
0.07803575
0.07988289
0.08028094
0.07974679
0.0786315
0.07719998
0.07556699
0.07369542
0.07144899
0.06832233
0.06371772
0.05940106
0.05504638
0.04974401
0.04341301
0.03864926
0.03951687
0.06001585
0.05703798
0.06021007
0.06968528
0.06788222
0.06808133
0.06767456
0.06580204
0.06950909
0.07338588
0.07545268
0.07646066
0.07794587
0.0794746
0.07987868
0.07931879
0.078032
0.07631921
0.07409279
0.07200195
0.06937127
0.06637568
0.06262121
0.05882283
0.05751126
0.05111998
0.04560215
0.04447312
0.06104536
0.05544645
0.05443385
0.05745588
0.06228017
0.06119122
0.06014663
0.06363249
0.06925509
0.07320677
0.07560981
0.07598616
0.07617695
0.0765557
0.07788437
0.07777779
0.0763098
0.07452225
0.07170847
0.07009299
0.06799541
0.06562432
0.06257741
0.05932743
0.05314543
0.04939875
0.04904253
0.05194716
0.06297269
0.05147307
0.04781983
0.05827883
0.05573703
0.05610617
0.06180438
0.06663833
0.07084417
0.07337347
0.07442714
0.07411605
0.07455301
0.07412112
0.07428517
0.07263724
0.07167294
0.06952724
0.06706862
0.06549981
0.06328911
0.0619314
0.0593741
0.05474977
0.05444597
0.0634151
0.05291465
0.04426343
0.04876413
0.05656184
0.0543264
0.05964588
0.06333675
0.06712592
0.06975026
0.07142752
0.07152178
0.07181053
0.07138723
0.0700341
0.06929983
0.06751466
0.06601319
0.06416757
0.062421
0.06239811
0.06097216
0.05788024
0.05669498
0.05591858
0.05004155
0.04088177
0.04331404
0.05286925
0.056668
0.05662333
0.06083322
0.06341069
0.06559903
0.06748593
0.06809784
0.06798775
0.06763098
0.06656188
0.0651631
0.06371672
0.06230954
0.06095606
0.0628416
0.06228235
0.0594526
0.05946076
0.06144365
0.06982696
0.04427981
0.0437518
0.04664215
0.05594984
0.0578662
0.06074079
0.05952853
0.06282063
0.06406196
0.06484597
0.06491271
0.06425503
0.06304223
0.06176108
0.06100904
0.06290687
0.06610776
0.06148476
0.06046936
0.06205592
0.06556738
0.07751345
0.05003559
0.04689328
0.04638266
0.05477098
0.06103899
0.0615217
0.06158534
0.06256844
0.06344655
0.06389179
0.06381802
0.06350796
0.06332136
0.06353928
0.06095823
0.06229382
0.06335902
0.06799071
0.0786807
0.08190925
0.04900246
0.05115057
0.05234137
0.05520192
0.05774866
0.05893937
0.05985669
0.06032
0.0604767
0.06064365
0.06126156
0.06318728
0.06202732
0.06320784
0.07265105
0.08875406
0.06038587
0.05629708
0.05326514
0.05500343
0.05804517
0.05803859
0.05850887
0.05903224
0.05984913
0.06176646
0.07074986
0.07742698
0.0769548
0.08979117
0.06939923
0.06224125
0.06281671
0.06399277
0.06595642
0.06965435
0.07508714
0.09355388
0.07394276
0.06808459
0.06765137
0.06774418
0.06872064
0.07434761
0.06983663
0.06469384
0.06432618
0.06948124
0.06781172
0.06546489
0.06574256
0.06623848
0.06695552
0.06327082
0.06276644
0.06326654
0.06660604
0.06900137
0.06319782
0.06261514
0.06006758
0.06238398
0.06036775
0.06212154
0.06667909
0.06796757
0.06877316
0.06934163
0.06960608
0.0699046
0.0722949
0.07324598
0.06749154
0.06074984
0.059727
0.0662586
0.06308714
0.05370371
0.05350602
0.05874281
0.06378241
0.06716005
0.06701388
0.06739465
0.06848984
0.06945121
0.07022174
0.07071007
0.07094938
0.06883733
0.0710179
0.06986355
0.06999631
0.06915257
0.05739138
0.06084771
0.05737686
0.05118646
0.05484904
0.05977297
0.06108537
0.06281758
0.06481399
0.06636159
0.06759161
0.06894872
0.07009138
0.07092927
0.07138974
0.07149424
0.07140734
0.07118761
0.07059601
0.06758698
0.07039695
0.06748952
0.05626505
0.05389859
0.05166444
0.04949311
0.05287803
0.0560029
0.05824218
0.05905897
0.06085809
0.06234779
0.06420314
0.06574523
0.067189
0.06835028
0.06912732
0.0694772
0.06945955
0.06931737
0.06927744
0.06892541
0.06768317
0.06327397
0.06316048
0.05631592
0.04687865
0.05372485
0.04509806
0.04598367
0.05008535
0.04931511
0.0514286
0.05379824
0.05567982
0.05764264
0.05843415
0.05929022
0.06047643
0.06176485
0.06278095
0.06335612
0.06346996
0.0632295
0.06296256
0.06299532
0.06264306
0.0613817
0.05843731
0.05303104
0.04383582
0.04203814
0.0388744
0.0481065
0.03899115
0.04036903
0.04412878
0.04532763
0.04878343
0.05067338
0.05175462
0.05246182
0.05274187
0.05254677
0.0528348
0.05363241
0.05449719
0.05504442
0.05508616
0.05468484
0.0542016
0.05407767
0.05347241
0.05211238
0.04999727
0.04642104
0.04004441
0.03007799
0.03057731
0.03431974
0.03732268
0.04253331
0.04064554
0.03680166
0.04508318
0.04708517
0.04671753
0.04808488
0.04879121
0.04915134
0.04942586
0.04998708
0.0504777
0.0507255
0.05020851
0.04863415
0.0465156
0.04647797
0.04729225
0.04843398
0.0492277
0.04880318
0.04716129
0.04342107
0.03782303
0.03090617
0.02283727
0.02935786
0.03466173
0.0368199
0.03519335
0.03693662
0.03685626
0.04345966
0.04500249
0.04355899
0.04569249
0.04560283
0.04518981
0.04463941
0.04484957
0.04591312
0.04751648
0.04897014
0.04990623
0.05000169
0.04950679
0.04914582
0.04763258
0.04495381
0.04303006
0.04177146
0.03978066
0.03589808
0.02984372
0.02172512
0.01918229
0.02699439
0.03057937
0.03146895
0.03117888
0.03457099
0.04195241
0.03780942
0.041927
0.04217453
0.04407283
0.04312107
0.04163788
0.04121443
0.04235778
0.04378927
0.04535203
0.0475624
0.05018003
0.0527141
0.05465245
0.05576828
0.05578814
0.05463908
0.05244864
0.04948248
0.04568816
0.04166361
0.03671956
0.03048848
0.02293944
0.02427869
0.02536889
0.02448077
0.02572633
0.02484836
0.02557943
0.02782539
0.04026452
0.04120691
0.04230195
0.04309181
0.04275059
0.04090636
0.04110132
0.04151919
0.04199668
0.04290142
0.04480475
0.04800261
0.05172989
0.05521603
0.05777128
0.05911407
0.05923753
0.05838091
0.05673006
0.05446404
0.05171123
0.04876258
0.04545177
0.04118065
0.03978938
0.04098449
0.03735764
0.03035387
0.02129746
0.01756897
0.0204108
0.0227455
0.03851232
0.04406919
0.04407654
0.04299115
0.0417116
0.04183653
0.04134235
0.04026796
0.03879642
0.03753336
0.03823084
0.04074199
0.04474802
0.04941072
0.05341677
0.05579478
0.05654814
0.05629711
0.05525962
0.053749
0.05207117
0.05036011
0.05127412
0.05215347
0.05433631
0.05190114
0.04494206
0.03501006
0.02437992
0.01718713
0.01577318
0.01551497
0.03999809
0.04324016
0.04219748
0.04386437
0.04409432
0.04424511
0.04379687
0.04497383
0.04528819
0.0446377
0.04284329
0.03992583
0.0363013
0.0327302
0.03459797
0.04048453
0.04389822
0.04533892
0.0452983
0.04446506
0.04501331
0.04790785
0.05218497
0.0557601
0.0559822
0.05216569
0.04434666
0.03345112
0.02478138
0.01665822
0.01480357
0.01252311
0.04598319
0.04066362
0.04460317
0.04562141
0.04634097
0.04780702
0.04736803
0.04751767
0.05187219
0.05591404
0.05878957
0.05963374
0.05832778
0.05509952
0.05075119
0.04565146
0.03949583
0.0331906
0.02697084
0.02501716
0.02729017
0.0303886
0.03554819
0.03935027
0.04113937
0.04048357
0.03709511
0.03098321
0.02328734
0.01968666
0.01640954
0.01592979
0.01331096
0.01068103
0.04404481
0.04410453
0.046114
0.04817627
0.05027489
0.05228386
0.05218207
0.05058583
0.05409163
0.06047931
0.0644974
0.06546219
0.06354475
0.06172177
0.0626784
0.06111545
0.05733817
0.05262443
0.0474313
0.04327123
0.04162357
0.04124679
0.04130895
0.04096043
0.03943025
0.0362621
0.03104304
0.02318151
0.01509607
0.0123067
0.01298082
0.01326549
0.01179597
0.009745305
0.04460629
0.04513508
0.04824098
0.05115086
0.05475425
0.0577354
0.0581842
0.05570623
0.05072351
0.05044549
0.0533178
0.0530344
0.04885233
0.05138602
0.05674175
0.05740957
0.05544526
0.05248194
0.04970425
0.04775754
0.04688777
0.04690684
0.04725588
0.04713706
0.04577096
0.04292868
0.03850105
0.032112
0.02438764
0.01794349
0.01263543
0.008860581
0.006616216
0.006786263
0.04566868
0.04633758
0.05010801
0.05371422
0.05862563
0.0632906
0.06523509
0.06391346
0.06136947
0.05634609
0.04820567
0.03856363
0.02821192
0.03503387
0.03989539
0.04186444
0.04260615
0.04223756
0.04173665
0.04180402
0.04269632
0.04423107
0.04587545
0.04680744
0.04630853
0.04437041
0.04112066
0.03625523
0.03019756
0.02516966
0.02035474
0.01581817
0.01192093
0.01044792
0.04686498
0.04713228
0.05120258
0.05520407
0.06095139
0.06691946
0.07088788
0.07127128
0.06972289
0.06636301
0.06084382
0.05331198
0.04666371
0.05716519
0.06255099
0.0640252
0.06337803
0.06181592
0.06004224
0.05835179
0.05673346
0.05495757
0.05267043
0.04945946
0.0451932
0.04231432
0.0405147
0.0371188
0.03231409
0.02747353
0.02219946
0.0168618
0.01270905
0.009327531
0.05101059
0.04813915
0.05115639
0.0553576
0.06134648
0.06776924
0.07288347
0.07557139
0.0750213
0.07210494
0.0660389
0.05972973
0.05957497
0.06963903
0.07504089
0.07698108
0.07681908
0.07559238
0.07393556
0.07210794
0.07010901
0.06776524
0.06478685
0.06086067
0.05597053
0.05066718
0.04540494
0.04016538
0.03472856
0.02986807
0.02525424
0.02041201
0.01614242
0.01684048
0.04935736
0.0469215
0.05409455
0.06011305
0.06596851
0.07121564
0.07504826
0.07640206
0.07400431
0.06816991
0.05995653
0.0664987
0.07534398
0.08041178
0.08262436
0.08298885
0.08230138
0.08108726
0.07959394
0.07783994
0.07566646
0.07277352
0.06883348
0.06400598
0.05888155
0.05365641
0.04845709
0.04329706
0.0384168
0.03217852
0.02784722
0.02570073
0.04580361
0.04643596
0.05517988
0.05735024
0.06184878
0.06692718
0.07076022
0.07269996
0.07172141
0.06710529
0.06199752
0.06892003
0.07592472
0.08080307
0.08347504
0.08457753
0.08460303
0.08390686
0.0827208
0.08113701
0.07910823
0.07648905
0.07297794
0.06857797
0.06379401
0.05872372
0.05343216
0.0483782
0.04400985
0.04123459
0.03581385
0.03261904
0.04378232
0.04545672
0.0500312
0.05315968
0.05712062
0.0615414
0.06437336
0.06595159
0.06553147
0.06301002
0.06567465
0.07045377
0.07483869
0.07835935
0.08157287
0.08350573
0.08429406
0.08408277
0.08305637
0.08141681
0.07922206
0.07667023
0.07356178
0.06984408
0.06550787
0.06073864
0.05591695
0.05077666
0.04646956
0.04284795
0.03888056
0.03672912
0.04600252
0.04110827
0.04255428
0.04848102
0.05184798
0.05445948
0.05671328
0.0576663
0.05806289
0.06036489
0.06596084
0.06997309
0.07332898
0.07592795
0.07837341
0.08093289
0.0822695
0.08233268
0.08124784
0.07946402
0.07706021
0.07455078
0.0717017
0.06830991
0.06423318
0.05959279
0.05500044
0.05058328
0.04751434
0.04138628
0.03715337
0.04260111
0.04038277
0.03557032
0.04498275
0.04648956
0.04736581
0.04920811
0.05148972
0.05425283
0.05932916
0.06370685
0.0673442
0.07096298
0.07345783
0.07481785
0.07738751
0.07881115
0.07893218
0.07779236
0.07607942
0.07376077
0.0710852
0.06826531
0.06484786
0.06087109
0.05675008
0.05321137
0.05227685
0.04977838
0.04342034
0.04323167
0.03854165
0.03368912
0.03847112
0.04209467
0.04279084
0.04562742
0.04985138
0.05397529
0.05775897
0.0610729
0.06489373
0.06822744
0.0705751
0.07179881
0.07336993
0.0742943
0.07434586
0.07331779
0.07151319
0.06929869
0.06657977
0.06344294
0.05986061
0.05707301
0.05577435
0.0542933
0.05348543
0.05040197
0.04802683
0.051524
0.03797731
0.03228221
0.04065133
0.040843
0.04556567
0.04971885
0.05340463
0.05649558
0.0590413
0.06203246
0.06493697
0.06704081
0.06812409
0.06857419
0.06879408
0.06838034
0.06742136
0.06573546
0.06335153
0.06023964
0.05827428
0.0582431
0.05888694
0.05849256
0.05808859
0.05189789
0.04937039
0.06049098
0.03161868
0.03789215
0.04319404
0.04382805
0.04874256
0.05232163
0.05516535
0.05745076
0.059023
0.06108074
0.06287731
0.06379512
0.06386662
0.06321282
0.06203789
0.06061441
0.05910849
0.05810025
0.05830932
0.06032205
0.06246182
0.06272269
0.06300162
0.05962064
0.05519225
0.0657602
0.03330882
0.04017367
0.04481738
0.04789855
0.04931677
0.05351219
0.05567616
0.05728084
0.05839487
0.05921306
0.05955027
0.05940181
0.05886793
0.05827948
0.05813817
0.05889356
0.06015601
0.06189513
0.06491573
0.06841244
0.06929821
0.06233128
0.05925349
0.07050377
0.03478898
0.03922738
0.04920747
0.0505989
0.05032197
0.05364453
0.05557742
0.05679042
0.05766438
0.05804421
0.05816332
0.05818345
0.05850583
0.05962793
0.06198248
0.06434311
0.06581196
0.06997186
0.07166742
0.06880022
0.0660172
0.07536273
0.03948553
0.03994323
0.0494856
0.05216945
0.05195693
0.05297119
0.05432972
0.05635451
0.05666231
0.05716024
0.05785515
0.05999252
0.06401807
0.06806689
0.07032454
0.07054698
0.0741374
0.07139125
0.06816253
0.08111158
0.04951547
0.04335058
0.04594591
0.0506628
0.05884321
0.05950842
0.05652973
0.05872415
0.06223545
0.06580356
0.06954375
0.07316799
0.08210294
0.08455012
0.0749913
0.07430022
0.07814439
0.08171783
0.06229956
0.05596821
0.05734411
0.0650239
0.06749657
0.06579032
0.06854249
0.07174347
0.0756705
0.07896681
0.077403
0.07816614
0.0824661
0.09305826
0.08578032
0.0785412
0.08022287
0.08292245
0.08754825
0.1043409
0.06328524
0.05744135
0.05663976
0.05925256
0.0593498
0.05910003
0.05848172
0.05687037
0.05538449
0.05871542
0.05763053
0.05603276
0.06256985
0.05905346
0.05561826
0.05658091
0.06124051
0.06209425
0.06232576
0.06236364
0.06403279
0.06497307
0.05512816
0.05541118
0.05705078
0.05174659
0.05873703
0.05156222
0.05366049
0.05976024
0.06193854
0.06474336
0.06419126
0.06611346
0.06708914
0.06750109
0.06743948
0.06533047
0.06652178
0.06348217
0.06145583
0.06042801
0.05644409
0.0514795
0.04592287
0.0469288
0.05113391
0.05614674
0.05877451
0.06219716
0.06444426
0.06649673
0.06834776
0.06995154
0.07110378
0.07171909
0.07173192
0.07115748
0.07013817
0.0684169
0.06613538
0.06246034
0.0634042
0.05378652
0.05825479
0.05724792
0.04237631
0.0413749
0.04840084
0.05167455
0.05555416
0.05948599
0.06329001
0.0660494
0.06785583
0.06960043
0.07124748
0.07256963
0.07341716
0.07369569
0.07347452
0.0728522
0.07183143
0.07007858
0.06787106
0.06459268
0.05909569
0.05890689
0.05298066
0.05593767
0.03605948
0.03918572
0.04554805
0.04748651
0.05123589
0.05508946
0.05889917
0.06235446
0.06509128
0.06733603
0.06938737
0.07122323
0.07272092
0.07370282
0.07412275
0.07407707
0.07369793
0.07303093
0.07173097
0.06959305
0.06646217
0.06169431
0.05487464
0.05324151
0.04634529
0.05428414
0.03006992
0.03643139
0.04260446
0.04372452
0.0486833
0.05221357
0.05440939
0.05699524
0.06006922
0.0625592
0.06489992
0.06708189
0.06899678
0.07052023
0.0714914
0.07192941
0.07196063
0.07174334
0.07129492
0.0702519
0.06817789
0.06471565
0.05954554
0.05237247
0.04528665
0.04591469
0.0411006
0.04769031
0.03335205
0.03593455
0.04164391
0.04286536
0.04747556
0.05074297
0.05349706
0.05513026
0.05596403
0.05685602
0.05837502
0.06027298
0.06217551
0.06387406
0.06514835
0.06584082
0.06602682
0.06584645
0.06545255
0.06488178
0.06368123
0.06131798
0.05722511
0.05088659
0.04193022
0.03964525
0.03933911
0.03687699
0.03485287
0.03956465
0.03670954
0.04029908
0.04131077
0.04590322
0.04882408
0.05125451
0.05306299
0.0539296
0.05420241
0.05363705
0.05303464
0.05368589
0.05500099
0.05610156
0.05681394
0.05845291
0.05940058
0.05980218
0.05992532
0.05856809
0.05578884
0.05164373
0.04627696
0.03859064
0.03236339
0.03508498
0.03513171
0.03360092
0.03160345
0.03249693
0.03231885
0.03508654
0.03972032
0.04420812
0.04695515
0.04890951
0.05020309
0.05084805
0.05086926
0.05068902
0.05031508
0.04946742
0.04837587
0.04813148
0.04915532
0.05113948
0.05412792
0.05645915
0.05779627
0.05796301
0.05675169
0.0539892
0.04924791
0.04238329
0.0331625
0.03417018
0.03792762
0.03722517
0.03412005
0.03075448
0.02777891
0.03006034
0.03559166
0.03630437
0.04014433
0.0425082
0.04520466
0.04690204
0.04761946
0.0474977
0.04682504
0.04717242
0.04785324
0.04866875
0.04980464
0.05070189
0.05122001
0.05119051
0.05052932
0.05014205
0.05097863
0.05185433
0.05167191
0.0501145
0.04706678
0.04200364
0.03460044
0.02682045
0.03276013
0.03649081
0.03630388
0.03405254
0.03013545
0.02996286
0.02562982
0.02713687
0.03526901
0.03833636
0.03942414
0.04318909
0.04505511
0.04570534
0.04505415
0.04510093
0.04686584
0.04842458
0.04974749
0.05119304
0.05304213
0.05499649
0.05668202
0.05770826
0.05789945
0.05707414
0.05522965
0.0525328
0.04914555
0.04492408
0.03998007
0.03383908
0.02601802
0.02258462
0.02667468
0.02993108
0.03135469
0.03041016
0.0282119
0.02611465
0.0225109
0.02227091
0.03383804
0.03833806
0.0413784
0.04344915
0.04446058
0.04406667
0.04513489
0.04730405
0.04836681
0.0490099
0.04993203
0.05163928
0.05425299
0.05722839
0.05991849
0.06173564
0.06242425
0.06196545
0.06056891
0.05843873
0.05574892
0.05251749
0.04882893
0.04447585
0.04161175
0.0423001
0.04058179
0.03409906
0.02628336
0.02342346
0.0239734
0.02272686
0.02166205
0.02116393
0.03987387
0.0349158
0.03961897
0.04245361
0.04379723
0.04403387
0.04450433
0.0477179
0.0486871
0.0479349
0.0468354
0.04628113
0.04696116
0.0490576
0.05227252
0.05589698
0.0588974