/*--------------------------------*- C++ -*----------------------------------*\
  =========                 |
  \\      /  F ield         | OpenFOAM: The Open Source CFD Toolbox
   \\    /   O peration     | Website:  https://openfoam.org
    \\  /    A nd           | Version:  6
     \\/     M anipulation  |
\*---------------------------------------------------------------------------*/
FoamFile
{
    version     2.0;
    format      ascii;
    class       volScalarField;
    location    "50";
    object      Co;
}
// * * * * * * * * * * * * * * * * * * * * * * * * * * * * * * * * * * * * * //

dimensions      [0 0 0 0 0 0 0];

internalField   nonuniform List<scalar> 
203709
(
0.06164654
0.05447522
0.05353477
0.05074127
0.03929808
0.03179856
0.04093661
0.04284604
0.04186365
0.04130545
0.04586432
0.03317422
0.04431377
0.04030063
0.03076776
0.02522108
0.02526865
0.02743414
0.03103384
0.03184263
0.03176008
0.03004688
0.02996809
0.04056345
0.05816357
0.05176189
0.04792699
0.04412702
0.03805668
0.03179753
0.02341492
0.01659593
0.0175582
0.02152475
0.02230246
0.0248689
0.03247908
0.04452487
0.07352883
0.06234761
0.05911365
0.05503549
0.0488106
0.04639606
0.04203787
0.03495128
0.02667727
0.01826049
0.01143275
0.01208469
0.01884537
0.02513355
0.07051202
0.0566834
0.05668292
0.05261306
0.04477789
0.03876013
0.04271917
0.04362549
0.04103636
0.03580419
0.0300719
0.0249832
0.02091905
0.01968811
0.02275757
0.03693195
0.04707644
0.04126866
0.03811114
0.03057931
0.0182146
0.02096911
0.0300015
0.0341338
0.03438871
0.03191431
0.02831522
0.0264225
0.02717661
0.02883001
0.03179289
0.03568669
0.08453515
0.06424899
0.05497612
0.04531647
0.03505596
0.02354991
0.03494458
0.04365644
0.04778206
0.04899929
0.04850822
0.0473724
0.04570463
0.04433035
0.04359142
0.04415211
0.04533126
0.05382023
0.08807151
0.07904784
0.06980246
0.06112815
0.05110477
0.0469883
0.05948593
0.06655498
0.06941619
0.06933558
0.06754922
0.06512492
0.06233457
0.05964823
0.05744193
0.05623566
0.05746622
0.0599474
0.09390495
0.08527075
0.07750623
0.06879077
0.05899884
0.0640434
0.07474327
0.08044789
0.08285461
0.08227204
0.08014117
0.0772402
0.07411601
0.07096228
0.06821258
0.06644165
0.06701876
0.07077283
0.09835711
0.08994574
0.08009814
0.07100971
0.06289356
0.07348321
0.08274538
0.08761514
0.08947753
0.08904302
0.08721664
0.08446286
0.08141372
0.0783344
0.07561946
0.07397768
0.07482475
0.07803928
0.1031241
0.07957623
0.06903487
0.06622219
0.07741334
0.08529657
0.08999253
0.09178932
0.09149971
0.09004221
0.08778108
0.08513991
0.08246929
0.08024
0.0798222
0.09315157
0.1026526
0.08266485
0.06619653
0.0696257
0.07800441
0.08451507
0.08865027
0.09062345
0.09078049
0.08989702
0.08823793
0.08617723
0.08415502
0.08261334
0.08264734
0.09109056
0.08804879
0.06677976
0.07098586
0.07648932
0.08125247
0.08516165
0.08737763
0.08801566
0.0875269
0.08647774
0.08497757
0.08370534
0.08356708
0.09746685
0.0852914
0.06876582
0.07157161
0.07519549
0.07800511
0.08048343
0.08255767
0.08368994
0.08358468
0.08284496
0.08140834
0.08078173
0.07812298
0.08546319
0.07758039
0.07114105
0.07303703
0.07668173
0.07756525
0.07774647
0.07811942
0.07841912
0.07927575
0.08012517
0.09431876
0.0867834
0.07986408
0.07492707
0.07464715
0.07661853
0.07634294
0.07798464
0.09098499
0.08995327
0.08432887
0.07956076
0.08103024
0.08678005
0.07089624
0.0613505
0.06052532
0.06066236
0.06080768
0.06030895
0.05888613
0.05652356
0.05340666
0.05577788
0.06490369
0.0557808
0.05395489
0.0518962
0.05177267
0.05270143
0.05359346
0.05315426
0.0512673
0.04883724
0.04565887
0.04469699
0.04598637
0.0424039
0.05911201
0.04962218
0.04531384
0.04547523
0.04679641
0.04692984
0.04882602
0.05140514
0.05158659
0.04794822
0.04571586
0.04296233
0.03980494
0.03685827
0.03457253
0.03324198
0.05536089
0.04424371
0.03936483
0.03832665
0.03943659
0.04252461
0.05137858
0.05321318
0.05087806
0.04986447
0.04471658
0.04491201
0.04125015
0.03959578
0.03755516
0.03519811
0.03265679
0.03940074
0.05408423
0.04035926
0.0334137
0.02980567
0.02900762
0.03651879
0.03886249
0.03871372
0.04177213
0.0432268
0.04293546
0.0439653
0.0448826
0.03851115
0.04023913
0.0360028
0.03593665
0.03482253
0.03600091
0.04637279
0.05624087
0.04029823
0.03441006
0.03364954
0.03204356
0.03083767
0.03199127
0.02822581
0.02564426
0.02772758
0.03237226
0.03608188
0.03805307
0.03868041
0.0392645
0.03895786
0.03632808
0.03498321
0.03390473
0.0369312
0.04484545
0.05782232
0.0399024
0.03739559
0.04014076
0.04250189
0.04384035
0.04536603
0.04497894
0.04326771
0.03914893
0.03366816
0.0270298
0.02310017
0.02603496
0.03051818
0.03302172
0.03462921
0.03572076
0.03576409
0.03681468
0.04083122
0.04593388
0.05087533
0.05929853
0.04278877
0.04049506
0.04673792
0.05419212
0.06228001
0.06062173
0.06029854
0.0582286
0.05357666
0.04790438
0.04356881
0.03625317
0.02759948
0.01893904
0.01725253
0.02175338
0.0245741
0.02897171
0.03562543
0.03516162
0.03977028
0.04290813
0.0598616
0.05276856
0.04743377
0.04387904
0.04457419
0.05145385
0.0574705
0.05947761
0.05752171
0.05208086
0.04528479
0.04583022
0.04631909
0.04325884
0.03770379
0.03153919
0.02559303
0.02075972
0.02089884
0.02396667
0.0312636
0.03292729
0.03510713
0.03851454
0.04377767
0.05791652
0.05563359
0.05126877
0.05162612
0.05063937
0.04802521
0.04469106
0.03880748
0.02887841
0.02734959
0.03538666
0.03856721
0.03813613
0.03527335
0.03158686
0.03032382
0.03169916
0.03332148
0.03501764
0.03766991
0.03912691
0.03610342
0.03871015
0.04109035
0.06374403
0.06394867
0.06624932
0.06614391
0.05789634
0.05095721
0.04170512
0.0320839
0.02016566
0.03086377
0.0409433
0.04672041
0.04962189
0.05073085
0.05090943
0.05048014
0.04989009
0.04939891
0.04896391
0.04591376
0.04718177
0.04477514
0.04371711
0.04414718
0.06843904
0.0700651
0.07404606
0.07751163
0.07323361
0.06629201
0.0574188
0.04875932
0.04145951
0.05577098
0.06430806
0.06865824
0.0700853
0.06982342
0.06862532
0.06701576
0.06525736
0.06362933
0.06222702
0.06090319
0.05796347
0.05399369
0.05131982
0.05071046
0.07073
0.07253399
0.07806885
0.08249925
0.08108573
0.07578468
0.06670664
0.05855755
0.05948868
0.07206778
0.07949359
0.08317498
0.08393936
0.08302462
0.08111017
0.07883014
0.07639183
0.07411738
0.07213675
0.07029733
0.06691236
0.06259063
0.05885181
0.05854167
0.0703754
0.07166834
0.07484097
0.07718297
0.08421669
0.08031162
0.07166832
0.06277464
0.07074715
0.0815372
0.08797844
0.09106052
0.09165269
0.09066253
0.08864907
0.0861557
0.08349655
0.08097236
0.07875319
0.07579807
0.06763571
0.06582372
0.06473778
0.06569441
0.06770388
0.06837327
0.0727232
0.07885613
0.08759393
0.08015769
0.07148043
0.06394848
0.07579474
0.08514408
0.09100242
0.09392986
0.09460197
0.09379326
0.09199701
0.08965203
0.08710963
0.08472452
0.08293482
0.08490521
0.07639382
0.07022044
0.06876589
0.07097531
0.06390163
0.06295352
0.06640345
0.07088956
0.07336746
0.07739257
0.06817327
0.06649184
0.0766836
0.08488232
0.09019188
0.0930777
0.09400821
0.09354757
0.09206749
0.0899929
0.08768732
0.08545104
0.08262894
0.07591939
0.07413854
0.07131359
0.07051522
0.0742764
0.0638198
0.0580259
0.05827855
0.06171866
0.064283
0.0712162
0.06390305
0.06787613
0.07462266
0.08145394
0.08661895
0.08967725
0.09093877
0.09069249
0.08938888
0.08739645
0.085144
0.08363206
0.08726347
0.07898064
0.07310977
0.07021548
0.06792553
0.07287779
0.0576265
0.04942174
0.05093456
0.05313999
0.06310265
0.06016018
0.0672261
0.07253763
0.07681773
0.08090013
0.08412099
0.08570648
0.08548676
0.08384834
0.08133301
0.07852171
0.07524606
0.07150653
0.07109739
0.06994145
0.06822089
0.07557991
0.05061523
0.04157432
0.04128522
0.0434686
0.05489908
0.05950598
0.06699913
0.06788174
0.0727332
0.07456319
0.07699719
0.07798904
0.07776844
0.0764795
0.07516218
0.07766487
0.06796897
0.06678444
0.06666028
0.06509218
0.06698211
0.06826773
0.04268953
0.0374473
0.04240752
0.04574231
0.05510283
0.06404372
0.06729811
0.0696861
0.06909037
0.07107581
0.07071323
0.07131447
0.07495751
0.06633328
0.06786739
0.06496271
0.06447666
0.06513947
0.07084658
0.08345622
0.03816576
0.04097646
0.04566412
0.04939441
0.05223302
0.05955633
0.0688158
0.07033258
0.06893466
0.0684281
0.06348956
0.06452626
0.06333957
0.06275684
0.06233793
0.06505159
0.0745941
0.09250223
0.04207412
0.04502734
0.04774545
0.05076361
0.05453355
0.05599614
0.05990774
0.06298987
0.06417805
0.06139527
0.06042389
0.06058706
0.06233915
0.06584226
0.08048507
0.1006982
0.05579133
0.04768604
0.05129215
0.05546221
0.05764648
0.06012039
0.06202827
0.06280128
0.06368813
0.06731826
0.07315359
0.08270172
0.08970833
0.1072968
0.06920332
0.06435642
0.06656312
0.06861149
0.07181425
0.07690114
0.08238151
0.08811959
0.09480226
0.1159293
0.07439825
0.06454074
0.06469801
0.06509172
0.06529081
0.065091
0.06507177
0.07277487
0.06751788
0.06132603
0.06506207
0.06141434
0.0566155
0.05686953
0.05706591
0.05700941
0.05676148
0.05663636
0.05329269
0.05142134
0.05504468
0.06201104
0.06545649
0.05721499
0.05314377
0.05269308
0.05441014
0.05440552
0.05469977
0.05480002
0.0543362
0.05337766
0.05180459
0.04955104
0.04565647
0.04456027
0.04451155
0.04612841
0.05905748
0.05377341
0.05052655
0.05146192
0.06055102
0.06096279
0.05643298
0.05614063
0.05621282
0.05609707
0.05534068
0.0535906
0.05044595
0.04656229
0.04641116
0.04420034
0.03678848
0.03249722
0.03233281
0.03758553
0.04812741
0.0465888
0.04791342
0.05441229
0.05655813
0.05150398
0.05170062
0.05286743
0.05299893
0.05346324
0.05350908
0.05264781
0.05065188
0.04753347
0.04336655
0.04015989
0.03560829
0.03157033
0.02718445
0.02167278
0.01930478
0.01675377
0.0503089
0.04487415
0.04525197
0.05124376
0.05191015
0.04795478
0.04855088
0.04882581
0.04926804
0.05029033
0.05126636
0.05143812
0.05050847
0.04832401
0.04518885
0.04134339
0.03819577
0.03441556
0.03052365
0.02554153
0.01920434
0.01532739
0.009049846
0.008985294
0.04544467
0.04397809
0.04891156
0.04861913
0.0442934
0.04416099
0.04325038
0.04436041
0.0456345
0.04682383
0.0476727
0.04794909
0.0469936
0.0451965
0.04434006
0.04241663
0.04046363
0.03816233
0.03481714
0.03122514
0.02862386
0.02168533
0.01848837
0.01944549
0.04474345
0.04115225
0.04773501
0.04655059
0.04139377
0.04025752
0.03832723
0.03813842
0.03904827
0.04035712
0.04211367
0.04356973
0.04406782
0.04411732
0.04396148
0.04350652
0.04358356
0.04222873
0.04046159
0.03868775
0.03655534
0.03506635
0.03270292
0.03196034
0.02927998
0.03191072
0.05141992
0.04420029
0.04631758
0.04488782
0.04073295
0.03816854
0.0357448
0.03458579
0.0335123
0.03187329
0.03111958
0.03232616
0.03504301
0.03850093
0.0410969
0.04254907
0.04306527
0.04313356
0.04238167
0.0419546
0.04054784
0.03912262
0.03876281
0.04141539
0.04655418
0.04417451
0.04558335
0.05642054
0.04756751
0.04386978
0.04839379
0.04633958
0.04044297
0.04004407
0.04236495
0.04476541
0.04577246
0.04586076
0.04453488
0.04134051
0.03662343
0.03074586
0.02856308
0.03214666
0.03607217
0.03833522
0.03948219
0.03974904
0.03999632
0.04236527
0.04454083
0.04897099
0.05231047
0.05867673
0.05243868
0.05829237
0.04568499
0.0468878
0.04797638
0.04415593
0.0430786
0.04447361
0.05060956
0.05669902
0.06040976
0.06227452
0.06159614
0.05805301
0.05183894
0.04611921
0.03936061
0.03109421
0.02424097
0.02441159
0.02912209
0.03227642
0.03491828
0.03929029
0.04295401
0.04602786
0.04707516
0.05458056
0.05035286
0.05215282
0.05373714
0.04606682
0.04898567
0.05106429
0.05030883
0.04899986
0.04820859
0.05278787
0.05974104
0.06320698
0.06364265
0.06022428
0.05301262
0.05162021
0.05055573
0.04774124
0.04251988
0.03647162
0.03049253
0.02606039
0.02696946
0.03138867
0.03503002
0.03805187
0.04028714
0.04237353
0.04412832
0.04381364
0.04262983
0.05502723
0.04954152
0.04893971
0.05119715
0.05473086
0.05627319
0.05684179
0.05407184
0.05032583
0.05140633
0.05169183
0.0482928
0.0400711
0.03433239
0.0409827
0.04396587
0.04338048
0.04047425
0.03670521
0.03565848
0.03742366
0.03915307
0.04062874
0.04141303
0.04223874
0.04252151
0.04240664
0.04200846
0.04092008
0.04073025
0.04230004
0.04936489
0.04944423
0.05352783
0.05863617
0.06228814
0.06537273
0.0651214
0.06023369
0.05316215
0.04388271
0.033238
0.02168267
0.02831238
0.04010718
0.04740656
0.05168944
0.0540177
0.05518664
0.05559855
0.05560942
0.0554271
0.05497521
0.05372765
0.05197367
0.04991902
0.04760953
0.0449186
0.04243044
0.04032085
0.03917276
0.04922485
0.04977097
0.05496871
0.06146953
0.0666405
0.07174668
0.07417617
0.07193679
0.06650773
0.05867896
0.04942247
0.03965232
0.05319373
0.06340525
0.06919666
0.07195325
0.07282052
0.07260267
0.07181325
0.0707403
0.069535
0.06810578
0.06615207
0.06298146
0.05915196
0.05512976
0.05065342
0.04660448
0.04275472
0.03999451
0.0480274
0.04907311
0.05497775
0.06240348
0.06837216
0.07476785
0.07898031
0.07930644
0.07517551
0.06775334
0.05950822
0.05563597
0.07007491
0.07917291
0.08410436
0.08602123
0.08603954
0.08494776
0.08333137
0.08148693
0.07958104
0.07754035
0.07506968
0.07157991
0.06720882
0.06243422
0.05723566
0.05201055
0.04686687
0.04328608
0.04550394
0.04702442
0.05325715
0.06111797
0.06712663
0.07385545
0.07873737
0.08137321
0.07906177
0.07178274
0.06379114
0.06791268
0.08041364
0.08837163
0.09261845
0.09413
0.09383519
0.09242017
0.09041891
0.08814963
0.08576232
0.08320452
0.08021764
0.07614954
0.07222787
0.06776951
0.06302595
0.05723104
0.05147371
0.04800737
0.04202206
0.04360293
0.04965664
0.05754036
0.06306932
0.06935476
0.0753697
0.07949557
0.07790991
0.07129609
0.06362822
0.07440027
0.08514357
0.09212926
0.09596016
0.09736411
0.097087
0.09570054
0.09365118
0.09123275
0.08858439
0.0857796
0.08275892
0.07808564
0.0738961
0.07040177
0.06686865
0.06100771
0.05537777
0.05290386
0.04578003
0.04127115
0.04474719
0.05181894
0.05676561
0.06234522
0.06850785
0.0718972
0.07191029
0.06647457
0.0646915
0.07649436
0.085728
0.09190252
0.09547756
0.09695369
0.09684659
0.09559308
0.09357357
0.09104189
0.08811222
0.08490683
0.08110342
0.07741694
0.07338512
0.07041564
0.06804687
0.06237933
0.05569121
0.05498004
0.03980002
0.03690591
0.04268276
0.0493292
0.05351253
0.05822903
0.0616976
0.06255322
0.06084501
0.06641659
0.07512279
0.08317319
0.08880213
0.09228958
0.09389053
0.09386828
0.09259359
0.09040364
0.08759301
0.08461511
0.08192003
0.07760204
0.0738394
0.07062525
0.06677216
0.06120855
0.0586674
0.06257216
0.03579216
0.03217326
0.03419194
0.04155039
0.04308089
0.04603205
0.04969774
0.05309258
0.05767611
0.06558613
0.07236116
0.07819094
0.08345041
0.08697679
0.08863138
0.08844383
0.08676194
0.08401396
0.08051378
0.07748124
0.07507367
0.07242112
0.0694362
0.06704391
0.06945649
0.06252847
0.05803699
0.05897628
0.03925829
0.03109554
0.03069346
0.03554671
0.03467557
0.0379271
0.04272781
0.04960523
0.05626433
0.06274986
0.06825831
0.07274829
0.07587547
0.07952087
0.08107983
0.08040721
0.07803289
0.07497274
0.0712665
0.06943671
0.06757309
0.06564328
0.06328128
0.06332488
0.05731515
0.05494369
0.05644069
0.0585044
0.03234962
0.02937385
0.03537044
0.03586316
0.03629874
0.04170358
0.0477603
0.05373771
0.05929533
0.06376599
0.0674398
0.06986281
0.07110556
0.071323
0.07045569
0.069268
0.06714045
0.06583756
0.06425796
0.06337884
0.0631491
0.06729146
0.06492195
0.05912819
0.06125201
0.0723407
0.03248849
0.03181996
0.03724347
0.03852808
0.03953471
0.04522178
0.05024417
0.05517814
0.05941578
0.0625202
0.06429324
0.06528324
0.06522124
0.06430249
0.0637512
0.06279058
0.0615568
0.06159269
0.06531096
0.07145869
0.07331335
0.06715574
0.06229661
0.05841938
0.03493134
0.03246414
0.03363313
0.04001697
0.04193175
0.04288508
0.04710707
0.05115034
0.05489759
0.05774857
0.05950577
0.06024326
0.06032724
0.0600994
0.06169397
0.0655653
0.07033216
0.07407585
0.07783884
0.08297663
0.07806819
0.06698397
0.07338571
0.08855129
0.03979494
0.03756437
0.03702788
0.04489373
0.04853267
0.04704602
0.05059401
0.05454459
0.05705547
0.05915258
0.06084287
0.0642181
0.06908124
0.07374525
0.07849698
0.0811959
0.08492207
0.09571054
0.09082284
0.07836528
0.08363549
0.09951733
0.05267931
0.04930153
0.04599938
0.04651219
0.0580145
0.06115371
0.06006074
0.0636503
0.06805366
0.07261679
0.07743191
0.08229434
0.08707454
0.0917863
0.1025851
0.1054556
0.09315643
0.0922357
0.09902697
0.107118
0.07065522
0.06099372
0.05731082
0.06144007
0.06725459
0.07042845
0.0743579
0.07858084
0.08308621
0.08772031
0.09196214
0.09557133
0.09557041
0.09846062
0.1051161
0.1162139
0.08253134
0.0769776
0.08350426
0.08089421
0.07785352
0.08100976
0.08493026
0.08919762
0.09390367
0.09967863
0.09996328
0.1032767
0.1158904
0.1354957
0.1018368
0.09246885
0.09510581
0.09896565
0.1031241
0.1076194
0.1137517
0.1365397
0.07203482
0.06389302
0.06393476
0.06467409
0.06624932
0.07456054
0.06340818
0.05789173
0.05792085
0.06366356
0.06302865
0.05959946
0.06008048
0.06083808
0.06172533
0.05803182
0.05487597
0.05697778
0.0594684
0.06375139
0.05396812
0.05299733
0.05276623
0.05478492
0.06061639
0.06202357
0.05941443
0.06055212
0.06132744
0.06182415
0.06190217
0.06156561
0.06376305
0.06315614
0.05626696
0.05028169
0.04972359
0.05873573
0.04904771
0.04541384
0.0539893
0.05745417
0.05614682
0.0583936
0.05886126
0.05812103
0.05887239
0.05950195
0.05978396
0.05960627
0.05895418
0.05622639
0.05544476
0.0543123
0.05527227
0.05434931
0.0459858
0.0494959
0.04057623
0.04310607
0.05491275
0.05628549
0.05403551
0.05679629
0.0571306
0.05644199
0.05618366
0.05704297
0.05759304
0.05754849
0.05687764
0.05563982
0.05394865
0.05187046
0.05002617
0.04769621
0.05004015
0.04892179
0.03996734
0.03527248
0.03898395
0.04551272
0.05142755
0.05032918
0.05265772
0.05567851
0.05643347
0.05627164
0.05569116
0.05473693
0.05385766
0.05340705
0.05292002
0.05165269
0.04980133
0.04756431
0.04521875
0.04346308
0.04214868
0.03941301
0.03872662
0.03575983
0.02847722
0.0319583
0.03777787
0.04393827
0.04918522
0.0481824
0.05156582
0.05342427
0.05407275
0.0540476
0.05349955
0.05277223
0.05209923
0.05141187
0.05022898
0.04804477
0.04469901
0.04105407
0.0380211
0.03606008
0.03455776
0.03268267
0.03052049
0.02783861
0.02376305
0.02040771
0.01967871
0.02698247
0.04062424
0.04054447
0.0462449
0.04631472
0.04917385
0.05049203
0.0509945
0.05058878
0.04970662
0.04915899
0.04881586
0.04865994
0.04836295
0.04745195
0.04544837
0.0422264
0.03980427
0.03676437
0.03384571
0.03023685
0.02720099
0.02473881
0.02099899
0.01597215
0.009107106
0.008112284
0.01434045
0.0178895
0.04642712
0.03855448
0.047342
0.04730447
0.04761706
0.04832123
0.04815348
0.04725721
0.04552277
0.04415107
0.04486615
0.04563116
0.04615619
0.04615354
0.04562145
0.04451813
0.04328918
0.04258932
0.04135913
0.03932212
0.03646156
0.03279617
0.02873289
0.02477736
0.01952735
0.01383655
0.01179803
0.01466361
0.01318907
0.01575975
0.037186
0.04568322
0.04696371
0.04527112
0.04717595
0.04651065
0.0447922
0.04282264
0.04223589
0.04261588
0.04333833
0.04433288
0.04529975
0.04603769
0.04656476
0.0466275
0.04630258
0.04557068
0.04465935
0.04310823
0.04107544
0.03864274
0.03584531
0.03294277
0.03011411
0.0281935
0.02752374
0.02994405
0.03106314
0.02479306
0.04980649
0.03891632
0.04571122
0.0445641
0.04664808
0.04622616
0.04437766
0.04276586
0.04230784
0.04096172
0.03923901
0.03824641
0.03839587
0.03951851
0.04130231
0.04343171
0.04503624
0.04587299
0.04602768
0.04571367
0.04482163
0.0437252
0.04219717
0.04047279
0.03993715
0.04138655
0.04386659
0.04602826
0.04444815
0.04687125
0.03916698
0.04826976
0.04393944
0.04339999
0.04496195
0.04614986
0.04687563
0.04597987
0.04505475
0.04445261
0.04416913
0.04606393
0.04769167
0.04821064
0.04723821
0.04450435
0.04015999
0.03457443
0.0331216
0.03674882
0.0399408
0.04173978
0.04249609
0.04251633
0.0431862
0.04554587
0.04838286
0.05264429
0.05576021
0.05690365
0.0565477
0.05505581
0.05354633
0.05366754
0.04134341
0.04815437
0.04572495
0.04706993
0.04777847
0.04794355
0.04854225
0.04792319
0.05074469
0.05706337
0.06178297
0.06463963
0.06487907
0.06211333
0.05645214
0.04904493
0.04298904
0.03534691
0.02916379
0.0296775
0.03425508
0.03742415
0.04061586
0.04502446
0.04868988
0.05174769
0.0541705
0.05551675
0.05585102
0.0547401
0.05811295
0.04998479
0.04026308
0.04721019
0.04525071
0.04824419
0.04975959
0.05179244
0.05340955
0.05173185
0.05418998
0.06170437
0.06690788
0.06902555
0.06719551
0.0612212
0.05751381
0.05484225
0.05252316
0.04779177
0.04208872
0.03631723
0.03226119
0.03334432
0.0374803
0.04085893
0.04365871
0.04590406
0.04759569
0.0483561
0.04826724
0.04574359
0.04961551
0.04152536
0.05166688
0.04123528
0.04483258
0.0468987
0.04972022
0.05247256
0.0562618
0.0587709
0.05831681
0.05508291
0.05542717
0.05803502
0.05666983
0.05004318
0.04191461
0.04592549
0.04909145
0.04867847
0.04595667
0.04212545
0.0410376
0.04295832
0.04467813
0.04595886
0.04671135
0.04722069
0.04738496
0.04712881
0.0460849
0.04426355
0.04199754
0.04022184
0.0351309
0.04328659
0.04541746
0.04085817
0.04408308
0.04691325
0.0509784
0.0551159
0.06027628
0.06480492
0.06616778
0.06364108
0.05791295
0.04836879
0.03708756
0.02547178
0.0264182
0.03977486
0.04846476
0.05397581
0.05732565
0.0592821
0.06028416
0.06063242
0.06049434
0.05981666
0.05845127
0.05657779
0.0543994
0.05190404
0.04871851
0.04491102
0.04082057
0.03684882
0.03321445
0.03219647
0.04512199
0.03883487
0.04300377
0.04638474
0.05141142
0.05674244
0.06281068
0.06910648
0.07296472
0.0728936
0.06928818
0.06234909
0.05252731
0.04070377
0.05080929
0.06274653
0.07003847
0.07405796
0.07592569
0.07646861
0.07621132
0.07544555
0.07426402
0.07255805
0.07015131
0.06686129
0.06301755
0.05881003
0.05394106
0.04848902
0.04264094
0.036864
0.03155335
0.02795511
0.04561415
0.03777748
0.04103267
0.04485702
0.05051312
0.0566458
0.06319813
0.07070437
0.07630979
0.07859708
0.07653523
0.07126026
0.062717
0.05389137
0.06838583
0.07909618
0.08540646
0.08847319
0.08935543
0.08889132
0.08766413
0.0859998
0.08400599
0.08158994
0.07855791
0.07470879
0.0702111
0.06523151
0.0595805
0.05315928
0.04610945
0.03911004
0.03232255
0.02721855
0.04668138
0.03864087
0.0378104
0.04202129
0.04795766
0.05443686
0.06120015
0.06921947
0.07576103
0.07952549
0.07911171
0.0742598
0.06706469
0.06556444
0.07962444
0.08911565
0.09464072
0.09713344
0.09751463
0.09653975
0.09475714
0.0924838
0.08982751
0.08675468
0.08315963
0.07894821
0.07443288
0.06950609
0.06398126
0.05732607
0.04976548
0.04255666
0.0349988
0.02972601
0.05195375
0.03716991
0.03647771
0.03786516
0.04362531
0.05000433
0.05667155
0.06474391
0.07166926
0.0760831
0.07656021
0.07262081
0.06616106
0.07359394
0.08563297
0.09385596
0.09869473
0.1008474
0.1010489
0.09991788
0.09791081
0.09528822
0.092142
0.08854844
0.08452826
0.08000387
0.07547737
0.07096994
0.06611362
0.05977123
0.05229764
0.04558372
0.03707456
0.03331256
0.03669411
0.04063945
0.03447918
0.03798351
0.04360529
0.04992749
0.0576054
0.0642785
0.0685955
0.06960129
0.06661064
0.06559651
0.07741122
0.08748356
0.09449357
0.09875008
0.1007144
0.1008903
0.09973381
0.09760662
0.09470575
0.09113744
0.0871167
0.08272337
0.0782923
0.07386941
0.06968396
0.06550851
0.05973586
0.05150182
0.04341964
0.0417571
0.03896119
0.04193131
0.03518932
0.03439663
0.03579898
0.0411209
0.04811949
0.05404736
0.0580118
0.05914952
0.06039552
0.06730941
0.07775514
0.08606507
0.0920715
0.09589618
0.09773005
0.09783774
0.09654965
0.09418826
0.09094323
0.08710704
0.08303651
0.07852542
0.07414068
0.06991975
0.06600111
0.06201512
0.05753171
0.05523645
0.04666575
0.04299793
0.04094477
0.03796502
0.03619144
0.03423227
0.03260576
0.03462902
0.03920229
0.0439086
0.04836717
0.05193143
0.05820875
0.0673034
0.0753908
0.08227772
0.08749387
0.0909503
0.09254442
0.09236014
0.09068965
0.08792081
0.0842615
0.08035546
0.07653034
0.07252897
0.06846089
0.06446543
0.06133218
0.05705254
0.05303272
0.05051804
0.04522119
0.04267892
0.04162076
0.03384915
0.03737945
0.03419773
0.03394633
0.03335674
0.03573204
0.03936844
0.04508966
0.0515335
0.05836583
0.06520085
0.07135491
0.07698776
0.08134854
0.08428608
0.08540425
0.08471862
0.08258733
0.0796032
0.07589482
0.07237641
0.06899675
0.06533338
0.06147016
0.05761428
0.05483196
0.05181287
0.05004682
0.04311526
0.03923258
0.04352634
0.03345942
0.03729852
0.036274
0.03356486
0.03418347
0.03681994
0.04033772
0.04561197
0.05167158
0.05751331
0.06289052
0.06748174
0.07138702
0.07433298
0.07633032
0.07678779
0.07577584
0.07366961
0.07115698
0.06788613
0.06462484
0.0615241
0.05855669
0.05711889
0.05620033
0.05617063
0.057709
0.05343838
0.04472257
0.04117295
0.03587594
0.03134209
0.03667792
0.0350875
0.0342902
0.03685915
0.04029818
0.04420351
0.04989908
0.0552302
0.05978023
0.0634685
0.06622142
0.0677912
0.06840774
0.0681971
0.06731857
0.06565368
0.06362943
0.0623906
0.06236066
0.0638406
0.06581014
0.06487317
0.062914
0.06145305
0.05823939
0.05353722
0.05086546
0.05575274
0.03564768
0.03315758
0.03413888
0.03406635
0.03578775
0.03962425
0.04326778
0.0470609
0.05119833
0.05535532
0.05864677
0.06058491
0.06121023
0.06108241
0.06042554
0.06112347
0.06383447
0.06641751
0.06963584
0.07365413
0.07739025
0.07814731
0.0762091
0.07152364
0.07022582
0.06293119
0.05712393
0.06788324
0.04234194
0.03971579
0.03884364
0.03845249
0.04061747
0.04351029
0.04613073
0.04931559
0.05249854
0.05496646
0.05681908
0.05772367
0.05937493
0.0629283
0.06799689
0.07304888
0.07799408
0.08280305
0.08672271
0.08946379
0.08914315
0.08526254
0.0811441
0.07899317
0.07354302
0.07916703
0.0524641
0.04731214
0.04716293
0.05011828
0.05168539
0.05138135
0.05384344
0.0566024
0.05904916
0.06196885
0.06602227
0.07047841
0.07525224
0.08024887
0.08530102
0.09017684
0.09421034
0.09744206
0.09926444
0.09494078
0.09001342
0.08891706
0.08697844
0.09142892
0.06306138
0.05486981
0.05867804
0.06184059
0.06229873
0.06289567
0.06637525
0.06923757
0.07194377
0.07551987
0.07965449
0.0842235
0.08913705
0.09421528
0.09925763
0.1029375
0.1050295
0.1032462
0.1086828
0.1050612
0.09053323
0.1019461
0.07445824
0.06254728
0.06395714
0.06911395
0.07243145
0.07773148
0.07918416
0.07959829
0.0826912
0.08646651
0.09070664
0.09534622
0.1003905
0.1030286
0.1073856
0.1100714
0.1160264
0.1094903
0.09742268
0.1108756
0.08063033
0.0770663
0.07458896
0.07668862
0.08056289
0.08361526
0.08674663
0.09030438
0.09386885
0.09767006
0.1017026
0.1059109
0.1176358
0.1219002
0.1121568
0.103037
0.1003452
0.1197404
0.09462842
0.0853728
0.08593579
0.09453358
0.09552142
0.09291642
0.0956701
0.0992034
0.1036691
0.1003279
0.0994509
0.1091246
0.1190684
0.1369711
0.1128792
0.1033817
0.1050036
0.1080833
0.1136209
0.1328911
0.06115356
0.05295232
0.05309083
0.05595403
0.05677716
0.05746775
0.05767605
0.05622149
0.05589565
0.06215207
0.04890874
0.04885692
0.05624902
0.05473466
0.05474353
0.05647163
0.05702254
0.0584677
0.05945954
0.06012512
0.06323592
0.06349187
0.05307843
0.05105616
0.0534728
0.05097424
0.04783781
0.05013165
0.05252724
0.05322493
0.05619084
0.05854109
0.0590427
0.06042643
0.06178191
0.06271959
0.06308282
0.06143379
0.06118475
0.05856171
0.05588547
0.05596681
0.05257584
0.04878561
0.03956321
0.03942572
0.04369792
0.04767559
0.05095801
0.05496833
0.05739733
0.05920186
0.0606594
0.06213518
0.0634838
0.06431159
0.06435167
0.06348687
0.06182051
0.05961569
0.05697253
0.05407466
0.05504245
0.04846232
0.05205011
0.04649871
0.03296546
0.03976901
0.04603574
0.04729342
0.05205367
0.055273
0.05739943
0.05812473
0.0584689
0.0594756
0.06084602
0.06207931
0.0627035
0.0624849
0.06151292
0.06005321
0.05824131
0.05619572
0.05467745
0.05275287
0.04905706
0.04927496
0.04122182
0.04402276
0.0319221
0.03856681
0.04515369
0.04615136
0.05128332
0.05456702
0.05689127
0.05822339
0.05793336
0.05664861
0.05662382
0.05794694
0.05902798
0.05931549
0.05867922
0.05735041
0.05568757
0.05390625
0.05216793
0.05074497
0.04887969
0.04594972
0.04075143
0.03755888
0.03284825
0.04390807
0.03176241
0.0375722
0.04368793
0.0450776
0.04955236
0.05292477
0.0552789
0.05681473
0.05731211
0.0565722
0.05477442
0.05292818
0.05278091
0.0535578
0.05337182
0.05220062
0.05038071
0.04831431
0.04635433
0.04466147
0.04325863
0.04145154
0.03847252
0.03391048
0.02734497
0.03147315
0.03384502
0.04220353
0.03936
0.03760804
0.0426409
0.04354086
0.04772525
0.05034259
0.05267463
0.05413878
0.05478336
0.05451378
0.05343026
0.05175297
0.04984391
0.04769286
0.04593625
0.04462149
0.04284092
0.0418778
0.04119453
0.04034214
0.03929462
0.03697483
0.03344949
0.02948129
0.02407107
0.02024155
0.02745523
0.03017776
0.0316198
0.03730667
0.03596889
0.04176872
0.04205387
0.04583044
0.04819549
0.04987099
0.05102633
0.05138267
0.050949
0.04988087
0.04865406
0.04756865
0.04695579
0.0456109
0.04360706
0.04093976
0.03759368
0.03698142
0.03756478
0.03743687
0.03635316
0.03410588
0.0306864
0.02617549
0.02001067
0.01531779
0.01927399
0.02228785
0.02314065
0.02699677
0.04529271
0.03797463
0.04083327
0.04433356
0.04649181
0.04787263
0.04839942
0.04819258
0.04716706
0.04630534
0.04634866
0.04765195
0.04846382
0.04867459
0.04802938
0.0468028
0.04532623
0.04372969
0.04192933
0.03969485
0.03680307
0.03333449
0.02929996
0.02493182
0.0204706
0.01490488
0.01138609
0.01427762
0.01606468
0.01658437
0.01627273
0.01968439
0.05062021
0.04478308
0.0402788
0.0431803
0.04511891
0.04643652
0.04683122
0.04612424
0.04579286
0.04593328
0.04689854
0.04760896
0.0484396
0.04931336
0.05007587
0.0504005
0.05020366
0.04946931
0.04832529
0.04685614
0.04510421
0.04289248
0.04030172
0.03735498
0.03396621
0.03018474
0.02643155
0.02612622
0.02653308
0.0258029
0.02532801
0.02474235
0.02527713
0.02364339
0.04640447
0.04240381
0.04098048
0.04363574
0.0450966
0.04581738
0.04543218
0.04603209
0.04717435
0.04746863
0.04683093
0.04579451
0.04508164
0.04502595
0.04566945
0.04678469
0.04802092
0.04878385
0.04890864
0.04848217
0.04760619
0.04625519
0.0446207
0.042693
0.04063108
0.04115927
0.04200675
0.04455236
0.04517752
0.04379542
0.0419505
0.03878819
0.03914235
0.03582214
0.04917623
0.03963712
0.04212465
0.04387635
0.04497518
0.04531488
0.04680229
0.04886542
0.04937122
0.04765748
0.04764408
0.0498409
0.05081116
0.05022709
0.04790315
0.04388379
0.03850553
0.03730613
0.04062074
0.04303565
0.04429241
0.04463874
0.04435937
0.04634859
0.04839072
0.05247333
0.0559339
0.05785272
0.05802651
0.0566961
0.05433915
0.05128172
0.04778766
0.04321803
0.0581182
0.0466983
0.0404613
0.04298128
0.04433672
0.04521302
0.04665794
0.04965345
0.05223306
0.05187906
0.05292927
0.05806572
0.06349447
0.06703868
0.06798654
0.06589202
0.06079141
0.05346759
0.04701758
0.04007065
0.03386919
0.0339084