/*--------------------------------*- C++ -*----------------------------------*\
  =========                 |
  \\      /  F ield         | OpenFOAM: The Open Source CFD Toolbox
   \\    /   O peration     | Website:  https://openfoam.org
    \\  /    A nd           | Version:  6
     \\/     M anipulation  |
\*---------------------------------------------------------------------------*/
FoamFile
{
    version     2.0;
    format      ascii;
    class       volScalarField;
    location    "50";
    object      epsilon;
}
// * * * * * * * * * * * * * * * * * * * * * * * * * * * * * * * * * * * * * //

dimensions      [0 2 -3 0 0 0 0];

internalField   nonuniform List<scalar> 
203709
(
0.007639564
0.00479979
0.004703985
0.00690942
0.008324032
0.006793209
0.004323753
0.002973378
0.002710541
0.003087574
0.004117626
0.005755176
0.008177797
0.006193545
0.003817513
0.003540809
0.003248897
0.002612521
0.002353945
0.002219796
0.002252548
0.00257608
0.00350362
0.005145898
0.006690397
0.003343291
0.002698981
0.002521644
0.002573032
0.002552232
0.002383617
0.002215888
0.002006558
0.001904921
0.001829052
0.001880143
0.002295778
0.004350079
0.003795689
0.002201939
0.001964013
0.001841886
0.001775156
0.001728534
0.001695881
0.00165978
0.001604332
0.001495611
0.001343731
0.001301544
0.001363282
0.002061861
0.006455939
0.002452104
0.001751561
0.001593993
0.001529032
0.00150878
0.00152511
0.001508561
0.001445871
0.001354265
0.001260889
0.001185644
0.001144511
0.001166748
0.001463486
0.002949218
0.003895645
0.001738875
0.001381574
0.001208994
0.001228024
0.001394346
0.001550285
0.001630799
0.001622627
0.001536176
0.001407539
0.001278977
0.001187634
0.001157939
0.001242571
0.002007968
0.008857539
0.003275127
0.001790252
0.001360401
0.001180328
0.001220798
0.001406966
0.001604796
0.001747829
0.00181306
0.001791561
0.001696344
0.001557937
0.001423628
0.001333769
0.001341056
0.001745538
0.003893536
0.005435715
0.002734875
0.001975926
0.001610429
0.001487344
0.001556451
0.001672153
0.001793023
0.001898667
0.001965392
0.00197538
0.001927833
0.001826692
0.001696524
0.001581992
0.001533413
0.001658222
0.002798157
0.005405497
0.002817345
0.00219946
0.001916704
0.001838941
0.001874972
0.001933841
0.001997996
0.002060659
0.00210345
0.002111306
0.002080511
0.002008435
0.001908055
0.001815089
0.00178216
0.001939447
0.003312855
0.009106054
0.003667044
0.002475671
0.002183466
0.002105045
0.002096126
0.002116679
0.002149339
0.002182616
0.002206727
0.002209161
0.002179296
0.002119908
0.002049325
0.002001086
0.002061082
0.002764826
0.006214602
0.005007496
0.002766499
0.002376346
0.002248918
0.002213298
0.002219518
0.002243993
0.002267363
0.002279626
0.002271423
0.002237418
0.00218871
0.002146955
0.002161848
0.002377629
0.00416253
0.008503241
0.003685026
0.002616031
0.00238798
0.002316841
0.002306301
0.002319671
0.00233269
0.002331181
0.002310686
0.002277085
0.00224634
0.002246412
0.002365075
0.003229989
0.00739459
0.00519045
0.002929158
0.00257701
0.002460392
0.002424048
0.002412951
0.002403269
0.002382216
0.002354368
0.00233696
0.002347852
0.002426801
0.002699908
0.004769544
0.0088744
0.004143546
0.003071475
0.002823362
0.002668531
0.002575715
0.002511133
0.002470005
0.002461888
0.00250919
0.002644426
0.002917293
0.003937366
0.008507562
0.009580431
0.005761145
0.004200617
0.003190635
0.002911698
0.002742569
0.002703966
0.002802707
0.003065997
0.004042323
0.005905338
0.009833969
0.009330081
0.005698497
0.004258385
0.003383084
0.003425328
0.004396294
0.006314776
0.01069542
0.01063482
0.006897195
0.00732375
0.01215601
0.007986671
0.004693347
0.004310962
0.004158155
0.003945336
0.003665224
0.003394192
0.003195096
0.003201356
0.004924064
0.006864074
0.004419324
0.003140347
0.00240722
0.002258534
0.002189213
0.002098749
0.00198175
0.001871646
0.001792119
0.00178094
0.002124599
0.002885849
0.004280214
0.006179687
0.002840496
0.002265671
0.002031456
0.001847205
0.001765005
0.001702178
0.001629888
0.001569539
0.001540698
0.001526491
0.001512096
0.001550987
0.001670893
0.002047937
0.003964481
0.005708933
0.002658834
0.001832277
0.001692982
0.001605423
0.001517358
0.001424125
0.001573505
0.001563362
0.001524749
0.00150441
0.001273389
0.001354569
0.001412895
0.001469762
0.001567263
0.001982005
0.003993489
0.005538669
0.002590629
0.001781422
0.001506951
0.001474404
0.001440373
0.002143995
0.002420545
0.002084493
0.001859014
0.001694512
0.001581519
0.00144864
0.00145167
0.001254052
0.001360376
0.001474856
0.001616474
0.002114607
0.004439035
0.005796012
0.002656216
0.00187097
0.001703486
0.001729993
0.003082466
0.003829223
0.004513097
0.005569168
0.004916387
0.003755569
0.002912054
0.002271346
0.001906383
0.001732699
0.001622066
0.001853505
0.001421801
0.001611976
0.001828279
0.002475986
0.005342523
0.003393686
0.001999257
0.001811055
0.001978656
0.003268984
0.004077182
0.005442938
0.006882195
0.008608514
0.009437625
0.009199146
0.007773594
0.005197314
0.003808023
0.002906987
0.002414559
0.002174053
0.002353479
0.001698659
0.0019169
0.002191073
0.003667718
0.006319966
0.002626075
0.001832859
0.001797603
0.001843814
0.003058144
0.003277696
0.003792552
0.004370368
0.005173676
0.00609906
0.007075014
0.007761839
0.007789411
0.007066516
0.005813283
0.004935999
0.004194358
0.003325838
0.002162429
0.002082675
0.002014725
0.002459931
0.00483093
0.00390744
0.002097146
0.00170002
0.001609182
0.001927606
0.002418803
0.002285515
0.002295994
0.002354412
0.002491018
0.002709414
0.002977673
0.003191883
0.003350513
0.003408174
0.003361648
0.003160415
0.002802104
0.002365918
0.002011931
0.001339303
0.001318338
0.001439887
0.002327766
0.003729556
0.002011014
0.001654911
0.001455924
0.001779203
0.001932659
0.001724646
0.00169651
0.00184423
0.002013008
0.002262466
0.002478604
0.002584271
0.002533454
0.002328942
0.002042334
0.001755121
0.00149563
0.001280473
0.001169682
0.0007936496
0.0009608823
0.001137013
0.001895104
0.003742074
0.001992116
0.001614172
0.001572008
0.001697261
0.001666861
0.001458401
0.001351764
0.001305486
0.001406341
0.001613706
0.00182407
0.001988095
0.002069468
0.002041425
0.001908605
0.001702485
0.001471356
0.001262786
0.001168663
0.001357892
0.0008930541
0.00110091
0.001886207
0.003812136
0.002010451
0.001592508
0.001566009
0.001596665
0.001523519
0.001363508
0.001245403
0.001164116
0.001180169
0.001263554
0.001373407
0.001477035
0.001554302
0.00159131
0.001581906
0.001521962
0.001421008
0.001302624
0.001227252
0.001299567
0.0009315752
0.001155433
0.002027035
0.003903226
0.002054618
0.001617684
0.001560248
0.001541428
0.001470125
0.001348473
0.001242213
0.001167439
0.001147577
0.001168268
0.001210046
0.001251914
0.001283684
0.001299885
0.001302377
0.001290145
0.001266013
0.001247639
0.001291544
0.001404329
0.0009936194
0.001245691
0.002237059
0.004016326
0.002121503
0.001693817
0.001593275
0.001549226
0.001482893
0.001393373
0.001307848
0.00124657
0.001212973
0.001202082
0.001202119
0.001202128
0.001197618
0.001187596
0.001175887
0.001166093
0.001168003
0.001225106
0.001445217
0.001341597
0.001089485
0.001362392
0.002490626
0.004195035
0.002217919
0.001790925
0.001441165
0.001503463
0.001492038
0.001450225
0.001396188
0.001351998
0.001317918
0.001293043
0.001271259
0.001247466
0.001221938
0.001196644
0.001177569
0.001168203
0.001189198
0.001345307
0.00173499
0.0009988671
0.001247869
0.001539113
0.002829407
0.004600176
0.002376672
0.001886955
0.001590498
0.001580739
0.001575933
0.001547259
0.001510882
0.001475182
0.001446094
0.001417882
0.001385946
0.001352552
0.001323196
0.001297367
0.001286125
0.001284582
0.001334393
0.00166445
0.001674677
0.001263399
0.001508439
0.001855957
0.003422084
0.007671467
0.003107693
0.002074956
0.001731233
0.001416213
0.001536539
0.001568681
0.001592521
0.001598687
0.001589915
0.00156845
0.001537472
0.001510554
0.001497713
0.001485636
0.001503643
0.001512457
0.001607461
0.002118302
0.001411275
0.001717027
0.00200757
0.002807237
0.006400326
0.004761599
0.002485798
0.001971283
0.0016664
0.001724781
0.001774521
0.001797298
0.001797944
0.001776963
0.001743149
0.001717751
0.001717874
0.001752892
0.001763022
0.00184533
0.001851012
0.002016954
0.002226798
0.002081254
0.002471301
0.002932256
0.004875606
0.007920904
0.003594043
0.002440732
0.002065609
0.001757677
0.001897121
0.001898692
0.001923683
0.001901235
0.001889628
0.001916327
0.001983967
0.002109797
0.002124309
0.002338615
0.002307901
0.002572455
0.002598411
0.003211394
0.00391293
0.005433644
0.01039336
0.007607697
0.003662759
0.00255285
0.002169706
0.001891049
0.001664688
0.001856639
0.001898578
0.002032677
0.002177424
0.002345363
0.00260662
0.00255407
0.00288356
0.002817894
0.003399967
0.004222197
0.005350107
0.00776493
0.01565783
0.006923629
0.003417184
0.002428799
0.002117397
0.001986433
0.001879381
0.001804366
0.002260003
0.002571624
0.002846515
0.00317928
0.002988207
0.003654934
0.004550796
0.005537023
0.007010302
0.01040026
0.02185551
0.006838176
0.00345427
0.00265396
0.002572234
0.002527729
0.002631962
0.002828144
0.003124595
0.003505957
0.004021867
0.004771577
0.005850352
0.007325854
0.008952383
0.01307497
0.0282163
0.007963894
0.005532778
0.004654126
0.003963752
0.004224473
0.004696777
0.005247667
0.005861048
0.006658565
0.007795003
0.009404935
0.01344232
0.01988464
0.03490722
0.01366764
0.009481125
0.01011516
0.01131388
0.01253836
0.01382238
0.01546116
0.01770646
0.02116043
0.03786612
0.007968371
0.004606628
0.004129127
0.00379078
0.003456379
0.003184527
0.003093691
0.00466884
0.007444143
0.00479052
0.00407939
0.002905415
0.00224782
0.002081566
0.001925356
0.001755925
0.001605642
0.00151115
0.001719102
0.002085171
0.002121288
0.003334426
0.006395646
0.002936324
0.002373158
0.002094448
0.001792222
0.00164901
0.00156492
0.001456579
0.001329387
0.001211878
0.001123457
0.001094145
0.001140576
0.001147732
0.001408253
0.002651141
0.006546387
0.003986978
0.002642613
0.001839344
0.001670501
0.001752672
0.00159866
0.001499903
0.001435475
0.001350095
0.001243611
0.001143145
0.001068834
0.001041869
0.001053941
0.0008836447
0.0009713162
0.001241905
0.001463133
0.001943244
0.006043271
0.002753643
0.002020648
0.001654444
0.001584289
0.001509094
0.001565329
0.001474655
0.001410391
0.001362832
0.001294662
0.001203423
0.001114321
0.001047519
0.001024419
0.001038821
0.000951452
0.0009862781
0.0008877766
0.0009211888
0.0009673184
0.001477278
0.005947011
0.002607781
0.001764953
0.00147915
0.001442419
0.00142635
0.001429038
0.001476059
0.001436945
0.001396033
0.001357922
0.001298626
0.001217016
0.001134443
0.001067196
0.001039161
0.001047489
0.001014347
0.001034056
0.001031303
0.0008412785
0.0008625583
0.00096928
0.001589986
0.003243404
0.001725181
0.001334772
0.001321996
0.001349061
0.001400147
0.001526992
0.001611525
0.001607955
0.001561729
0.0015005
0.001412427
0.001313138
0.0012183
0.001138202
0.001096612
0.001093679
0.001092997
0.001120946
0.001158787
0.001310037
0.000895931
0.00100777
0.001462729
0.005038449
0.002132912
0.001335002
0.001251567
0.001306405
0.001458881
0.001714992
0.002104591
0.00237475
0.002554866
0.00250765
0.002280947
0.001979512
0.001713882
0.001500434
0.001350973
0.00125975
0.001211824
0.001204686
0.001230131
0.001269702
0.001390006
0.00166381
0.001040266
0.001413966
0.002850603
0.005465714
0.002372186
0.001491686
0.001298071
0.001282497
0.001518308
0.001995783
0.002697356
0.003708461
0.004611213
0.005437392
0.005985312
0.00555425
0.004406214
0.003380636
0.002561864
0.002049124
0.001733554
0.001559165
0.001499086
0.001423441
0.001422563
0.001454603
0.001616067
0.002049023
0.00123388
0.00183745
0.004307192
0.003237629
0.001709195
0.00122577
0.001306037
0.001462601
0.002016444
0.002886767
0.004108318
0.005599924
0.007361991
0.009231839
0.01102638
0.01194032
0.01150935
0.009543882
0.006540317
0.004662482
0.003420329
0.00270122
0.002293453
0.002105126
0.001954094
0.001915871
0.001875618
0.002135773
0.001347703
0.001736218
0.003142689
0.002923783
0.001512522
0.001319985
0.001365191
0.001684637
0.002510157
0.003372217
0.004274798
0.005071029
0.0058467
0.00670172
0.007790937
0.009050165
0.01018819
0.01087217
0.0106566
0.009540623
0.007648939
0.006296469
0.005278451
0.004372433
0.00355513
0.002983611
0.002557299
0.002279947
0.002395465
0.001693629
0.002967647
0.006213014
0.00233019
0.001400673
0.001359052
0.001413682
0.001800492
0.002686773
0.003272891
0.003478606
0.003417031
0.003255165
0.003159864
0.003196595
0.003341159
0.003720071
0.004103377
0.004424872
0.004606803
0.004597687
0.004360979
0.003850396
0.003215121
0.002679655
0.002188394
0.00192159
0.001726303
0.001661496
0.001364392
0.001997684
0.004413136
0.003940854
0.001867876
0.001342369
0.001375827
0.00144234
0.001790578
0.002538812
0.002944404
0.002763323
0.002378655
0.002104626
0.002094498
0.002208447
0.002465079
0.002725838
0.002886407
0.002888364
0.00271481
0.002429754
0.002121683
0.001819199
0.00156255
0.001362067
0.001186373
0.001113843
0.001079369
0.001125546
0.0009761061
0.001256339
0.002190891
0.003856663
0.001828614
0.001333249
0.001384338
0.001450955
0.00172058
0.00226802
0.002536431
0.002304611
0.001871799
0.001546486
0.001384121
0.001412823
0.001617488
0.001841605
0.002030943
0.002145128
0.002147391
0.002034318
0.001829617
0.001580789
0.001339233
0.001154268
0.001044995
0.0009090115
0.0008753683
0.0009591625
0.0007947504
0.001005311
0.001687048
0.004037107
0.001886869
0.001361592
0.001397144
0.001451369
0.001640031
0.001999995
0.002177628
0.002003011
0.001673023
0.001387011
0.001177581
0.001119227
0.001173095
0.001274757
0.001383133
0.001472625
0.00152588
0.001533629
0.001488859
0.001395262
0.001270129
0.001148647
0.001046583
0.0009228836
0.0008925358
0.001017999
0.0007636206
0.0009507597
0.001569998
0.004303849
0.001993082
0.001417561
0.001420819
0.001453888
0.001577449
0.001797079
0.001920915
0.001827921
0.00161772
0.001391182
0.001205539
0.001105963
0.001081954
0.001103035
0.001140503
0.001175311
0.001197504
0.001205184
0.001197479
0.001174122
0.001140982
0.001111179
0.001060439
0.000971149
0.0009664222
0.001159902
0.0008110604
0.001005809
0.001663888
0.004621237
0.002132127
0.001496774
0.001458599
0.001463861
0.001540186
0.001672844
0.001764249
0.001739827
0.001620033
0.001458638
0.001311798
0.001209382
0.001156063
0.001136754
0.001133064
0.001131596
0.0011259
0.001115745
0.001103711
0.001093361
0.001098741
0.001126119
0.001080672
0.001044216
0.001070125
0.001326314
0.0009074618
0.001135951
0.001921048
0.005188558
0.002351404
0.001612347
0.001524042
0.00149195
0.001528643
0.001612335
0.001691417
0.001712706
0.001659129
0.001560853
0.001455207
0.001369586
0.001314349
0.001281929
0.001260584
0.001242299
0.001224348
0.001208469
0.001198105
0.001197026
0.001231804
0.001284523
0.001222924
0.001230771
0.001268527
0.001528014
0.001071555
0.001363597
0.002413738
0.008385314
0.003143385
0.001822409
0.001652012
0.001564327
0.001556183
0.001605307
0.001675754
0.001719803
0.001713165
0.001669389
0.001612702
0.001565956
0.001533418
0.001509206
0.001488752
0.001471314
0.001458546
0.001455787
0.001466737
0.001490246
0.001568151
0.001600299
0.001603122
0.001618514
0.001644923
0.001780543
0.001362454
0.001987368
0.00465639
0.004504431
0.00221303
0.001921435
0.00174805
0.001656944
0.001650122
0.001690189
0.001743527
0.00178205
0.001802514
0.001817839
0.001826474
0.001827079
0.001819758
0.00181187
0.00181108
0.001822593
0.001858077
0.001919411
0.001989193
0.002127624
0.002184075
0.002253535
0.002231958
0.002244169
0.002004399
0.00185842
0.003113961
0.004724786
0.002485664
0.001813764
0.001818922
0.001772447
0.001768722
0.001814429
0.001906844
0.001998888
0.002078728
0.002136077
0.00217204
0.002186253
0.002191656
0.002206938
0.002242693
0.002302976
0.002411676
0.002563491
0.002704929
0.002908362
0.003063496
0.003121253
0.002999429
0.002941398
0.002178305
0.00255975
0.004194495
0.006611452
0.003063929
0.00206142
0.002026723
0.002029994
0.002042153
0.002106812
0.002186071
0.002277865
0.002359928
0.002421057
0.00247092
0.002512531
0.002560408
0.002631609
0.002733461
0.00287253
0.003094374
0.003370747
0.003591455
0.00390437
0.004095717
0.004083685
0.003818926
0.003440736
0.003139903
0.004010457
0.008312202
0.005720262
0.002746888
0.001827485
0.001927198
0.002039686
0.002124866
0.00223012
0.002335501
0.002434878
0.002540021
0.002640098
0.002756614
0.00290586
0.003069019
0.003261664
0.00350839
0.003881484
0.004265054
0.004511648
0.004920555
0.005114081
0.005056252
0.004590383
0.004114114
0.005104941
0.01001163
0.003373454
0.001921208
0.001525443
0.001722048
0.001922943
0.002092463
0.002250223
0.002435866
0.002618938
0.002802873
0.003033357
0.003279032
0.003533739
0.003848959
0.004230999
0.004751834
0.005234627
0.00542525
0.005967474
0.006209128
0.006064891
0.00554724
0.006087
0.009151082
0.005114626
0.002442366
0.001713822
0.001441679
0.001746518
0.002022667
0.002230056
0.002589443
0.002867109
0.003138816
0.003454229
0.003789341
0.004132595
0.004553674
0.00509052
0.005728135
0.006284031
0.006408457
0.007175938
0.007419198
0.007485078
0.008082234
0.01015948
0.01942405
0.00500024
0.002468022
0.001925761
0.001748105
0.002132264
0.002412254
0.003052352
0.003350857
0.003680053
0.004082327
0.004492155
0.004901787
0.005405275
0.006049075
0.006795689
0.007504511
0.007505678
0.008610463
0.009142338
0.0108984
0.01348937
0.02630631
0.005936234
0.004132822
0.003136493
0.002537968
0.002779876
0.003737598
0.004036995
0.00440982
0.004890653
0.005346957
0.00579686
0.006364548
0.007118063
0.008046865
0.008996549
0.008782357
0.01055543
0.01516952
0.02249467
0.03425417
0.008929077
0.004873771
0.004704329
0.004923108
0.004893766
0.005299544
0.005850889
0.006350735
0.006845391
0.007473972
0.008346779
0.009569304
0.0112778
0.01285296
0.01738213
0.03762902
0.01470006
0.01099201
0.01098323
0.008969103
0.00813308
0.008696174
0.009284346
0.009895898
0.01075151
0.01213643
0.01630185
0.02291753
0.02636524
0.04449321
0.02627925
0.01793721
0.01849181
0.01944905
0.0205489
0.02231585
0.02577174
0.04548548
0.006783792
0.004006569
0.003619429
0.003345373
0.003261669
0.004977888
0.006667008
0.004491871
0.003793882
0.003329462
0.002370756
0.001840014
0.001677102
0.001532015
0.001437618
0.001614455
0.001872086
0.001821319
0.001869762
0.003043585
0.00622515
0.003837698
0.002583713
0.002161174
0.001864677
0.002275563
0.001877629
0.001583153
0.001460126
0.001341998
0.001260128
0.001301982
0.001281571
0.0008634829
0.0008733602
0.001073787
0.00143287
0.002381688
0.005579595
0.002625355
0.001951887
0.002040928
0.00186918
0.001678474
0.001871819
0.001622521
0.001428159
0.001319991
0.001211405
0.001130308
0.001120072
0.00107622
0.0008482477
0.0008419174
0.0008573759
0.0006954449
0.0008731985
0.00165833
0.004951877
0.002466217
0.001683596
0.001707187
0.001781371
0.001700074
0.001569695
0.001649502
0.001495327
0.001350398
0.001248358
0.00114103
0.001056958
0.001027088
0.0009826706
0.0008527864
0.0008352483
0.0007964029
0.0006578602
0.0005313198
0.0006551415
0.001262779
0.004730924
0.002254352
0.001976032
0.001588745
0.001569464
0.001621299
0.001592785
0.001504798
0.001529592
0.00143161
0.001322474
0.001226813
0.001118121
0.001028416
0.0009894311
0.0009584282
0.0008808671
0.0008646001
0.0008205793
0.0007072194
0.0006030486
0.0005723763
0.000539991
0.001171796
0.004543397
0.002193726
0.001868415
0.001697466
0.001498612
0.001472554
0.001508692
0.001509732
0.001455273
0.001458827
0.001399174
0.001323515
0.001241608
0.001136533
0.001040822
0.0009915522
0.0009729912
0.0009293264
0.0009282569
0.0009034197
0.0008131747
0.0007070409
0.0006053929
0.0005293997
0.0005197835
0.001150126
0.004575229
0.002147919
0.001843033
0.001632995
0.001516457
0.001406062
0.001386369
0.001418162
0.001448714
0.001434872
0.001441147
0.00140928
0.001359142
0.001290783
0.001193104
0.001093605
0.001033877
0.001017349
0.001004343
0.001018436
0.001016512
0.0009610069
0.0008751534
0.0007672284
0.0006834348
0.0007203643
0.0005394541
0.00108613
0.004980653
0.002153111
0.001435514
0.001561985
0.001473955
0.001388487
0.001321889
0.001320324
0.001386565
0.001500114
0.001573121
0.001611673
0.001593482
0.001537572
0.001451034
0.001339743
0.001226318
0.001145009
0.001107115
0.001097468
0.001112231
0.00113145
0.001110844
0.001082657
0.0009604781
0.0008975494
0.0009433931
0.0006302634
0.0007190209
0.001308995
0.002846296
0.00148289
0.001420467
0.001437383
0.001370046
0.001304465
0.001276339
0.001363821
0.001607189
0.001981699
0.002301064
0.002501067
0.002514221
0.002353293
0.002087817
0.001819009
0.001584788
0.001413456
0.001305049
0.001252875
0.001237657
0.001247924
0.001253784
0.001251981
0.001255742
0.001109806
0.00112742
0.001315955
0.0008778514
0.001352637
0.005049602
0.001947019
0.001566342
0.001425771
0.001385765
0.001322203
0.001278416
0.00136828
0.001754283
0.002490225
0.003522649
0.004548953
0.005452984
0.00597651
0.005692215
0.004728621
0.003717636
0.002850799
0.002260757
0.001881346
0.001658146
0.001535663
0.001468682
0.001438172
0.001421081
0.001427845
0.001486432
0.001270923
0.001311879
0.001676769
0.001275214
0.003200203
0.003393057
0.001535343
0.001468489
0.001417745
0.001379926
0.001326829
0.001361341
0.001744191
0.002715587
0.004164102
0.005979914
0.007980386
0.01005277
0.01190754
0.01288864
0.01251673
0.01045336
0.007456236
0.00536705
0.003925484
0.00304813
0.002521058
0.002230636
0.002120284
0.002047271
0.001929733
0.001837954
0.001542231
0.001404777
0.001700736
0.001173152
0.002351738
0.003127378
0.001442904
0.001436901
0.001432101
0.001418125
0.001388931
0.001547309
0.002336259
0.003642373
0.00500162
0.006222363
0.007273213
0.008356403
0.009635379
0.01105291
0.01226016
0.01280493
0.01238076
0.01104577
0.00880951
0.007188923
0.005980483
0.005031526
0.0042169
0.003559255
0.003016644
0.002559032
0.002236912
0.001818921
0.001873484
0.00125958
0.002362173
0.003025468
0.001946556
0.001590716
0.001491315
0.00148075
0.001488886
0.001743414
0.002736175
0.003902181
0.004427528
0.004443565
0.004183156
0.003959949
0.003891181
0.003957676
0.004300046
0.004781053
0.005179165
0.005398925
0.005366891
0.005088854
0.004489254
0.003826926
0.003268649
0.002802484
0.002457746
0.002176447
0.001942236
0.001718073
0.001732784
0.002050257
0.002219438
0.006936068
0.00242046
0.00192112
0.001655019
0.001554293
0.001547905
0.001588531
0.001872425
0.002793276
0.003681748
0.003637676
0.003075983
0.002543153
0.002341208
0.002399557
0.002639289
0.002934722
0.003136851
0.003176354
0.003026894
0.002745484
0.002425818
0.002100108
0.001830466
0.001619746
0.001463555
0.00136526
0.001294592
0.001243676
0.001203717
0.001254776
0.001413591
0.001596048
0.00392265
0.004674685
0.002064806
0.001816517
0.00166065
0.001595821
0.001605417
0.001666496
0.001923914
0.002637429
0.003247922
0.003059704
0.002396022
0.001797902
0.001503749
0.00149215
0.001715731
0.001962661
0.002175075
0.002307519
0.002318098
0.002201189
0.001983004
0.001714911
0.001456176
0.001250626
0.001108236
0.001005786
0.0009436942
0.0009130314
0.000875898
0.0008948103
0.0009807732
0.001012625
0.001907646
0.004682786
0.002143729
0.001868937
0.00170399
0.001638913
0.001653337
0.00172111
0.001926097
0.002410484
0.002799258
0.002635314
0.002117751
0.001635385
0.0013175
0.001207351
0.001253393
0.001362341
0.001483578
0.001583166
0.001638232
0.001637309
0.00157716
0.001465788
0.001324912
0.001186299
0.001069005
0.0009731362
0.0009067378
0.000872613
0.000794838
0.0007699731
0.0008057252
0.0007526998
0.001283188
0.004712414
0.002241022
0.001960436
0.001778663
0.00169488
0.001697569
0.001760023
0.00191328
0.002216068
0.002454288
0.002368203
0.002043265
0.001694837
0.001421627
0.001264872
0.001212184
0.001225021
0.001265872
0.001305056
0.001324526
0.00131858
0.001288958
0.001240506
0.001181868
0.00112328
0.001064371
0.001008192
0.0009629417
0.0009438877
0.0008390574
0.0008014339
0.0008303308
0.0006630083
0.001100463
0.004871824
0.002371916
0.002070002
0.001876551
0.001769665
0.001747047
0.001790504
0.001903454
0.002092929
0.002243796
0.00222599
0.002058272
0.00182449
0.00160941
0.001450807
0.001364369
0.001333102
0.001329164
0.001327414
0.001313175
0.001283446
0.001243355
0.001200662
0.001166616
0.001145345
0.001119633
0.001096044
0.001068042
0.00105809
0.0009327295
0.0008966469
0.0009381916
0.0006895265
0.00119292
0.007459302
0.003043639
0.00242945
0.002108031
0.001926217
0.001841852
0.001837392
0.001909453
0.002035878
0.00215013
0.002182079
0.002119368
0.001985185
0.001837502
0.001713574
0.001637101
0.001597691
0.00157282
0.001544103
0.001504337
0.001456194
0.001408026
0.001367102
0.001347038
0.001344699
0.001335651
0.001318183
0.001275879
0.00123376
0.001076595
0.001043015
0.001045401
0.0009110491
0.002170021
0.003944788
0.002761188
0.002384429
0.002146037
0.001997179
0.001927912
0.0019488
0.002033019
0.002132693
0.00219401
0.002201704
0.002166516
0.002106225
0.002056598
0.002023569
0.001993671
0.00195411
0.001901487
0.001842023
0.001786563
0.00174663
0.001723652
0.001733308
0.00175703
0.001766477
0.001728179
0.001635378
0.001505195
0.001298623
0.001284456
0.001052309
0.001360988
0.003786974
0.002063904
0.002079821
0.00209164
0.002075484
0.00203123
0.002031297
0.002084658
0.002175035
0.002270881
0.002367484
0.002452651
0.002508336
0.00253486
0.002525795
0.002481463
0.002413481
0.002338568
0.002275093
0.002238095
0.002237765
0.00225966
0.002325859
0.002397119
0.002404756
0.002310863
0.00213711
0.001881619
0.001602276
0.001633518
0.001047226
0.001798496
0.003595171
0.0020228
0.001989271
0.002036072
0.002109486
0.002185932
0.002257673
0.002349543
0.002486167
0.002668856
0.002843201
0.002973689
0.003048329
0.003054991
0.00300351
0.002921148
0.002837705
0.002775044
0.002752947
0.002782468
0.002864048
0.002958257
0.003098477
0.003201507
0.003160062
0.002996392
0.002730826
0.002371827
0.001950195
0.001843537
0.001377221
0.002402253
0.005132932
0.002364697
0.001945615
0.00189974
0.001975289
0.002118899
0.00231349
0.002536951
0.002760905
0.002962769
0.003133118
0.003255381
0.003306006
0.003291199
0.003239832
0.003193519
0.003172952
0.003192037
0.003274922
0.003421701
0.00360688
0.003773722
0.003968239
0.004041302
0.003924631
0.003734725
0.003373176
0.002954806
0.002318368
0.001899204
0.002053786
0.004636239
0.002892051
0.001641108
0.001653295
0.001782937
0.001931644
0.002123914
0.002355753
0.002594908
0.002804136
0.002981737
0.003126278
0.003218645
0.003272619
0.003325745
0.003407795
0.003512486
0.003659594
0.003890347
0.0041687
0.004417343
0.004615373
0.004808614
0.004826708
0.004675461
0.004540377
0.004111442
0.003643553
0.002752057
0.002249332
0.003492485
0.004468216
0.002035456
0.001381643
0.001630976
0.001775008
0.001935946
0.00213653
0.00235456
0.002561416
0.00276617
0.00297759
0.003159799
0.003325833
0.003515507
0.003733836
0.003959549
0.004237685
0.004612589
0.004973215
0.005200196
0.005410011
0.005597046
0.005596386
0.005461753
0.005447619
0.005001652
0.004506154
0.003180573
0.003799422
0.006975202
0.003680432
0.001782035
0.001653198
0.00167682
0.001804978
0.001938142
0.002161598
0.002436262
0.002736625
0.003041666
0.003352832
0.003618945
0.003899926
0.004206389
0.004511647
0.004893324
0.005370654
0.00575159
0.005922076
0.006172778
0.006397498
0.006406454
0.006316992
0.006562239
0.006208995
0.005751898
0.005490618
0.009822237
0.003531036
0.001711569
0.00166698
0.001829209
0.001871047
0.002162202
0.002582776
0.002960441
0.003322783
0.003806755
0.004118115
0.004423903
0.004764553
0.00510737
0.005554223
0.006102959
0.006518213
0.006639194
0.006942305
0.007248033
0.007296423
0.00729062
0.008074699
0.007800081
0.0079109
0.01453713
0.0038998
0.001875683
0.002079393
0.001972539
0.002438252
0.003036392
0.003417303
0.003767664
0.004467353
0.004759806
0.00504009
0.005381488
0.005734508
0.006223475
0.006863066
0.007350547
0.007363704
0.007745362
0.008240434
0.008389696
0.008484295
0.01012054
0.01057734
0.02034886
0.005007873
0.002712938
0.002157323
0.002885761
0.003731012
0.004023499
0.004316298
0.005307918
0.005488439
0.005681512
0.006006987
0.006363333
0.006902023
0.007712673
0.008389161
0.008175945
0.008726001
0.009648957
0.009739897
0.009935658
0.01367446
0.02625813
0.007839555
0.004058856
0.003558731
0.00463848
0.004773009
0.004981331
0.006472276
0.006370568
0.006406251
0.006718923
0.007082189
0.007701017
0.00885676
0.01004772
0.009301344
0.01014707
0.01172367
0.01187396
0.01580818
0.03282694
0.01193002
0.008100883
0.006254648
0.005771991
0.005675632
0.008222071
0.007682095
0.007396693
0.007699383
0.00808171
0.008831608
0.01069845
0.01283792
0.01086252
0.01212262
0.01560408
0.02352917
0.03826039
0.01794606
0.01276888
0.01211909
0.01232039
0.009909076
0.008843514
0.009102814
0.009495104
0.0103788
0.01373829
0.01962259
0.02217654
0.0250086
0.03989628
0.02800663
0.01888509
0.0189659
0.01964406
0.02181492
0.03793226
0.006701316
0.003902057
0.003549124
0.003138274
0.002986688
0.002790605
0.002665423
0.002692731
0.00286463
0.004643036
0.005260677
0.003425804
0.003309104
0.002351102
0.00180988
0.002296419
0.002140342
0.002036757
0.001910898
0.001800502
0.001648663
0.001130513
0.001288813
0.001485598
0.001666429
0.002951938
0.004246255
0.002107275
0.002337093
0.002380187
0.001943492
0.001684562
0.001874709
0.001726946
0.001623897
0.001509123
0.001398489
0.001275406
0.001036771
0.00106565
0.001077964
0.001049084
0.0009518844
0.002007276
0.004447123
0.002940907
0.002374732
0.001856136
0.002001813
0.002032138
0.001804955
0.001663384
0.001704856
0.001577931
0.001464348
0.001338747
0.001215923
0.001093975
0.0009546231
0.0009262133
0.0008835636
0.0008302359
0.0007901655
0.0008372877
0.0009026098
0.001651867
0.00423488
0.002072198
0.002109892
0.00199454
0.001800486
0.00190855
0.0019471
0.001803858
0.001695411
0.001661957
0.001530444
0.001403585
0.001264408
0.001133512
0.001019635
0.0009208653
0.0008752254
0.0008176944
0.0007462752
0.0006758883
0.0006255141
0.000590826
0.0005417948
0.001281596
0.004035187
0.002023626
0.001836621
0.001853271
0.001869019
0.00182878
0.001912507
0.001940788
0.001827781
0.001724776
0.00165566
0.001522989
0.001387063
0.001237536
0.001104123
0.001002043
0.0009291691
0.0008845379
0.0008228695
0.0007369097
0.0006382488
0.0005460658
0.0004793938
0.0004616817
0.0004949598
0.001347835
0.004094837
0.001958023
0.001816437
0.001728055
0.001771454
0.001842084
0.001856427
0.001909784