/*--------------------------------*- C++ -*----------------------------------*\
  =========                 |
  \\      /  F ield         | OpenFOAM: The Open Source CFD Toolbox
   \\    /   O peration     | Website:  https://openfoam.org
    \\  /    A nd           | Version:  6
     \\/     M anipulation  |
\*---------------------------------------------------------------------------*/
FoamFile
{
    version     2.0;
    format      ascii;
    class       volScalarField;
    location    "50";
    object      epsilon;
}
// * * * * * * * * * * * * * * * * * * * * * * * * * * * * * * * * * * * * * //

dimensions      [0 2 -3 0 0 0 0];

internalField   nonuniform List<scalar> 
203709
(
0.007700724
0.004879604
0.004806343
0.007069124
0.008843047
0.007375412
0.004559947
0.003039676
0.002766171
0.00316081
0.004220427
0.005924014
0.007637241
0.005824734
0.003602343
0.003353001
0.00310606
0.002594405
0.002370138
0.002250253
0.002290028
0.00261633
0.003596787
0.005220679
0.006833976
0.003304198
0.002601301
0.002423099
0.002410659
0.002385656
0.002299847
0.002203109
0.002022464
0.001916826
0.001836236
0.001896249
0.002316873
0.004412397
0.003805519
0.002173644
0.001920416
0.001798161
0.001729203
0.001698978
0.001674685
0.001646535
0.001610397
0.001507938
0.001352726
0.001307442
0.001367421
0.002079703
0.006409534
0.002388755
0.001695474
0.00154913
0.001508694
0.001531779
0.001565158
0.001549154
0.001479931
0.001381744
0.001285947
0.001212567
0.001172677
0.00119443
0.001491551
0.002941943
0.003968621
0.001749198
0.001335133
0.001124162
0.001216234
0.001439738
0.001593615
0.001666379
0.001647123
0.001547108
0.001406551
0.001271575
0.001178026
0.001147184
0.001227538
0.00196362
0.008924035
0.003321236
0.001850055
0.001407287
0.001242792
0.001325309
0.00149047
0.001657468
0.001779253
0.001830228
0.001795196
0.001685354
0.001533644
0.001390256
0.001295385
0.001297694
0.001678372
0.003667976
0.005465925
0.002767172
0.002045049
0.001706979
0.001612069
0.001667783
0.00175341
0.001845297
0.00192909
0.001980037
0.001977278
0.001917424
0.001803522
0.001661356
0.001537017
0.001480028
0.00159131
0.002653134
0.005434258
0.002841222
0.002251344
0.00199618
0.001931434
0.00194474
0.00198177
0.002028965
0.002079189
0.002112283
0.002111514
0.002072088
0.001990753
0.001880417
0.001776911
0.001732085
0.001870361
0.003157436
0.009150412
0.00368855
0.002508162
0.002228088
0.0021447
0.002124231
0.002136382
0.002163107
0.002191768
0.002211332
0.002208595
0.002172826
0.002106852
0.002028875
0.001971822
0.002019064
0.002688178
0.00597215
0.005028337
0.00278215
0.002392581
0.002260159
0.00222143
0.002226833
0.002251455
0.002274169
0.002284091
0.002271987
0.00223308
0.002178821
0.002130861
0.002138034
0.002340606
0.004073255
0.008521618
0.003685386
0.002614673
0.002387247
0.002320578
0.002314855
0.002330788
0.00234319
0.002338457
0.002313213
0.002274156
0.002237459
0.002230949
0.002341191
0.003184225
0.007257696
0.005196642
0.002939834
0.002595176
0.002483936
0.002448633
0.00243449
0.00241929
0.002391732
0.002357166
0.00233293
0.002336304
0.002406417
0.00266775
0.004696791
0.009099559
0.004243488
0.003139551
0.002875375
0.00270615
0.002601119
0.002526679
0.002477311
0.002461371
0.002500218
0.002624277
0.002881791
0.003872329
0.008358362
0.009811249
0.005877938
0.004257871
0.003220933
0.002929263
0.002752003
0.002706417
0.002796309
0.003047445
0.003995972
0.005809431
0.009606163
0.009392362
0.005730454
0.004274387
0.003392311
0.003427405
0.004383036
0.006270052
0.01055591
0.01070798
0.006932016
0.007338108
0.01213068
0.007759305
0.004620309
0.004304005
0.004211031
0.004037957
0.00377486
0.003503929
0.003297196
0.003296827
0.005067152
0.006519242
0.004289594
0.003063401
0.002366633
0.002249783
0.00221228
0.002145857
0.002040658
0.001931815
0.001848197
0.001832814
0.002182337
0.002958833
0.004400031
0.005855295
0.00271665
0.002192489
0.001978551
0.001813936
0.001755758
0.001716468
0.001663378
0.001613828
0.001588097
0.001571884
0.001553717
0.001590683
0.00171244
0.002096694
0.004093926
0.005510675
0.002570058
0.001752187
0.001630561
0.001575032
0.001515695
0.001443286
0.001601377
0.001601831
0.001566269
0.001543024
0.001308632
0.00138865
0.001444724
0.001500469
0.001595399
0.002016991
0.004055536
0.005527529
0.002584954
0.001769413
0.001561513
0.001582188
0.001575835
0.002607553
0.002939581
0.00233217
0.002017419
0.001787888
0.001629329
0.00148144
0.001476191
0.00127242
0.001378785
0.001489803
0.001625024
0.002118093
0.004427022
0.005879086
0.002742561
0.001949712
0.001891942
0.002057272
0.003645075
0.0045205
0.005352076
0.00667677
0.006137813
0.004588822
0.003331879
0.002410894
0.00195512
0.001747255
0.001624132
0.001834422
0.001422859
0.001604471
0.001798912
0.002412289
0.005171456
0.003475952
0.002082944
0.001922981
0.002098059
0.003354251
0.004047881
0.005287665
0.006755457
0.008682682
0.01000208
0.01022107
0.008937361
0.005410142
0.003861963
0.002857056
0.002333316
0.002106788
0.002251376
0.001623114
0.001847798
0.002136881
0.003577269
0.006403736
0.002724183
0.001898326
0.001831431
0.001800091
0.002888074
0.002894631
0.003213037
0.003627526
0.004264269
0.005114351
0.006271456
0.007432654
0.007935531
0.00729685
0.005881082
0.004882139
0.004087393
0.003284689
0.00220933
0.002187062
0.002144712
0.002631043
0.005293829
0.003966877
0.002169817
0.001755859
0.001618411
0.001850678
0.002258518
0.002066173
0.002099547
0.002230782
0.002424475
0.002713476
0.002978885
0.003207246
0.00341212
0.003548981
0.003639975
0.003524809
0.003190553
0.002715425
0.002324972
0.001567368
0.001487807
0.00158087
0.00250467
0.0037896
0.002072747
0.001708684
0.001468431
0.001725634
0.001840164
0.001595268
0.001578299
0.001761524
0.001983886
0.002250413
0.00249183
0.002629744
0.002594491
0.002385166
0.002097826
0.00181855
0.001569398
0.001356159
0.001228032
0.0008523831
0.0009972586
0.00115752
0.001891371
0.003799608
0.00204335
0.001659727
0.001589329
0.001657189
0.001616864
0.001408087
0.001295348
0.00125752
0.001392953
0.001598697
0.001818252
0.002002517
0.00210555
0.002090358
0.001957784
0.001740171
0.001492633
0.001268656
0.001153423
0.001302061
0.0008909825
0.001081896
0.001819768
0.003865411
0.002051563
0.00162737
0.001582574
0.00157379
0.001493523
0.001340904
0.001222333
0.001155293
0.001179304
0.001263622
0.001375389
0.001484718
0.001571648
0.001620304
0.001620358
0.001562889
0.001454822
0.001320342
0.001222404
0.001253264
0.0009206475
0.001126095
0.001942818
0.003953874
0.002087569
0.001643596
0.001576926
0.00153489
0.001455136
0.001334032
0.001228172
0.00116231
0.001148774
0.001171234
0.00121291
0.001255268
0.001289649
0.001311003
0.001320139
0.001313642
0.001290941
0.001265611
0.001291482
0.001371162
0.0009850561
0.001217876
0.002154383
0.004069342
0.002149902
0.001713817
0.001611207
0.001558102
0.001482562
0.001389312
0.001306084
0.0012472
0.001215255
0.001204156
0.001202962
0.001201925
0.001197529
0.001189207
0.001180388
0.001173656
0.001176846
0.001229015
0.001435595
0.001328483
0.00107808
0.001334399
0.002412446
0.004260254
0.002247268
0.001808825
0.001450162
0.001509254
0.001492077
0.001445858
0.001391646
0.001348039
0.001315046
0.001290416
0.001268102
0.001243655
0.001217899
0.001193014
0.001174604
0.001165748
0.001185949
0.001335762
0.001717557
0.0009811886
0.001221728
0.001500111
0.002743077
0.004699054
0.002416841
0.001909144
0.001601324
0.001588487
0.001576693
0.001542686
0.001502911
0.00146792
0.001440851
0.001413724
0.001381759
0.001347801
0.001317675
0.001291014
0.001278321
0.001274776
0.001321554
0.001646192
0.001665531
0.00122718
0.001459946
0.001793463
0.003306261
0.007922981
0.003196122
0.002119263
0.001756387
0.001429816
0.001539133
0.001572548
0.001597626
0.001604978
0.001595038
0.001571039
0.001537388
0.001508057
0.001492684
0.001477803
0.001491492
0.001495006
0.00158397
0.002088849
0.001364482
0.001651966
0.001921242
0.002686457
0.006155422
0.00495403
0.002581841
0.002041174
0.001722423
0.001780246
0.00182065
0.001833259
0.001823376
0.001792412
0.001750903
0.001720859
0.001717308
0.00174809
0.001753199
0.001827474
0.001823279
0.001979518
0.002188713
0.002000577
0.002360457
0.002780829
0.004617847
0.008201511
0.003747146
0.002556931
0.002165123
0.001832473
0.001946802
0.001931105
0.001943717
0.001912859
0.001896523
0.001920415
0.001984368
0.002104134
0.00211108
0.002312637
0.002269102
0.002511313
0.002513427
0.003084815
0.003736433
0.005137783
0.009725339
0.007803768
0.003746526
0.002609017
0.00221251
0.001923334
0.001688392
0.001873411
0.001910699
0.00204378
0.002186223
0.002348956
0.002600548
0.002537581
0.002850577
0.002765173
0.003315418
0.004095137
0.005162726
0.007462389
0.01494851
0.007047411
0.003462647
0.002460164
0.002146378
0.002014947
0.001906121
0.001829126
0.002283569
0.002589104
0.002854567
0.003173997
0.002971746
0.003618302
0.004484692
0.005433395
0.006853779
0.01013024
0.02118677
0.006963451
0.003506964
0.002701796
0.002621123
0.002573878
0.002674901
0.002865737
0.003152708
0.003521388
0.004022659
0.004755333
0.00581029
0.007253544
0.008836661
0.01286134
0.02762758
0.008132479
0.005651578
0.004745827
0.004035436
0.004289361
0.004751092
0.005285686
0.005880886
0.006661609
0.007778351
0.009362667
0.01335423
0.01970454
0.03441607
0.01393032
0.009625206
0.01023741
0.01140928
0.01260155
0.01385361
0.01546625
0.01768394
0.02109934
0.03767529
0.007822369
0.004575809
0.004142965
0.003837676
0.003530925
0.003278194
0.003199823
0.004837463
0.007200338
0.004657149
0.003994044
0.002861668
0.002240835
0.002097377
0.001956941
0.001799224
0.001655659
0.001563423
0.0017784
0.00215818
0.002190762
0.003445748
0.006149026
0.002832485
0.002306328
0.002052134
0.001768805
0.001649206
0.001584536
0.001488262
0.001367775
0.00125236
0.00116276
0.001130485
0.001176982
0.001182339
0.001452806
0.002757529
0.006284731
0.003820664
0.002532464
0.001769126
0.001622613
0.001720747
0.001583342
0.001504179
0.001457383
0.001382457
0.001280224
0.001179353
0.001102142
0.001071104
0.001080353
0.0009078313
0.0009983814
0.001284722
0.001522251
0.002027775
0.005794736
0.0026282
0.001929163
0.00158144
0.001526736
0.001477145
0.001548126
0.001471484
0.001422137
0.001388979
0.001329746
0.001240748
0.001148473
0.001076295
0.001047684
0.001057612
0.0009661667
0.001001223
0.0009129536
0.0009464266
0.0009940959
0.001554165
0.005730619
0.002488118
0.001678634
0.001410111
0.001391169
0.001396717
0.001440845
0.001499964
0.001467285
0.001429629
0.001395793
0.001340074
0.0012576
0.001168929
0.001093398
0.001058158
0.001060751
0.001021159
0.001038219
0.001031135
0.0008529487
0.000869377
0.0009710563
0.001551803
0.003109186
0.001643268
0.001271227
0.00129283
0.001358348
0.001468338
0.001686227
0.001793119
0.001778932
0.001696523
0.001598727
0.001485453
0.001368656
0.001257607
0.001163735
0.001111759
0.001099318
0.0010906
0.001112413
0.001134092
0.001258623
0.0008890472
0.0009818473
0.001381019
0.004914358
0.002049829
0.001275744
0.001245461
0.001377505
0.001646593
0.002058203
0.002615391
0.002972351
0.003196184
0.003056412
0.002657798
0.002208225
0.001846735
0.001569656
0.001384161
0.00127166
0.001211821
0.001195389
0.001214369
0.001244927
0.001349806
0.001588684
0.001017448
0.001342115
0.002690896
0.005373821
0.002327677
0.001443325
0.001287618
0.001377214
0.001788406
0.002484502
0.003421573
0.004650468
0.005744086
0.006754367
0.0074204
0.006928186
0.005308376
0.003884263
0.002749126
0.002107113
0.001737153
0.001541125
0.001468456
0.001394202
0.001388797
0.001414873
0.001559356
0.001969944
0.001184491
0.001727316
0.003967443
0.003184469
0.001684137
0.001196458
0.001355684
0.001671823
0.002410081
0.003384491
0.004591081
0.005971705
0.00765261
0.009588462
0.0116446
0.01303427
0.01294307
0.01100974
0.006854453
0.004697192
0.003314257
0.00255232
0.002141465
0.001946777
0.001752597
0.001708673
0.001698563
0.002001996
0.001237668
0.001608227
0.002923531
0.002883062
0.001496296
0.001310826
0.001441702
0.001922717
0.002795522
0.00350698
0.004095594
0.004524367
0.004974347
0.005575969
0.006476981
0.007661641
0.009151622
0.01051218
0.01087015
0.009819019
0.007641993
0.00607223
0.004934453
0.004057613
0.003379129
0.002896787
0.002518135
0.002268686
0.002448299
0.001656898
0.002873451
0.006142611
0.002314961
0.001393302
0.001359337
0.001480533
0.001968542
0.002818991
0.003176387
0.00313945
0.002934786
0.002772999
0.002762523
0.002891169
0.003229463
0.003659908
0.004098418
0.004529559
0.004854154
0.005034689
0.004910818
0.004394179
0.003733928
0.003162099
0.00260455
0.002268102
0.002000894
0.001885467
0.001509352
0.002171313
0.004855951
0.003906368
0.001861282
0.001341715
0.001380485
0.001491098
0.001888628
0.002564458
0.002785488
0.002481319
0.002076509
0.001874866
0.001958379
0.0021288
0.002426576
0.002728641
0.002940906
0.002977644
0.002812523
0.002540662
0.002260589
0.001983164
0.001745372
0.001547032
0.001363568
0.001283156
0.001234728
0.001246898
0.001078718
0.00136951
0.002369891
0.00383428
0.001826389
0.001337125
0.001390806
0.0014834
0.00177143
0.002247513
0.002385615
0.002100809
0.001700708
0.001427183
0.001282948
0.001370827
0.001581277
0.001823686
0.002044797
0.00219349
0.002220133
0.002116684
0.001906152
0.001642786
0.001387921
0.001193156
0.001074354
0.0009453689
0.0009096451
0.0009735097
0.000824413
0.001035197
0.001721321
0.004028902
0.001889541
0.001369031
0.001405024
0.001473063
0.001665673
0.001969985
0.002067146
0.001868706
0.001572547
0.001315952
0.001138901
0.001103462
0.001163817
0.001271588
0.00138971
0.001492983
0.001562437
0.001585095
0.001548357
0.001451948
0.001314021
0.001174917
0.001054366
0.0009263903
0.0008876658
0.0009890656
0.0007580617
0.0009389391
0.00153634
0.004318086
0.002003464
0.001429087
0.001430908
0.001470289
0.001592724
0.001775603
0.001851284
0.001744814
0.001548683
0.001338765
0.001175847
0.001093044
0.001077403
0.001102468
0.001142693
0.001181011
0.001208588
0.001223499
0.001223146
0.001204209
0.001169254
0.001130288
0.001066107
0.0009693642
0.0009540039
0.00112163
0.0007935832
0.000979621
0.0016089
0.004664429
0.002154034
0.001514448
0.001472695
0.001479401
0.001553016
0.001664427
0.00172791
0.001690294
0.001569976
0.0014181
0.001286228
0.001196821
0.001151173
0.001135063
0.001131875
0.001129973
0.001124262
0.001115128
0.00110489
0.001096154
0.001100947
0.001124184
0.00107324
0.001030645
0.001049146
0.00128535
0.0008838657
0.001103511
0.001858378
0.00526951
0.002390431
0.001640285
0.001545751
0.001511256
0.001543524
0.001614539
0.001676486
0.001684597
0.001624072
0.001530101
0.001431895
0.001356038
0.001307595
0.001277833
0.001255952
0.0012355
0.001215019
0.001196726
0.001183919
0.001180343
0.001211933
0.001260659
0.001191919
0.001194789
0.001229688
0.001480275
0.001038835
0.001323519
0.002340635
0.008563929
0.003218324
0.001868608
0.001688477
0.001593547
0.001577853
0.001616106
0.001672741
0.001702463
0.00168679
0.001643121
0.001594874
0.001557032
0.001529394
0.001505563
0.001482457
0.001460966
0.00144371
0.001435891
0.001440719
0.001457878
0.001529807
0.001554519
0.001546644
0.001557769
0.001584219
0.001724085
0.00131557
0.00192834
0.004522355
0.004619744
0.002282395
0.001979406
0.001797579
0.001696372
0.001676413
0.001704116
0.001746203
0.001785145
0.00180705
0.001825681
0.001834698
0.001831907
0.001818931
0.001804835
0.001797927
0.001803285
0.001831188
0.001882749
0.001942812
0.002072477
0.002114407
0.002174703
0.002151566
0.002165797
0.001946634
0.001794981
0.003025397
0.004826624
0.0025552
0.001878501
0.001885028
0.001838298
0.001831833
0.001876886
0.00196774
0.002048116
0.002117791
0.002163557
0.00218756
0.002191096
0.002187971
0.002196532
0.002226102
0.002279711
0.002378714
0.002518112
0.00264821
0.002840779
0.002982532
0.003032377
0.002909217
0.002851292
0.002105176
0.002481769
0.004086959
0.006752254
0.003136575
0.002119911
0.002078152
0.002086159
0.002106304
0.002159184
0.002226459
0.00230802
0.002378279
0.002428636
0.002470296
0.002506522
0.002550486
0.00261773
0.002714517
0.002847058
0.003057881
0.003322259
0.003532783
0.00383456
0.004015116
0.003993581
0.00372212
0.003350112
0.003047155
0.003896229
0.008111256
0.005837834
0.002801475
0.001864255
0.001946469
0.002052584
0.00213719
0.002238282
0.002336731
0.002431093
0.002533615
0.002632555
0.00274894
0.002896883
0.003056188
0.003243636
0.003483932
0.003845865
0.004220071
0.004458718
0.004855761
0.005033958
0.004959817
0.004470328
0.003984214
0.004946934
0.00971761
0.003427705
0.001951568
0.001548556
0.001736521
0.001931012
0.002096432
0.002251227
0.002438524
0.002621443
0.00280454
0.003033578
0.003275574
0.003524827
0.003833871
0.004208345
0.004719319
0.005192175
0.005372588
0.005897977
0.006116472
0.005947373
0.005380144
0.005896872
0.008864618
0.005207645
0.002480481
0.001741072
0.001466171
0.00176635
0.002041041
0.002247123
0.00261023
0.002884068
0.003152014
0.003462943
0.003791605
0.004127737
0.004541922
0.005071378
0.005698556
0.006244791
0.006353675
0.007096583
0.007306332
0.007331323
0.007859635
0.009848087
0.01881437
0.005090553
0.002510341
0.001963413
0.001785161
0.002167476
0.00244768
0.003088896
0.003379337
0.003702491
0.004097359
0.004498627
0.004900616
0.005397063
0.006033358
0.006770629
0.007467468
0.007447671
0.008511496
0.009005203
0.01069214
0.01311933
0.02552026
0.006058417
0.004217129
0.00320415
0.002592636
0.002834701
0.003783768
0.004073496
0.004438806
0.004909528
0.005356134
0.005799039
0.006360822
0.007107017
0.00802516
0.008956509
0.00872031
0.01043551
0.01494407
0.02207256
0.03337285
0.009114892
0.004961181
0.004775945
0.004980124
0.004938873
0.005334275
0.005874233
0.006364495
0.006852267
0.007474727
0.00833951
0.009549488
0.01123417
0.01276429
0.01718374
0.03705758
0.01490784
0.01110938
0.01107117
0.00902615
0.008167375
0.008717126
0.009295588
0.009900623
0.01075005
0.01212495
0.01626873
0.02282472
0.02617689
0.04394464
0.02640696
0.01798479
0.01851535
0.01945717
0.02054742
0.02230449
0.02574042
0.04537857
0.006680761
0.00398043
0.00362514
0.003382194
0.003328869
0.005116465
0.006525153
0.004382648
0.003712088
0.003276707
0.002346242
0.001837979
0.001690403
0.001559426
0.00147701
0.001671433
0.00195201
0.00189775
0.001938533
0.003136544
0.006096956
0.003744979
0.002518918
0.002105818
0.001824925
0.002241256
0.001860388
0.001582724
0.001471988
0.001365186
0.001292241
0.001343221
0.001331626
0.000898472
0.000905481
0.00111338
0.001491366
0.002476357
0.005462439
0.002554969
0.001896981
0.001985051
0.001819728
0.001645365
0.001846391
0.001612715
0.001432719
0.001334928
0.00123478
0.001158834
0.001152165
0.001113129
0.0008754887
0.0008687346
0.0008908635
0.0007271745
0.0009149393
0.001727772
0.004843787
0.002397395
0.001629791
0.001651935
0.001728316
0.001654819
0.001539321
0.001630807
0.001492069
0.001361883
0.001269388
0.001167707
0.001084947
0.001054068
0.001009622
0.0008730947
0.0008566596
0.0008251879
0.0006872755
0.0005575575
0.0006862606
0.001312229
0.004631297
0.002188804
0.001909832
0.00152731
0.001512937
0.001569307
0.001550955
0.001478264
0.001516414
0.001434237
0.001341339
0.001255968
0.001150775
0.001058484
0.001014129
0.0009789446
0.0008949338
0.0008791622
0.0008410513
0.0007306145
0.0006257976
0.0005988881
0.0005679242
0.001234743
0.004454795
0.002137059
0.00180268
0.001630842
0.001433931
0.001415234
0.001460186
0.001474686
0.001436874
0.001454065
0.00140906
0.001349449
0.001278847
0.001176567
0.001075318
0.001016365
0.0009893937
0.0009376052
0.0009333896
0.0009117655
0.0008249147
0.0007192478
0.000621943
0.000550437
0.0005539956
0.001221789
0.004494454
0.002101268
0.00178627
0.001566738
0.001451192
0.001343548
0.001336249
0.001384495
0.001440122
0.00144876
0.001466374
0.001441822
0.0013997
0.001338012
0.001240915
0.001133628
0.001059339
0.001030205
0.001006272
0.001015497
0.001013634
0.0009594016
0.0008720767
0.0007637328
0.0006864297
0.0006944004
0.0005599641
0.001188977
0.004901486
0.002116597
0.001403469
0.001514661
0.001413435
0.001330414
0.001275152
0.00130444
0.001422736
0.001610305
0.001729318
0.00177339
0.001733502
0.001648462
0.001538283
0.001408447
0.001275815
0.001174312
0.001119685
0.001096465
0.001103832
0.00111968
0.001094999
0.001056472
0.0009405881
0.0008711615
0.0009402831
0.0005726944
0.00065608
0.001231031
0.002793625
0.0014564
0.001388477
0.001397155
0.001321594
0.001269114
0.001284162
0.001478319
0.001884987
0.002448255
0.002893778
0.003132377
0.003071255
0.002761209
0.002347615
0.001977533
0.001672822
0.001456701
0.00131932
0.001248565
0.001222626
0.001227201
0.001226845
0.001213474
0.00120117
0.001064705
0.001081649
0.001315779
0.000889998
0.001238927
0.004924233
0.001915299
0.001536807
0.001396778
0.001355365
0.001295853
0.001298095
0.001530004
0.00219456
0.00325986
0.004589824
0.005853892
0.006932343
0.007536577
0.007116508
0.005676247
0.004272525
0.003075132
0.002334984
0.001887181
0.001633275
0.001496419
0.001425299
0.001389862
0.001365224
0.001353434
0.001404471
0.001210906
0.001256815
0.001594332
0.001269573
0.00308134
0.003296879
0.001501884
0.001446745
0.001399546
0.00136466
0.001331927
0.001475451
0.002155642
0.003401008
0.004996547
0.006800464
0.008760174
0.01089959
0.01299622
0.01436954
0.01418517
0.01204368
0.007856449
0.005405704
0.003792215
0.002856732
0.00231812
0.002011666
0.001836459
0.001753011
0.001673211
0.001637326
0.00138786
0.00129128
0.001594933
0.001111541
0.002247561
0.003058395
0.001413017
0.001421572
0.001424998
0.001418669
0.001425137
0.0017408
0.00282865
0.004063073
0.005094191
0.005826645
0.006431982
0.007183116
0.008257654
0.009654146
0.0111875
0.01248851
0.01266852
0.01136736
0.008788528
0.006889547
0.005520435
0.004574242
0.003892235
0.003332061
0.002851519
0.002432596
0.002145023
0.001724422
0.001773731
0.001179877
0.00223075
0.002962471
0.001906202
0.0015695
0.001488168
0.001492393
0.001540224
0.001946412
0.003112269
0.00398849
0.00411264
0.003833272
0.003490071
0.003325332
0.003371732
0.003645468
0.004191319
0.00476768
0.005326387
0.005730742
0.00590636
0.005744546
0.005115367
0.004433681
0.003833332
0.003303717
0.002882405
0.002515427
0.002199807
0.001886279
0.00183026
0.002148802
0.002229799
0.006847142
0.002390478
0.001898239
0.001641735
0.001555956
0.001565723
0.001638924
0.002032181
0.00301063
0.003629859
0.003282012
0.002637536
0.002197217
0.002134387
0.002266619
0.002589187
0.002937442
0.003201768
0.003288314
0.003156616
0.002897897
0.002619516
0.002329062
0.002089995
0.001891225
0.001735095
0.001628554
0.001540204
0.001459305
0.001386418
0.001409119
0.001559091
0.001710092
0.004242305
0.004639859
0.002044091
0.001804179
0.00165519
0.001601857
0.001625446
0.001708481
0.002027426
0.002730987
0.003141335
0.002775248
0.002120217
0.001628798
0.00139153
0.001443432
0.001674576
0.00194339
0.002193564
0.002367311
0.002407639
0.002305014
0.002085167
0.001805466
0.001536375
0.001325036
0.001180408
0.001079141
0.001017268
0.0009820621
0.0009456655
0.0009656645
0.001049998
0.001077243
0.002038999
0.004683488
0.002134397
0.001863064
0.001703291
0.001647548
0.001673065
0.001756391
0.001987323
0.002436689
0.00269234
0.00244337
0.001955932
0.00154032
0.001270193
0.001193887
0.001246455
0.001361385
0.001493289
0.001607788
0.00167985
0.001694863
0.001644616
0.00153286
0.001381978
0.001228669
0.001096858
0.0009904179
0.0009166671
0.0008752667
0.0008005979
0.0007770771
0.000811027
0.0007694977
0.001312646
0.004739598
0.002246802
0.001964891
0.001784499
0.001706612
0.00171686
0.0017901
0.001952178
0.002220286
0.002375909
0.002246028
0.001942001
0.001627221
0.001385546
0.001249775
0.001207476
0.001225594
0.001269774
0.001311929
0.001335311
0.001334959
0.001311817
0.001268272
0.001210078
0.001146161
0.001077625
0.001010649
0.0009559975
0.0009276679
0.0008244116
0.0007859827
0.0008103111
0.0006567882
0.001083473
0.004913726
0.002390174
0.002085696
0.001891397
0.001787009
0.001768077
0.001817044
0.001930966
0.002096943
0.002200083
0.002153889
0.001989559
0.001770342
0.001573817
0.001432894
0.00135819
0.001332535
0.001329375
0.001325588
0.001308713
0.001277384
0.001237234
0.0011955
0.001161996
0.001139226
0.001109561
0.001080564
0.001048072
0.00103319
0.0009109721
0.0008755504
0.0009136369
0.0006774569
0.001169864
0.007529143
0.003078475
0.002457384
0.002134416
0.001953339
0.001869485
0.001865694
0.001932084
0.002042984
0.002131154
0.002141504
0.00206984
0.001942035
0.001804668
0.001696105
0.001631143
0.001596109
0.001569376
0.00153538
0.001489678
0.001436488
0.001384394
0.001340491
0.001317887
0.001312425
0.001299364
0.001279515
0.001238116
0.001198125
0.001047567
0.001018089
0.001023806
0.0008977599
0.00213794
0.004003138
0.002804906
0.002423803
0.002186609
0.002038316
0.001965653
0.001975897
0.002045007
0.002124794
0.002166062
0.002162137
0.002131878
0.00208612
0.002051016
0.002024474
0.001992616
0.001946022
0.001885026
0.001818031
0.001756213
0.00171035
0.001681783
0.001686255
0.001704085
0.001708689
0.00166923
0.00158055
0.001458051
0.001261461
0.001255827
0.001039799
0.001345962
0.003840041
0.002097329
0.002114816
0.002133717
0.002128947
0.002089767
0.002082668
0.002123232
0.002198611
0.002282172
0.002385627
0.002472698
0.002529625
0.002551156
0.002531418
0.002474478
0.002395284
0.002311869
0.002241988
0.002199076
0.002191952
0.002206759
0.002266327
0.002330617
0.002334382
0.002238881
0.002070305
0.001824434
0.001559132
0.001601335
0.001030193
0.001783429
0.003638547
0.002051739
0.002018555
0.002067698
0.002151099
0.002244233
0.002329904
0.002431602
0.002571943
0.002753121
0.002903079
0.003014694
0.003068675
0.003054859
0.002986994
0.002894155
0.002804974
0.002739019
0.002713667
0.002738221
0.002812836
0.002899698
0.003033816
0.003132087
0.00308672
0.002916467
0.002655025
0.002304008
0.001903612
0.001814579
0.001360221
0.002392329
0.005178124
0.002393348
0.001971904
0.001924644
0.002000062
0.002144094
0.002337814
0.00255772
0.002775663
0.002966222
0.003127072
0.003236315
0.003274487
0.003252145
0.003198814
0.003154128
0.00313542
0.003154865
0.003235444
0.003377109
0.003555765
0.003715817
0.003905938
0.003975248
0.003850385
0.003645768
0.003286021
0.002875651
0.002263703
0.001864369
0.002038274
0.004639456
0.002923864
0.001659688
0.001671368
0.001801964
0.001950933
0.002138066
0.002362085
0.002591839
0.002788861
0.002953789
0.003089778
0.00317901
0.003234617
0.003291699
0.00337707
0.003482589
0.003628384
0.003855257
0.00412793
0.004370784
0.004561634
0.004749895
0.004760614
0.004593782
0.004437897
0.004006056
0.003542541
0.002684527
0.002207554
0.003449755
0.004507603
0.002054873
0.001395017
0.001647225
0.001790251
0.001947588
0.002140259
0.002348329
0.002548209
0.002748696
0.002957876
0.003141375
0.003309328
0.003499622
0.003716584
0.003939147
0.004213661
0.00458327
0.00493814
0.005159273
0.005359438
0.005536963
0.00552285
0.005365966
0.005324009
0.004866408
0.004373639
0.003090257
0.003714103
0.006869062
0.003711047
0.00179813
0.00167035
0.001691589
0.001818498
0.001945815
0.002165606
0.002439078
0.002738914
0.003040815
0.003353965
0.003619059
0.003896122
0.004197514
0.004497491
0.004875077
0.005345946
0.005721626
0.005884518
0.006121552
0.00633067
0.006320489
0.006202929
0.00641075
0.006033989
0.005576186
0.005321573
0.009560603
0.003566101
0.0017318
0.001685785
0.001851088
0.001889776
0.002181631
0.002603218
0.002977626
0.003333399
0.003818656
0.004125955
0.004424819
0.004759309
0.005096639
0.005538828
0.006081889
0.006491653
0.00660238
0.006887791
0.007172193
0.007195996
0.007153737
0.007881756
0.007573775
0.007659467
0.01409682
0.003954829
0.001903249
0.002111919
0.002001001
0.002468169
0.003068151
0.003443403
0.003785769
0.004484515
0.004770901
0.005042821
0.005377333
0.005725766
0.006209999
0.00684362
0.00732496
0.007325351
0.00768416
0.008151062
0.008269521
0.008316171
0.00986704
0.01026109
0.01973022
0.005086063
0.002758034
0.002193824
0.002920184
0.003766354
0.004050968
0.004336086
0.005324115
0.005497067
0.005682394
0.00600223
0.0063547
0.006888761
0.007692791
0.008362158
0.008133147
0.008653377
0.009536639
0.009589272
0.009726272
0.01331813
0.02553341
0.007951363
0.004111733
0.003602031
0.004676301
0.004801331
0.005000493
0.00648685
0.006376464
0.00640487
0.006712722
0.007072669
0.007686851
0.00883461
0.01001645
0.009251367
0.01005725
0.01156976
0.01168525
0.01544787
0.03201031
0.0120527
0.008173185
0.006300399
0.00580263
0.005695656
0.00823512
0.007686079
0.007393175
0.007691328
0.008070671
0.008815899
0.01067226
0.01279434
0.01080309
0.01201231
0.01537448
0.02312701
0.03733599
0.01804788
0.0128164
0.01214609
0.01233215
0.009909851
0.008836057
0.009090448
0.009479945
0.01035957
0.01370463
0.01955037
0.02204499
0.02475861
0.03924869
0.02800852
0.01886357
0.018935
0.01960794
0.02177072
0.03784017
0.006566308
0.003830627
0.003492675
0.003104659
0.002973853
0.002800235
0.002697729
0.002750922
0.002949736
0.004782216
0.005203428
0.003378272
0.003244373
0.00230133
0.001776602
0.002261769
0.002117094
0.002026959
0.001916701
0.001822768
0.001688067
0.001175114
0.001343734
0.001545899
0.001720601
0.003022862
0.004203158
0.002077112
0.00229673
0.002327886
0.001901341
0.001656012
0.001849109
0.001712485
0.001621312
0.001519424
0.001421179
0.00130968
0.001073764
0.001106903
0.00111998
0.001087361
0.0009835447
0.002066061
0.004422883
0.002919623
0.002340319
0.001817851
0.001957804
0.001982563
0.001765047
0.001637001
0.00168735
0.001572382
0.001471042
0.001356904
0.001242469
0.001125694
0.0009861391
0.0009586646
0.0009164354
0.0008628056
0.000821168
0.0008743551
0.0009366773
0.001701356
0.004224791
0.002054098
0.002079648
0.001952574
0.001751202
0.001855899
0.00189477
0.001762337
0.001670427
0.001652123
0.001534817
0.001420626
0.001290823
0.001163923
0.001049938
0.0009483061
0.0009019436
0.0008454904
0.000775933
0.0007063117
0.000655972
0.0006168329
0.0005634188
0.00131649
0.004017124
0.002010629
0.001805862
0.001811749
0.001815546
0.001766539
0.001849518
0.001883898
0.001784511
0.001700567
0.001653019
0.001538538
0.001415762
0.001272424
0.001138014
0.001031083
0.0009528786
0.0009066168
0.0008468355
0.0007643721
0.0006673492
0.0005734189
0.0005021049
0.0004799075
0.0005087259
0.001373783
0.004054267
0.001939901
0.001788882
0.001684732
0.001717068
0.001775854
0.001781886
0.001838278
0.001863024
0.001782451