/*--------------------------------*- C++ -*----------------------------------*\
  =========                 |
  \\      /  F ield         | OpenFOAM: The Open Source CFD Toolbox
   \\    /   O peration     | Website:  https://openfoam.org
    \\  /    A nd           | Version:  6
     \\/     M anipulation  |
\*---------------------------------------------------------------------------*/
FoamFile
{
    version     2.0;
    format      ascii;
    class       volScalarField;
    location    "50";
    object      epsilon;
}
// * * * * * * * * * * * * * * * * * * * * * * * * * * * * * * * * * * * * * //

dimensions      [0 2 -3 0 0 0 0];

internalField   nonuniform List<scalar> 
203709
(
0.005780077
0.003434349
0.003313755
0.005272729
0.006164212
0.003764891
0.002608907
0.001999984
0.001928371
0.002342782
0.00316193
0.005147872
0.006241273
0.004334755
0.003159889
0.002321458
0.002026803
0.001849955
0.001775217
0.00179105
0.001896837
0.002400399
0.003385241
0.005465976
0.003825044
0.002683532
0.002122948
0.002148896
0.002018137
0.001909175
0.001822881
0.001763312
0.001735753
0.001748284
0.001819437
0.001984838
0.002630484
0.005641334
0.00197794
0.001476514
0.00148751
0.001673411
0.001819256
0.001833468
0.001800023
0.001754616
0.001716628
0.001695324
0.001702679
0.001766253
0.001967411
0.003373076
0.003949559
0.001865657
0.001549596
0.001556996
0.001645614
0.00177877
0.001888908
0.001894058
0.001796067
0.001711346
0.001647846
0.001611374
0.001614677
0.001688645
0.002221624
0.004693879
0.002710006
0.001623972
0.001487251
0.00145586
0.001475523
0.00153815
0.001643154
0.00174032
0.001725934
0.001674642
0.00158662
0.001480355
0.001357748
0.001270116
0.001307462
0.002019769
0.004301705
0.001939116
0.001445491
0.001354126
0.001318617
0.001305314
0.001282671
0.001248373
0.001211054
0.00117786
0.001144187
0.001097196
0.001057621
0.001038716
0.001052147
0.001132573
0.001549933
0.003513215
0.002882653
0.001334166
0.001130006
0.001149505
0.00120599
0.001248469
0.001244209
0.001202169
0.001150527
0.001103201
0.001066456
0.001043353
0.001030654
0.001029749
0.00105184
0.001119973
0.00130903
0.002371241
0.003355533
0.00152992
0.001199432
0.001134925
0.001173892
0.001244627
0.001276066
0.00124418
0.001184788
0.001122596
0.001074338
0.00104721
0.00103541
0.00103701
0.001059134
0.001128383
0.001320742
0.002317226
0.005867768
0.002294257
0.001543672
0.001401678
0.001365773
0.001369017
0.001375407
0.001355462
0.001298635
0.001219861
0.001144507
0.00108986
0.001060816
0.00105931
0.001086742
0.001193485
0.001709139
0.003759829
0.003325864
0.001830126
0.001584715
0.001509565
0.001492692
0.001488248
0.001470483
0.001425916
0.00135721
0.001274762
0.001193826
0.001135658
0.001116727
0.001151019
0.001317548
0.002299581
0.005864978
0.002477461
0.001765752
0.001632041
0.001593206
0.001575536
0.00155284
0.001514303
0.001458088
0.001388147
0.001312512
0.001249202
0.001221305
0.001281309
0.001766905
0.004019012
0.003560406
0.002022958
0.001790765
0.001702766
0.00165582
0.00161474
0.001571343
0.001520274
0.001465704
0.001412512
0.001375752
0.001372592
0.001497057
0.002580495
0.006441214
0.00286816
0.002114646
0.00189888
0.001770426
0.001685951
0.001622738
0.001572113
0.001541224
0.001524575
0.00155928
0.001625421
0.002149092
0.004615121
0.006704883
0.003953602
0.002693811
0.002059703
0.001850858
0.00172509
0.001670458
0.001698806
0.001758083
0.002236209
0.002887495
0.004904114
0.006474966
0.003786938
0.002605881
0.002013617
0.001942222
0.002425852
0.003086807
0.005280467
0.006276749
0.00372195
0.003566903
0.005993078
0.006158588
0.003317436
0.002838079
0.002569103
0.002368394
0.002236062
0.002170489
0.002175326
0.002297057
0.003686791
0.006199626
0.003694661
0.002453359
0.001753794
0.001526536
0.001379704
0.001271385
0.001208702
0.001191587
0.001215006
0.001281232
0.001603935
0.00213613
0.003307057
0.005723982
0.002601411
0.001999026
0.001667079
0.001411358
0.001246457
0.00110968
0.001005672
0.0009615635
0.0009749446
0.001018306
0.001069843
0.001153136
0.001247002
0.001554188
0.002908522
0.00531682
0.002457686
0.001736244
0.001589653
0.001398205
0.001204309
0.001022051
0.001068345
0.001004715
0.0009653537
0.0009765907
0.0008430518
0.0009390506
0.001019206
0.001077491
0.001140306
0.001474122
0.002740199
0.004924137
0.002343725
0.001652297
0.001398098
0.001308508
0.001149527
0.001223923
0.001130852
0.001106366
0.001051678
0.001013991
0.001016671
0.0009543566
0.001021839
0.0008751138
0.0009724848
0.001047787
0.001137251
0.00143151
0.002758261
0.004777088
0.002242126
0.001557494
0.001273611
0.001104169
0.001412627
0.001471215
0.001463532
0.001363718
0.001266569
0.001176848
0.001113748
0.001090599
0.001055908
0.00110914
0.001088932
0.001329762
0.001011086
0.001145082
0.001276974
0.001662091
0.003254782
0.002506409
0.001477075
0.001207634
0.001059012
0.001607221
0.002220966
0.00255772
0.002467528
0.002144162
0.001803774
0.001536588
0.001364532
0.001274161
0.00122437
0.001238926
0.00126248
0.001474297
0.001886477
0.001144845
0.001315075
0.001557811
0.002586172
0.004604401
0.001832407
0.001250337
0.001210684
0.001288275
0.002442147
0.003662338
0.004834143
0.005380864
0.004767292
0.003658731
0.002705403
0.002141028
0.00182649
0.001660835
0.001600601
0.001587631
0.001633529
0.001992331
0.001242459
0.001470728
0.001642282
0.00214873
0.004470242
0.002592616
0.001381239
0.001265728
0.001397799
0.00232892
0.00294477
0.004354987
0.00590711
0.007675373
0.009135311
0.008838119
0.00639526
0.004771694
0.003775836
0.003207846
0.002975651
0.002899218
0.002933039
0.002717947
0.002898611
0.001852749
0.001837723
0.001899006
0.002901877
0.002395899
0.001313653
0.001302994
0.001303186
0.00215839
0.002314696
0.00277431
0.003383725
0.004399922
0.006083218
0.008159103
0.009422672
0.009101909
0.008561126
0.00776937
0.007118666
0.006389166
0.005250483
0.004021133
0.00309442
0.001760374
0.001506441
0.00144328
0.001959005
0.002507819
0.001251323
0.001228251
0.001600539
0.001878725
0.00184036
0.001951743
0.002101759
0.002305428
0.002478436
0.002668423
0.002934408
0.003216437
0.003371931
0.0032263
0.002904695
0.002501123
0.002106508
0.001816468
0.001721092
0.001423291
0.0009807193
0.001118146
0.001700121
0.002641932
0.001334549
0.001104251
0.001530318
0.001808757
0.001966948
0.00231795
0.002550737
0.002750728
0.002826332
0.002665261
0.002319247
0.001934741
0.001619727
0.001393502
0.001228944
0.001100018
0.0009919643
0.0009021059
0.0008292111
0.0007898974
0.0008495671
0.001114894
0.002212792
0.002710206
0.001431935
0.001130676
0.001318182
0.001537769
0.001678992
0.001810224
0.001945379
0.002301872
0.00266553
0.002782311
0.002617633
0.002270963
0.001877874
0.001537501
0.001277471
0.001088312
0.0009466266
0.0008369509
0.0007581027
0.0007297955
0.0007770767
0.0009749173
0.001783531
0.002755458
0.001496044
0.001201
0.001190736
0.001219209
0.001235459
0.00117731
0.001178842
0.00132496
0.001573877
0.001839858
0.002020365
0.002032638
0.001883344
0.001653117
0.00141768
0.001217285
0.001051725
0.000917398
0.0008054626
0.0007258792
0.0007663845
0.0009245847
0.001638525
0.002856788
0.00155857
0.00127096
0.001022746
0.001066002
0.001029681
0.0009504826
0.000929356
0.0009616797
0.00103544
0.001138802
0.001254665
0.001356414
0.001411757
0.001399098
0.001322886
0.001210458
0.001084914
0.0009721414
0.000832867
0.0006953452
0.0008304251
0.0009814766
0.001660041
0.003132426
0.001670511
0.001343944
0.001129562
0.001077897
0.001025803
0.0009566957
0.0009096706
0.000897148
0.0009042083
0.0009222388
0.0009477827
0.0009800496
0.001014611
0.001041596
0.001049102
0.00102817
0.0009840435
0.0009546139
0.0008326935
0.0008046547
0.0009355327
0.001135581
0.001962981
0.005475046
0.002207658
0.001497754
0.001252309
0.001014059
0.001013383
0.0009813938
0.0009497627
0.0009202434
0.0008953029
0.0008773465
0.0008643668
0.0008586607
0.0008592985
0.0008617998
0.0008650475
0.000858235
0.0008594303
0.0009710868
0.000746622
0.000911051
0.001086402
0.001576554
0.003679962
0.003281781
0.001774252
0.001433677
0.001211415
0.001163502
0.001105845
0.001050017
0.0009973546
0.0009476708
0.0009013021
0.0008644244
0.000840157
0.0008261329
0.0008096608
0.000801923
0.000777677
0.0007925783
0.0008213794
0.0008538771
0.001035724
0.001302671
0.002388388
0.005987456
0.002583556
0.001755545
0.001474419
0.00123266
0.001208015
0.001139991
0.001077848
0.001016384
0.0009594437
0.0009105154
0.0008731555
0.0008538848
0.0008175293
0.0008142752
0.0007741757
0.000806123
0.0008281855
0.001022815
0.001272842
0.001924289
0.004433985
0.006135415
0.002731507
0.001903049
0.001614809
0.001395874
0.001201027
0.001172186
0.00109431
0.001033717
0.0009836334
0.0009455822
0.0009305405
0.0008657418
0.0008771612
0.0008079058
0.0009280095
0.001090503
0.001334695
0.002010529
0.004658345
0.006502136
0.002918135
0.002028628
0.001710412
0.001505872
0.001316321
0.001130807
0.001119762
0.001075334
0.001036798
0.001029751
0.0008955876
0.0009891711
0.001098103
0.001253707
0.001536928
0.002290344
0.005205141
0.006395801
0.002914529
0.002067799
0.001768893
0.001551599
0.001400987
0.001271913
0.001183532
0.001152685
0.001173515
0.001236281
0.001342801
0.001553329
0.001917971
0.002904283
0.006395423
0.006283124
0.003650752
0.002555419
0.001925939
0.001749601
0.001648802
0.001603728
0.001607969
0.001663744
0.001796784
0.002076082
0.002982724
0.004778157
0.0087931
0.006007673
0.00363608
0.003368583
0.003299489
0.003347171
0.003492226
0.003750759
0.004236927
0.005265973
0.009767915
0.005485737
0.00300764
0.002570693
0.002282934
0.002073991
0.001944799
0.001949662
0.003061746
0.00617446
0.003605753
0.002892026
0.001970393
0.001446827
0.001272953
0.001142639
0.001044789
0.0009795849
0.0009563323
0.001119384
0.001369963
0.001480987
0.002458211
0.005341235
0.002430469
0.001814513
0.001488301
0.001206244
0.001043807
0.0009358362
0.0008479862
0.0007824849
0.0007392502
0.0007181453
0.0007210451
0.0007510587
0.0007995915
0.001023687
0.002094845
0.005588972
0.003381065
0.002215035
0.001542175
0.001304152
0.001276368
0.001084595
0.0009562301
0.0008679086
0.0007985474
0.0007496734
0.0007214663
0.0007112045
0.000711971
0.0006974632
0.000612968
0.0006928813
0.0008986083
0.001233971
0.002089855
0.005039391
0.002320804
0.001747646
0.001413871
0.001344511
0.001192105
0.001155911
0.001007565
0.0009029026
0.0008298366
0.0007747677
0.0007398275
0.0007262808
0.0007294834
0.0007383899
0.0007216242
0.0006714634
0.0006621713
0.000590115
0.0006482549
0.0008375139
0.001798114
0.004782838
0.002122198
0.001503815
0.001302581
0.001253168
0.001222529
0.001128134
0.001086639
0.0009775623
0.0008902435
0.0008276073
0.0007800146
0.0007522656
0.0007490552
0.0007640422
0.0007912976
0.0007920496
0.0007631098
0.0007174142
0.0006159276
0.0004973351
0.0005279752
0.0006999377
0.001697344
0.002520994
0.001399941
0.001146158
0.00116546
0.001164422
0.001154843
0.001117663
0.001083029
0.001001431
0.0009242067
0.0008666305
0.0008194691
0.0007920024
0.000791769
0.0008079153
0.000856452
0.00089057
0.0009038721
0.000886111
0.0008115617
0.0006964554
0.0004629
0.0005861455
0.001096363
0.003766441
0.001591251
0.001070451
0.001060067
0.001120472
0.001165129
0.001192906
0.001211756
0.001192684
0.001131502
0.001049746
0.0009761861
0.0009155257
0.0008758818
0.0008661951
0.0008805804
0.0009354858
0.0009892609
0.001048784
0.001092348
0.001092929
0.001076074
0.001180778
0.0006978536
0.0008715026
0.001593052
0.00390753
0.001716398
0.001095405
0.001014126
0.001073133
0.001228178
0.001376702
0.001488974
0.001625539
0.001640175
0.001558987
0.0014241
0.001275925
0.00114659
0.001056106
0.001013325
0.00100812
0.001046147
0.00110003
0.001187496
0.001218801
0.001249174
0.001242894
0.001265096
0.001465661
0.0008527431
0.0009161377
0.001381748
0.002168969
0.001212022
0.0008978274
0.001078999
0.001256602
0.001546589
0.001876386
0.00229605
0.002781731
0.00301762
0.0028979
0.002529831
0.002104101
0.001738263
0.001480817
0.001329321
0.001257525
0.001251307
0.00127918
0.00134708
0.001436079
0.001322116
0.001264769
0.001235665
0.00147447
0.0008517235
0.0009710749
0.001112568
0.001841228
0.001039305
0.0009798298
0.00125235
0.001593162
0.002067297
0.002665299
0.003641883
0.004923872
0.006085642
0.006518254
0.005874885
0.004657632
0.003492238
0.002708681
0.002226448
0.001953533
0.001822712
0.001762046
0.00173786
0.001751742
0.001593567
0.001475079
0.001357682
0.001401702
0.001716707
0.0009871669
0.001320586
0.003782852
0.001432022
0.0009323359
0.001063653
0.001487647
0.001949334
0.002536962
0.003405236
0.004638591
0.006426315
0.008469661
0.01056107
0.01198126
0.01139273
0.008648032
0.006566808
0.005209007
0.00438763
0.004007474
0.003847182
0.003907989
0.003737377
0.00332629
0.002632316
0.002050889
0.001604354
0.001582687
0.0009162141
0.001064925
0.001679191
0.002298972
0.001135144
0.0008755298
0.00108275
0.001664857
0.002120845
0.002506131
0.003017271
0.003532513
0.004189048
0.00511561
0.006597672
0.008797169
0.01126545
0.01265317
0.0122701
0.01154387
0.01051236
0.009571608
0.008566288
0.007019289
0.0054766
0.004185021
0.003133898
0.002363012
0.001775089
0.001350146
0.0008231743
0.0009162607
0.001468955
0.00217593
0.001085325
0.0008479104
0.001032328
0.001630556
0.002149809
0.002352537
0.002418993
0.002420382
0.002471565
0.00258876
0.002837114
0.00315212
0.003494579
0.003886669
0.004255535
0.004404135
0.004207236
0.003795698
0.003291269
0.002807888
0.002427344
0.00217424
0.001904042
0.001687179
0.001614203
0.001454019
0.001005329
0.001123578
0.001644965
0.002215446
0.001091307
0.0008412846
0.0009680129
0.00144404
0.001945721
0.002204965
0.002259597
0.002412932
0.002718956
0.003027132
0.003252112
0.003384318
0.003258683
0.002891971
0.002440018
0.002042149
0.001745323
0.001530307
0.00137225
0.001255377
0.001178279
0.001135133
0.001102047
0.001089131
0.00107783
0.001006797
0.0007888196
0.0008145448
0.00107099
0.002333201
0.001131901
0.0008546133
0.000925673
0.001239509
0.001618662
0.001877185
0.00198001
0.002082828
0.002208361
0.002329317
0.002664328
0.003072783
0.003248298
0.003108267
0.002727924
0.002257375
0.001830225
0.001500249
0.001269667
0.001115439
0.001019091
0.0009601097
0.0009142741
0.0008705885
0.000809869
0.0007139873
0.0006014714
0.0006600108
0.001045302
0.002518519
0.001203962
0.0008900716
0.0009157336
0.001092738
0.001336027
0.001522913
0.001612485
0.00162486
0.00151699
0.001372159
0.001436181
0.001663297
0.001948374
0.002169446
0.002218987
0.002082197
0.001834905
0.001567619
0.001338187
0.001160841
0.001036645
0.0009529435
0.0009059115
0.0008805092
0.0008380322
0.0007225967
0.0005417811
0.0006072429
0.0009786156
0.002835403
0.001321439
0.0009513769
0.0009375385
0.001018437
0.001152658
0.001263744
0.001311058
0.001270211
0.001140247
0.001015014
0.0009733468
0.001006961
0.001095361
0.001212506
0.001325249
0.001396144
0.001398581
0.001333175
0.001227202
0.001110065
0.001003564
0.0009111929
0.0008542316
0.0008485749
0.0008491708
0.000769493
0.0005897722
0.0006755063
0.001059838
0.004808361
0.001739197
0.001055444
0.0009928632
0.001006828
0.001068649
0.001125353
0.001142618
0.001095852
0.0009984026
0.0009197651
0.0008738238
0.0008565167
0.0008592824
0.0008756585
0.0009024352
0.000935114
0.0009649154
0.0009801528
0.0009735519
0.0009464667
0.0009047543
0.0008453299
0.0008034534
0.000803075
0.0008298772
0.0008008634
0.0007070454
0.0009552762
0.002126757
0.002580998
0.001271728
0.001117309
0.001065321
0.001063353
0.001080098
0.00108121
0.001051824
0.0009993529
0.0009423569
0.0008959379
0.000859974
0.000831654
0.0008097831
0.0007957566
0.000790103
0.0007916616
0.0007979474
0.0008058097
0.0008145542
0.0008234215
0.0008011932
0.0007947492
0.0008058015
0.0008594999
0.0008018226
0.0008812769
0.001466766
0.003315799
0.001585691
0.001120755
0.001094135
0.001081236
0.001083966
0.001083607
0.001074018
0.001049524
0.001012172
0.0009668315
0.0009186738
0.0008739721
0.0008352637
0.0008057297
0.0007855312
0.0007731043
0.0007690438
0.000775103
0.0007922719
0.0008171034
0.0008401662
0.0008587108
0.0008812949
0.0009885024
0.00087234
0.001138673
0.002000027
0.005760792
0.002284752
0.001437496
0.001281962
0.001211729
0.001172035
0.001156636
0.001145903
0.001126301
0.001094125
0.001049986
0.0009975127
0.0009439779
0.0008988397
0.0008650931
0.0008405965
0.0008246404
0.0008218912
0.0008409721
0.000875819
0.0009315158
0.0009834159
0.001017199
0.001040712
0.001059385
0.001208846
0.001766479
0.00400247
0.005179948
0.00221542
0.001444152
0.001347835
0.001295291
0.001264126
0.00123812
0.001206524
0.001167152
0.001121203
0.001069941
0.001017308
0.00097563
0.0009453579
0.0009228146
0.000914657
0.0009320724
0.0009868883
0.001052203
0.001158062
0.001241915
0.001289077
0.001295179
0.00139027
0.002008196
0.004387182
0.003654641
0.001921093
0.001472904
0.001405788
0.001363001
0.001317429
0.001271926
0.001221411
0.001171148
0.001124535
0.001084258
0.00105226
0.00103229
0.001026186
0.001042985
0.001103969
0.001225027
0.001328256
0.001518216
0.001639697
0.001653443
0.001716157
0.002135122
0.00369544
0.005854623
0.002616206
0.001763188
0.001395395
0.00137493
0.001346528
0.001298819
0.001247645
0.001207268
0.001174201
0.001148288
0.00113237
0.001135255
0.00116121
0.0012257
0.001365679
0.001607294
0.001749362
0.002066248
0.002149387
0.002218888
0.002722421
0.003777315
0.007882928
0.005437185
0.002482157
0.001714104
0.001375337
0.001368145
0.001286131
0.001260458
0.001246702
0.001232046
0.001224431
0.001239546
0.00128381
0.001362342
0.001509754
0.0017945
0.002230042
0.002362962
0.002771043
0.002926888
0.003662566
0.004981546
0.01021561
0.005116024
0.002965339
0.002023914
0.001421108
0.001169145
0.001282553
0.001303263
0.001302326
0.001327181
0.001399594
0.001515185
0.001681376
0.001968034
0.002474166
0.003067424
0.003180814
0.003821577
0.005550572
0.00843177
0.01364131
0.004385753
0.002097224
0.001578675
0.001467747
0.001403677
0.001401745
0.001483549
0.001645728
0.001858925
0.002140519
0.002605687
0.003411757
0.004388846
0.005459894
0.007247725
0.01533324
0.005069824
0.003238486
0.003133633
0.002618121
0.002289044
0.00248155
0.00284089
0.003269456
0.003827147
0.004776752
0.007288288
0.01069181
0.01297608
0.02024065
0.008387713
0.005827796
0.006330238
0.007299685
0.008370866
0.00979864
0.01234353
0.02346932
0.004497446
0.002551511
0.0022114
0.00201003
0.001970214
0.003083793
0.005454063
0.003288296
0.002689276
0.002239889
0.001529293
0.001141994
0.001001482
0.0009036988
0.0008544877
0.0009704297
0.001137221
0.001183557
0.001312944
0.002251579
0.005243648
0.003081582
0.00205651
0.001580057
0.001327325
0.001555118
0.001219373
0.0009990496
0.0008919959
0.0008150022
0.0007760762
0.0007926813
0.0007642995
0.0005530678
0.0005856316
0.0007333896
0.001032936
0.001856565
0.004665966
0.002127446
0.001561723
0.001621517
0.001378702
0.00122894
0.001293635
0.001067466
0.0009151026
0.0008249206
0.0007597313
0.0007218564
0.0007027404
0.0006544499
0.0005642615
0.0005687877
0.0005779312
0.000503991
0.0007113082
0.001572972
0.004077791
0.001980309
0.001351233
0.001395007
0.001435181
0.001284196
0.00116712
0.001149353
0.0009885248
0.0008678417
0.0007891529
0.0007339491
0.0007007437
0.0006761054
0.0006350126
0.0005844149
0.0005640457
0.0005331479
0.0004847582
0.000455334
0.000661864
0.001448873
0.003820991
0.001755683
0.001579675
0.001285468
0.001308408
0.001339292
0.001237926
0.001130328
0.001074267
0.0009444004
0.0008431827
0.000775858
0.0007323521
0.0007091736
0.0006921105
0.00066391
0.0006263049
0.0005910113
0.0005469321
0.0005060709
0.0004977322
0.000544927
0.0005878466
0.001306537
0.003593173
0.001692982
0.00143451
0.001381371
0.0012406
0.001256832
0.001280702
0.001209322
0.001106448
0.001033189
0.0009216921
0.0008356274
0.0007803035
0.0007500466
0.0007408035
0.0007375244
0.0007227571
0.0006906756
0.0006456464
0.0005882953
0.0005348947
0.0005044136
0.0005001375
0.0005270611
0.0005765657
0.001413921
0.003407807
0.001632459
0.001373645
0.00125337
0.00125501
0.001193584
0.001208081
0.001230728
0.00118679
0.001096528
0.00102084
0.0009229496
0.000847451
0.0008006372
0.000780681
0.0007850454
0.0008018562
0.0008111044
0.0007954934
0.0007502284
0.000683412
0.0006191436
0.0005773644
0.0005705229
0.0005888548
0.0005993008
0.0007042851
0.00153913
0.003572892
0.001562951
0.001075091
0.001175188
0.001136806
0.001158122
0.001139697
0.001159262
0.001188917
0.00117829
0.001115607
0.00104888
0.0009635393
0.0008922586
0.0008459022
0.0008314274
0.0008490032
0.0008886418
0.0009273145
0.0009444491
0.0009204914
0.0008658322
0.0007892996
0.0007156203
0.0006698034
0.0006814392
0.0006817727
0.0005746189
0.0007235766
0.001518625
0.001912352
0.001048214
0.001000364
0.001060854
0.001048266
0.001077834
0.001092429
0.001138114
0.001199401
0.00124032
0.001222215
0.00117178
0.001091435
0.00101254
0.0009543609
0.0009273102
0.0009374237
0.0009802407
0.001038958
0.001098721
0.001117387
0.001109848
0.001063694
0.000975609
0.0009427193
0.0008632346
0.0009014139
0.0008223152
0.0005907798
0.000896156
0.003293795
0.001309054
0.0009993663
0.0009427676
0.0009828023
0.0009820035
0.00102678
0.001120148
0.001266601
0.001427043
0.001574039
0.001622199
0.001577054
0.001462595
0.001324279
0.001203067
0.001122208
0.00109212
0.001109176
0.001159937
0.001230607
0.001284999
0.001312791
0.00130127
0.001232835
0.00115599
0.001205951
0.001237976
0.001033908
0.000754873
0.0006942524
0.001426968
0.001936588
0.0009561286
0.0009146633
0.0009046064
0.0009331233
0.000959117
0.001089461
0.001366006
0.001749438
0.002199315
0.002673004
0.002939208
0.002896883
0.00260503
0.002222091
0.001871047
0.001612634
0.001455861
0.001386527
0.001383419
0.001420433
0.001463466
0.001482713
0.001420008
0.001326557
0.001250074
0.00132873
0.001446334
0.001488458
0.0009513375
0.0006708737
0.0009660261
0.001716127
0.0008434055
0.0008657437
0.0008841033
0.0009199287
0.001027144
0.001360509
0.001949288
0.002732631
0.003793125
0.005103953
0.006224757
0.00666218
0.006153816
0.005066445
0.003938669
0.003116082
0.002578869
0.00226151
0.002098167
0.002016803
0.001966072
0.001935807
0.001837145
0.001637688
0.001435944
0.001380617
0.00158217
0.001573348
0.001229682
0.0007456227
0.001063599
0.001594656
0.0009852171
0.000864582
0.0008773305
0.0009458535
0.001213798
0.001848134
0.002742051
0.00391801
0.005496536
0.007528753
0.009788011
0.01193573
0.01324088
0.01256542
0.009991305
0.007844135
0.006368022
0.005449619
0.005002575
0.004864876
0.0049049
0.004611068
0.003922291
0.003069669
0.002262883
0.001674453
0.001452387
0.001215865
0.001057005
0.00108338
0.001212006
0.003783897
0.001328607
0.001002016
0.00088695
0.0008883466
0.0009812291
0.001426368
0.002301048
0.003106419
0.003909965
0.004706345
0.005595224
0.006813676
0.008649259
0.0110885
0.01356644
0.01482992
0.0143916
0.01356967
0.01242289
0.01124064
0.009880307
0.008027174
0.006325317
0.004904347
0.003769612
0.002812366
0.001993249
0.001363484
0.0009668701
0.0009103387
0.00109433
0.001178565
0.001352666
0.00238474
0.001083384
0.0009692815
0.0009045238
0.0009101441
0.001005036
0.001497945
0.002468813
0.003046891
0.003171583
0.003124255
0.003078366
0.003130979
0.003346994
0.003746517
0.00423369
0.004740861
0.005124147
0.005178059
0.004907628
0.00441256
0.003852613
0.003344408
0.002938357
0.002662671
0.002453694
0.002307381
0.002194006
0.001920659
0.001564508
0.001386429
0.001276213
0.001106488
0.001290058
0.002372819
0.001076845
0.00097164
0.0009269371
0.0009396862
0.001020038
0.00143717
0.002260436
0.002803733
0.002834374
0.00282515
0.002982817
0.003268447
0.003539119
0.003733677
0.003683653
0.003361371
0.002900774
0.002454992
0.002101375
0.001840455
0.001654773
0.001530999
0.001469338
0.001472606
0.001527822
0.001623205
0.00172706
0.001743858
0.001569808
0.001291258
0.0008896166
0.0005029353
0.0004703815
0.002527673
0.001133408
0.001006196
0.0009604731
0.0009756098
0.001043109
0.001333708
0.001918156
0.002351698
0.002435241
0.002455316
0.002526116
0.002653136
0.002893384
0.003305328
0.003524199
0.00343111
0.003065939
0.00256866
0.00209164
0.001713889
0.001451044
0.001283389
0.001191076
0.001162789
0.001179027
0.00120102
0.001186198
0.001081392
0.0008947483
0.0006837211
0.0004922571
0.000369207
0.0005695951
0.002794473
0.001234169
0.001069496
0.001009359
0.001019219
0.001075086
0.001258453
0.001611264
0.001910428
0.002000765
0.001968456
0.001838913
0.001612275
0.00160336
0.001790697
0.002059834
0.002281962
0.002343213
0.002217638
0.001970725
0.001693461
0.001450529
0.001263702
0.001132967
0.001059261
0.001037915
0.001038909
0.001027793
0.0009637305
0.0008459476
0.0007032228
0.0005440779
0.0004053302
0.0006345391
0.004477672
0.00157987
0.001222295
0.001097654
0.001080593
0.001118078
0.001227597
0.00142154
0.001591148
0.001653672
0.001600252
0.001428956
0.001226323
0.001126112
0.001125917
0.001195441
0.001296384
0.001390066
0.001442531
0.001433746
0.00136693
0.001266105
0.001156743
0.00105391
0.0009713349
0.0009236646
0.0009089761
0.0008990068
0.0008607614
0.0007896237
0.0007065365
0.0005763344
0.0005282479
0.001196183
0.002347092
0.001534391
0.00127612
0.001178122
0.001176799
0.001233902
0.001335983
0.001425798
0.00145022
0.00139083
0.001267173
0.001138886
0.001054237
0.001012452
0.000998677
0.0009984407
0.001003334
0.001009614
0.001014114
0.001012123
0.001000187
0.0009771608
0.0009419422
0.0008973082
0.0008598325
0.0008437782
0.0008325196
0.0008044507
0.0007556347
0.0007168178
0.0005946089
0.0007666818
0.002842669
0.001343983
0.00126371
0.001220764
0.0012232
0.001256841
0.001314564
0.001365889
0.001377911
0.001335413
0.001256205
0.001183602
0.00112164
0.001070726
0.001026523
0.0009852408
0.0009469012
0.0009141504
0.0008902117
0.0008768377
0.000874028
0.0008788853
0.0008854527
0.0008820548
0.0008724725
0.0008702048
0.0008628965
0.0008365681
0.0007894611
0.0008007686
0.0006073701
0.001044325
0.003381582
0.001613715
0.001399701
0.001321958
0.001305606
0.001323353
0.001355699
0.001387067
0.001401188
0.001391224
0.001358079
0.001301551
0.001244112
0.001185813
0.001124612
0.001063654
0.001007302
0.0009593702
0.0009234883
0.0009029328
0.0009008781
0.0009160434
0.0009452959
0.000972165
0.0009846653
0.0009971844
0.0009917609
0.0009668751
0.0008895776
0.0008959205
0.0007946523
0.001447914
0.005125343
0.002084536
0.001634663
0.001471373
0.001418004
0.001422554
0.001446186
0.00147514
0.00150127
0.001511306
0.001488914
0.001436813
0.001369109
0.001301833
0.001235524
0.001169884
0.001110591
0.001061403
0.001028014
0.001016811
0.001033133
0.001073219
0.001134866
0.001186984
0.001210355
0.001232786
0.001216874
0.001195255
0.001054237
0.0009793014
0.001228994
0.002890083
0.003137194
0.001625334
0.001505091
0.001457575
0.001472265
0.001514025
0.001560259
0.001590366
0.001589977
0.001560657
0.001505431
0.001443391
0.001381596
0.001325871
0.001273051
0.001226332
0.001190655
0.001178482
0.001202347
0.00126184
0.001346801
0.001454589
0.001528909
0.001548864
0.001579472
0.001548845
0.001529213
0.001280513
0.001253448
0.00219299
0.004933339
0.002189326
0.001447788
0.001459091
0.001488768
0.001532866
0.001572115
0.001595787
0.001592217
0.001561295
0.0015143
0.00146706
0.001424934
0.001391915
0.001366435
0.001349772
0.00134888
0.001385965
0.001481235
0.001606622
0.001753531
0.001914582
0.001991938
0.00198463
0.002031697
0.001978438
0.001960114
0.001542087
0.002167259
0.004589756
0.004432108
0.002066817
0.001746987
0.001618449
0.001566856
0.001555033
0.001550723
0.001539657
0.001517322
0.001488709
0.001467777
0.001456714
0.001455296
0.001468538
0.001499866
0.001558662
0.001682442
0.001899338
0.002099958
0.002313033
0.002506884
0.002547006
0.002494049
0.002592221
0.002531013
0.002462795
0.002713474
0.005580289
0.003854892
0.001841689
0.001634299
0.00154455
0.001490487
0.001459155
0.00145231
0.001453066
0.001460004
0.001478578
0.00151004
0.001549958
0.001614665
0.001711761
0.001854128
0.00211674
0.002510081
0.002738565
0.002994704
0.003193513
0.003159922
0.003038223
0.003291708
0.003224351
0.0034673
0.007060367
0.003512801
0.001686834
0.001527679
0.001367532
0.001337564
0.001365596
0.001406216
0.001454665
0.00153543
0.001631169
0.001725415
0.001861361
0.002038396
0.002280539
0.002728044
0.003325554
0.003491187
0.00376826
0.003923758
0.003800871
0.003623142
0.004205164
0.004453497
0.009008274
0.003281362
0.001594083
0.001098187
0.001211616
0.00135015
0.001425947
0.001494854
0.001707709
0.001894515
0.002041289
0.002266067
0.002535414
0.002893157
0.003562159
0.004355349
0.004274042
0.004563076
0.004751359
0.004509895
0.004300088
0.005894403
0.01146816
0.003421559
0.001674404
0.001228585
0.001518663
0.001559744
0.001625004
0.00213725
0.002364187
0.00251274
0.002830053
0.003185645
0.003658787
0.004591359
0.005659678
0.005128754
0.005497105
0.005828427
0.005615646
0.007158449
0.01477334
0.004310485
0.002644816
0.002006485
0.001825562
0.001856864
0.002961577
0.003114433
0.003176629
0.003589769
0.004022723
0.00462228
0.005972713
0.007499569
0.006191255
0.006757306
0.007788651
0.01141467
0.01795338
0.006335418
0.004700164
0.004557193
0.004944487
0.004322489
0.004108445
0.004589855
0.005093499
0.005842651
0.008115698
0.01171781
0.01305378
0.01423653
0.02002706
0.0141448
0.01012387
0.01081951
0.01170422
0.01334663
0.02356534
0.004827007
0.002802801
0.002388641
0.00204747
0.001869639
0.001708774
0.00161478
0.00163124
0.001786603
0.003075575
0.004544642
0.002805164
0.002404048
0.001647896
0.001261124
0.001560271
0.001398142
0.001276042
0.001164635
0.001071783
0.0009585917
0.0006807506
0.0008082442
0.001003788
0.001203095
0.002234232
0.003585055
0.001691927
0.001884771
0.001717673
0.001386824
0.001216042
0.00129013
0.001147941
0.00103821
0.0009387088
0.0008490228
0.000757256
0.0006589193
0.0006900449
0.0007233186
0.0007279874
0.0006848986
0.001516396
0.003732305
0.002405557
0.001995043
0.001509405
0.001605448
0.001503202
0.001330124
0.001226856
0.001197981
0.001076583
0.0009675173
0.0008691952
0.0007819202
0.0007034585
0.0006417575
0.0006234547
0.0006037077
0.0005831027
0.0005829748
0.0006367005
0.0007734488
0.001531971
0.003579158
0.001582027
0.001718171
0.001651688
0.001476504
0.001551088
0.001490064
0.00136369
0.00126135
0.00117824
0.001053581
0.0009428921
0.0008477301
0.0007687518
0.0007045692
0.0006553445
0.0006202432
0.000583732
0.0005497434
0.0005283915
0.0005269417
0.0005508868