/*--------------------------------*- C++ -*----------------------------------*\
  =========                 |
  \\      /  F ield         | OpenFOAM: The Open Source CFD Toolbox
   \\    /   O peration     | Website:  https://openfoam.org
    \\  /    A nd           | Version:  6
     \\/     M anipulation  |
\*---------------------------------------------------------------------------*/
FoamFile
{
    version     2.0;
    format      ascii;
    class       volScalarField;
    location    "50";
    object      k;
}
// * * * * * * * * * * * * * * * * * * * * * * * * * * * * * * * * * * * * * //

dimensions      [0 2 -2 0 0 0 0];

internalField   nonuniform List<scalar> 
203709
(
0.003959373
0.004016041
0.003974958
0.003740037
0.00453512
0.005600755
0.004972641
0.004412927
0.004146983
0.003906488
0.003866342
0.003465586
0.004060885
0.004792289
0.004338616
0.004895199
0.004879346
0.004444303
0.004185617
0.003933945
0.003783985
0.003487644
0.003447949
0.003130506
0.003760652
0.003893399
0.004087841
0.004165287
0.004324951
0.004382372
0.004312086
0.004185695
0.003911167
0.003695815
0.003447301
0.003294557
0.003060207
0.002798608
0.003594107
0.003620281
0.003640751
0.003619746
0.003592478
0.003581868
0.003563607
0.003522574
0.003452851
0.003272492
0.002986876
0.002809827
0.002651427
0.002396436
0.003669741
0.003296041
0.003278852
0.003275728
0.003293466
0.003358616
0.003424159
0.003409325
0.003308737
0.003155172
0.002992764
0.002846627
0.002717366
0.002590577
0.002402581
0.002178343
0.003724787
0.003172931
0.002913851
0.002698412
0.002876284
0.003240858
0.003480909
0.003595708
0.003571481
0.003422297
0.003204009
0.002976021
0.002783395
0.002631827
0.002504623
0.002328876
0.004379445
0.004053058
0.003462405
0.003077187
0.002903052
0.003061161
0.003328194
0.003585212
0.003768147
0.003842474
0.003789342
0.003625965
0.003391627
0.00314364
0.002921308
0.002739731
0.002573857
0.002426399
0.004341865
0.00416248
0.003804439
0.003533063
0.003468679
0.003579192
0.003719751
0.003861926
0.003981904
0.004052608
0.004048069
0.003956423
0.003783907
0.003555856
0.003308839
0.003077568
0.002887434
0.002691614
0.00432458
0.00423531
0.004055999
0.003923434
0.003917126
0.003969188
0.004038831
0.00411594
0.004187394
0.004231925
0.004228888
0.004164794
0.00403872
0.003858532
0.00364241
0.003417135
0.003216539
0.003024814
0.004448599
0.004341396
0.004240646
0.004181081
0.004183874
0.004203188
0.004239504
0.004287484
0.004334083
0.004360147
0.004348561
0.004289772
0.004184226
0.00403797
0.003862558
0.003679331
0.003529365
0.003364606
0.004358668
0.004320573
0.004293542
0.00429284
0.004310072
0.004345208
0.004390313
0.004428441
0.004441479
0.004418062
0.004355003
0.004257347
0.004131895
0.003989713
0.003857989
0.003797527
0.004430785
0.004397607
0.004374397
0.004369728
0.004390334
0.004429698
0.004471538
0.004496696
0.004490787
0.004450337
0.004379696
0.004287659
0.004180611
0.004068148
0.003994345
0.003990722
0.004421776
0.00442426
0.004445395
0.004485761
0.004527549
0.004553671
0.00455101
0.004517019
0.004458904
0.004387379
0.004311035
0.004233561
0.004153901
0.004140493
0.004543189
0.004589775
0.004620185
0.004658377
0.004660658
0.004638259
0.004591964
0.004532949
0.004473868
0.004427709
0.004393063
0.004377696
0.004332531
0.004307157
0.004775285
0.004795349
0.004840542
0.004764415
0.004706515
0.004636934
0.004588519
0.004570926
0.004604937
0.004660001
0.004788204
0.004738987
0.004728011
0.00475819
0.004801075
0.004774317
0.004812586
0.004894269
0.00507678
0.005141967
0.004959125
0.005107225
0.005310973
0.005406459
0.004074759
0.004021095
0.004045949
0.004074235
0.003993651
0.003817046
0.003600902
0.003381985
0.0032043
0.003060341
0.003701889
0.003992503
0.003993584
0.003967074
0.004021174
0.004088871
0.004060347
0.003924827
0.00373085
0.00352034
0.003337505
0.003177777
0.003111083
0.002840626
0.003581965
0.003599629
0.003830189
0.00388397
0.003907457
0.003998891
0.004110091
0.004139341
0.00405466
0.003897621
0.003709126
0.003518294
0.003351847
0.003242048
0.003018269
0.002810414
0.003480577
0.003568051
0.003467324
0.003639291
0.003793816
0.00395571
0.0041319
0.004174616
0.004208102
0.004141339
0.004003782
0.003867493
0.003724968
0.003572297
0.00343153
0.003247135
0.003029846
0.002834787
0.003438231
0.003582524
0.003543323
0.003631679
0.004021277
0.004396632
0.005736858
0.006446215
0.005546707
0.005103914
0.004713399
0.004329016
0.004198512
0.004081761
0.003820568
0.00367191
0.003519824
0.003345495
0.003133515
0.002964894
0.003450193
0.003611166
0.003717027
0.004127313
0.004964535
0.007163719
0.008781377
0.009847648
0.01197783
0.01122911
0.009179758
0.00737943
0.00588244
0.005183152
0.004723277
0.004568981
0.00419191
0.003894887
0.003702374
0.003524462
0.00331869
0.00317038
0.003465797
0.003697796
0.004057808
0.004873155
0.006361747
0.007879499
0.01018557
0.01225186
0.01484736
0.01637864
0.01648736
0.01480967
0.01050918
0.008330501
0.006727753
0.005820044
0.004852083
0.004255222
0.004106078
0.003956514
0.003766417
0.003539713
0.003584096
0.003688383
0.003778932
0.004200056
0.004839242
0.005503926
0.006488821
0.007305861
0.008042871
0.009063496
0.01030495
0.01187401
0.01334093
0.01392561
0.01310098
0.01132647
0.009910975
0.008535686
0.006572941
0.00552747
0.004718873
0.004094487
0.003607193
0.003153228
0.003629125
0.003738465
0.003825117
0.004142011
0.004658178
0.004891102
0.005245437
0.005461402
0.005731788
0.00609866
0.006650457
0.007180379
0.007643875
0.008032254
0.008248694
0.008338848
0.008086323
0.007411573
0.00608463
0.004854126
0.004029298
0.003412797
0.003024995
0.00266914
0.003715095
0.003804252
0.003928438
0.004191181
0.004542006
0.004346403
0.004397557
0.004389034
0.004682639
0.005087016
0.005601858
0.006103434
0.006454903
0.006516583
0.006245968
0.005770883
0.005230847
0.004659355
0.004040867
0.003310698
0.002906733
0.002740974
0.002582268
0.00234025
0.003805974
0.003878706
0.00402172
0.004325171
0.004530081
0.004194083
0.003991391
0.00377997
0.003689759
0.003952817
0.004359008
0.004805573
0.005206617
0.005474215
0.005528709
0.005346175
0.004956346
0.004431195
0.003834237
0.00309425
0.002620657
0.002658424
0.00254293
0.002334642
0.003883922
0.003945351
0.004085448
0.004284645
0.004430124
0.004192545
0.00392751
0.003679849
0.003528439
0.003568433
0.003747326
0.003994494
0.004247038
0.004456583
0.004589003
0.004616727
0.004516396
0.004275027
0.003884071
0.003401653
0.002901414
0.002798943
0.002650815
0.002461888
0.003944608
0.003993478
0.00411417
0.004236369
0.004347642
0.004231505
0.004010412
0.003781928
0.003622475
0.00357736
0.003627194
0.003730625
0.003843748
0.003937183
0.003995774
0.004014359
0.003985633
0.00388874
0.003676681
0.003338942
0.00301628
0.002928268
0.002794447
0.002639177
0.00398881
0.004018218
0.004111343
0.004194075
0.004278704
0.004261549
0.004131297
0.003969757
0.003851042
0.003789424
0.003776936
0.003789793
0.00380294
0.00380122
0.003780226
0.003742784
0.003691322
0.003613316
0.003453064
0.003191301
0.003066126
0.003022413
0.002929472
0.002822305
0.00402349
0.004022857
0.004082152
0.004153688
0.004311372
0.004368822
0.004335706
0.004254189
0.004163988
0.00409279
0.004042568
0.003999512
0.003949355
0.003886216
0.003813425
0.003738912
0.003666888
0.003584648
0.00342183
0.003239145
0.00320949
0.003151044
0.003079317
0.003007548
0.004070401
0.004026493
0.004045362
0.004109529
0.00429112
0.004405691
0.004444955
0.00442916
0.00439726
0.004366567
0.00432699
0.004267358
0.004189207
0.004100478
0.0040114
0.003935555
0.0038713
0.003799889
0.003624169
0.003455676
0.00345718
0.003399006
0.003310924
0.003229983
0.004134158
0.00411434
0.004066835
0.004082632
0.004139684
0.00442821
0.004571558
0.004654821
0.004686661
0.004687765
0.004650045
0.004577547
0.004491984
0.004409695
0.004342179
0.004309879
0.004285983
0.004253039
0.004077287
0.004041734
0.00394497
0.003837318
0.003681107
0.003511367
0.004393635
0.00426888
0.004226191
0.004268525
0.004538209
0.004744995
0.004894256
0.00496803
0.004977985
0.004936379
0.004870049
0.004817326
0.004789671
0.004790029
0.004856463
0.004897109
0.004964216
0.00484269
0.004760855
0.004696229
0.004529063
0.004227586
0.004302194
0.004451162
0.004457295
0.004520407
0.004611003
0.004857594
0.005002239
0.005111706
0.00514212
0.005108326
0.00511218
0.005161116
0.005240794
0.005339944
0.005552564
0.005635006
0.005732447
0.005753504
0.005785998
0.005797181
0.005553772
0.004875673
0.004326302
0.004579156
0.004582983
0.004583132
0.004588426
0.004618987
0.00484452
0.005034753
0.00517381
0.005352815
0.005551877
0.005782417
0.005987421
0.006244302
0.006484422
0.006669899
0.006986832
0.007304873
0.00732583
0.006740316
0.004087752
0.004347891
0.004341801
0.004365607
0.004473325
0.004620778
0.004861998
0.005284858
0.005746141
0.006115999
0.006410907
0.006755081
0.007133689
0.007689158
0.008185609
0.008674797
0.008971899
0.008598677
0.004014933
0.004261473
0.004406852
0.004699396
0.004955494
0.005324364
0.005825986
0.006388008
0.006879066
0.007314445
0.007836565
0.008559256
0.009298296
0.009758778
0.01019059
0.01012527
0.004297208
0.004816748
0.005375784
0.00569168
0.006221157
0.006857705
0.007465275
0.008014822
0.008589742
0.009252097
0.009976295
0.01070639
0.01107823
0.01125795
0.006052439
0.006595082
0.007252503
0.007971756
0.008588676
0.009144914
0.009755786
0.01042673
0.01110891
0.01171716
0.004142269
0.004032466
0.003965011
0.00382238
0.003615761
0.003392337
0.00317498
0.002998293
0.004014265
0.004346142
0.004340135
0.004161515
0.00407344
0.004011877
0.003865306
0.003654409
0.003426036
0.003203753
0.003020142
0.00287056
0.0026201
0.002450977
0.004071343
0.004033157
0.004315516
0.004349405
0.004202036
0.004152439
0.004109104
0.003963824
0.003746323
0.00351093
0.003286805
0.003114543
0.002995465
0.00275408
0.002576654
0.002378815
0.003778896
0.004021472
0.004081206
0.004032253
0.004311787
0.004199045
0.004102172
0.004100874
0.00409949
0.003978143
0.003766203
0.003528531
0.003300966
0.003133063
0.003029376
0.002920553
0.002744464
0.002584924
0.002164822
0.001769951
0.003648729
0.0037498
0.003927328
0.004028006
0.00387282
0.004192506
0.004139785
0.00411428
0.004150966
0.004191811
0.004109787
0.003913502
0.003672678
0.003433629
0.003262493
0.003149849
0.003109998
0.002911459
0.002784189
0.002429
0.001952756
0.001516549
0.003538837
0.003615199
0.00365746
0.003847047
0.003856153
0.003819433
0.004264931
0.004278226
0.004281868
0.004323069
0.004371079
0.004317464
0.004145365
0.003909227
0.003655101
0.003463285
0.003337606
0.00332649
0.003153488
0.003142045
0.002741594
0.002352393
0.001923657
0.001475985
0.003497011
0.003522419
0.003591774
0.003748266
0.0039437
0.004161682
0.004908564
0.005072382
0.005086404
0.005016909
0.004923067
0.004762549
0.004535878
0.004263311
0.003993889
0.003783638
0.003639387
0.003605405
0.003497082
0.003430924
0.003251361
0.002822517
0.002493774
0.002032323
0.003505991
0.0035425
0.003492236
0.003630573
0.004057794
0.004691606
0.005540851
0.006866452
0.007493744
0.007838924
0.007654121
0.007043783
0.00630043
0.005648759
0.005085907
0.004664414
0.004335294
0.004121009
0.004014435
0.0039016
0.003791802
0.003518399
0.003221949
0.003000304
0.00266999
0.002345464
0.003297695
0.003536385
0.003516393
0.003567907
0.004026559
0.005038303
0.006445998
0.0081859
0.01034864
0.01207328
0.01347758
0.0144099
0.01364265
0.01136157
0.009212041
0.007341253
0.006193544
0.005439737
0.005002294
0.004684988
0.004462445
0.004263164
0.004005795
0.003553657
0.003153168
0.003083529
0.00290761
0.002700309
0.003367404
0.003491377
0.003519802
0.003840841
0.004763101
0.006361393
0.008167128
0.01017717
0.01243362
0.0149397
0.0175421
0.02015106
0.02170335
0.02137135
0.01884681
0.0137263
0.01060586
0.008368085
0.007015568
0.006073033
0.005385538
0.00502875
0.004788045
0.004446104
0.003741651
0.003608159
0.003397973
0.003191078
0.003486853
0.003520143
0.003646049
0.004110746
0.005395357
0.007222258
0.008487278
0.009382424
0.01022181
0.01097956
0.01191216
0.01326645
0.01493877
0.016928
0.01865135
0.01908014
0.01773509
0.01497102
0.01273853
0.01091103
0.009201059
0.008131756
0.007163427
0.006264899
0.005009788
0.004070232
0.003774414
0.003488139
0.003520826
0.003604446
0.003585483
0.003769061
0.004255966
0.005565654
0.007380684
0.007978868
0.007782821
0.007532632
0.007281518
0.007311465
0.007612702
0.008287475
0.009121027
0.009941644
0.0106874
0.0111756
0.01137386
0.01111008
0.01019513
0.008861115
0.007674603
0.006740181
0.006012312
0.005226316
0.004024518
0.003767658
0.003450191
0.003004768
0.003629318
0.003601626
0.003623044
0.003862315
0.004323845
0.005440355
0.006958543
0.007348916
0.00662899
0.005912868
0.005468142
0.005584491
0.005916252
0.006540511
0.007202763
0.00772538
0.007934671
0.007742617
0.007280402
0.006720182
0.00608722
0.005464755
0.004866333
0.004434942
0.004180825
0.003856943
0.003160796
0.003116644
0.002923547
0.002592231
0.003773041
0.00366475
0.003674262
0.003930895
0.004344615
0.005213891
0.006369642
0.006656031
0.005992487
0.00517726
0.004530626
0.004177409
0.004365717
0.004828727
0.005368739
0.005879835
0.006259049
0.006400927
0.006267996
0.005876303
0.005307966
0.004673417
0.004065981
0.003621889
0.003407602
0.003139354
0.002640573
0.002655198
0.002503572
0.002206513
0.003956343
0.003782644
0.00375502
0.003992058
0.004350627
0.004995782
0.005816372
0.006076436
0.005622791
0.004976166
0.00436854
0.003945057
0.003859814
0.004009357
0.004276852
0.004573227
0.004835036
0.005015853
0.005084464
0.005011055
0.004782327
0.004406822
0.003960579
0.003565406
0.003309521
0.003028188
0.002552931
0.002532482
0.00237344
0.002080755
0.004140849
0.003932671
0.003864709
0.00405582
0.004357567
0.004834834
0.005402645
0.005658551
0.00544549
0.005017497
0.004528356
0.004137005
0.00393087
0.003895036
0.00396878
0.004086406
0.004197131
0.004270723
0.004296279
0.004267581
0.004173797
0.003988623
0.003720089
0.003482235
0.003314523
0.003092009
0.002660189
0.002614776
0.002445328
0.002149468
0.004294289
0.00408906
0.003993485
0.004123705
0.004365293
0.00472725
0.005139357
0.005394078
0.005370423
0.005128119
0.004790929
0.004478957
0.004258626
0.004148025
0.004117552
0.004122567
0.00412515
0.00410416
0.004054419
0.003979992
0.003882158
0.003734951
0.003544351
0.003433267
0.00335641
0.003195398
0.002829367
0.002795166
0.00262541
0.002334088
0.004428787
0.004254843
0.004142681
0.004204744
0.004377533
0.004651161
0.004980309
0.005250158
0.005355824
0.005270328
0.005084948
0.004862157
0.004683719
0.004573123
0.004510095
0.004461458
0.004402079
0.004322436
0.004223824
0.00411463
0.003999816
0.003845186
0.003697111
0.003659392
0.003616832
0.003442855
0.003093124
0.003065316
0.002879176
0.002589698
0.004396362
0.004495057
0.004360918
0.004330359
0.004417026
0.004606858
0.004875434
0.005147844
0.005321529
0.005354418
0.005292808
0.005209817
0.005147017
0.005104011
0.005058093
0.004992964
0.004904903
0.004800271
0.004687282
0.004578201
0.004480481
0.004341088
0.004277217
0.004286062
0.004238625
0.003961444
0.003562321
0.003467695
0.003207121
0.002886085
0.004770648
0.004663945
0.004602066
0.00456876
0.00464595
0.004821145
0.005053996
0.005278336
0.005453812
0.005575439
0.005684788
0.005752256
0.005766271
0.005724388
0.0056449
0.005548272
0.005451571
0.005364124
0.005302831
0.005284003
0.005222466
0.005303778
0.005354945
0.005233219
0.004766053
0.004326632
0.003997811
0.0036189
0.004432388
0.004606971
0.004745417
0.004924351
0.005017479
0.005165063
0.005402048
0.005715283
0.005985313
0.006212913
0.006366591
0.006441044
0.006428858
0.006362188
0.006286609
0.006225094
0.006186724
0.006178199
0.006230464
0.006389651
0.006465578
0.006635729
0.006690457
0.006429263
0.005677715
0.005162881
0.004548548
0.003997116
0.003826654
0.004302968
0.004531962
0.004838766
0.005140968
0.005430181
0.005739756
0.006044673
0.006339305
0.006564967
0.0066994
0.006769547
0.006794651
0.006797949
0.006821699
0.006871574
0.006946311
0.007069886
0.007291204
0.007707533
0.007852337
0.008100002
0.008089929
0.007632363
0.006874471
0.005818637
0.005008813
0.004362125
0.003912271
0.004350758
0.00447605
0.004852925
0.005250352
0.005585765
0.005896051
0.006180985
0.00638937
0.006559063
0.00670322
0.006873993
0.007088132
0.007297435
0.007505308
0.007717285
0.008023145
0.008396144
0.009028465
0.0090881
0.009412841
0.009318742
0.008518832
0.007489815
0.006398809
0.005545358
0.003719046
0.0039361
0.004080973
0.004541795
0.004996862
0.005334394
0.005732761
0.006024323
0.006300243
0.006613348
0.007019853
0.007422747
0.007792676
0.008182476
0.008550383
0.009030394
0.009547741
0.01024648
0.0102373
0.01065787
0.01038708
0.009427086
0.008296689
0.007066757
0.003315096
0.003597812
0.00373508
0.003946445
0.004503027
0.004900609
0.005504537
0.005925212
0.006359075
0.006869782
0.007454746
0.008000942
0.008488584
0.008998348
0.00952734
0.01013042
0.01074035
0.01141297
0.01135649
0.01171815
0.01158692
0.01025505
0.009066733
0.007865378
0.003337787
0.00363875
0.003970036
0.004376788
0.004818027
0.005731962
0.006286337
0.006819095
0.007480106
0.008206535
0.008830354
0.009374304
0.009949126
0.01056166
0.01122051
0.0118094
0.01239598
0.01231136
0.01286289
0.01229797
0.01097873
0.009811682
0.003680887
0.004299475
0.004791246
0.005220067
0.006288157
0.006913363
0.007531368
0.008279819
0.009060424
0.009674878
0.01021229
0.01080945
0.01145865
0.01211976
0.0127039
0.01325007
0.01317087
0.01334707
0.01293455
0.01147059
0.005316472
0.00589415
0.007031295
0.007878401
0.008364304
0.009121221
0.009888034
0.01047869
0.01100385
0.01160301
0.01227144
0.01296187
0.01353182
0.01350972
0.0134174
0.01347845
0.006533956
0.007773273
0.008572932
0.008953612
0.009667602
0.01040105
0.0109518
0.01142231
0.01196074
0.01257516
0.01323499
0.01387174
0.01373389
0.01339474
0.009328804
0.01004814
0.01077426
0.01130101
0.01171979
0.01219841
0.01275325
0.01334653
0.003954923
0.003885044
0.003797375
0.00362845
0.003449566
0.003309048
0.003889032
0.004310429
0.004318188
0.004349635
0.004152312
0.004028149
0.003894242
0.003691679
0.003482552
0.003309047
0.003074064
0.00275781
0.002503203
0.002390261
0.003737284
0.004119456
0.00416185
0.004494374
0.004482327
0.004245645
0.004115801
0.004027649
0.003862986
0.003631439
0.003387274
0.003153089
0.002926227
0.002788351
0.00255948
0.002409142
0.002222571
0.002048627
0.003840987
0.003995382
0.004287882
0.004155648
0.0045129
0.004520913
0.004302219
0.004267052
0.004166553
0.003957947
0.003687932
0.003413866
0.003161458
0.002944601
0.002816305
0.002583373
0.002394942
0.002253402
0.002009794
0.001783111
0.003791936
0.004098446
0.004206822
0.004309921
0.00425063
0.004657795
0.00468782
0.0044918
0.004456186
0.00435746
0.004121749
0.003819361
0.003522706
0.003267096
0.003084644
0.00298679
0.002764438
0.002539408
0.002321755
0.002047968
0.001776237
0.001589146
0.003749495
0.004042634
0.004041825
0.004262694
0.004380007
0.004421147
0.004769547
0.004826277
0.004664415
0.004647151
0.004589133
0.004361258
0.004036826
0.003716625
0.00345186
0.003289712
0.003231969
0.003031521
0.002807704
0.002546087
0.00215901
0.001784181
0.001643317
0.001559247
0.003583704
0.003978034
0.003987696
0.004054282
0.004330782
0.004460631
0.004505382
0.00481956
0.004914926
0.004797996
0.004809977
0.004818234
0.004650842
0.004339744
0.004001083
0.003710001
0.003539915
0.003527485
0.003372108
0.003163829
0.002930369
0.002501758
0.002007284
0.001757297
0.001619493
0.001518583
0.003369536
0.003754344
0.003872523
0.003958989
0.004075406
0.004315686
0.004455355
0.004518998
0.004862821
0.005043923
0.004991484
0.005022479
0.005073215
0.00497385
0.004707313
0.004368078
0.004058953
0.003884894
0.003906092
0.003835908
0.003653356
0.003472227
0.003106939
0.002561443
0.002269113
0.002128771
0.001558964
0.001392902
0.003223317
0.00352381
0.003796611
0.00390952
0.003982439
0.004053678
0.004276171
0.004475529
0.00470548
0.00532692
0.005735643
0.005796081
0.005786771
0.005742928
0.005580991
0.005293467
0.004938084
0.004594089
0.004358444
0.004308379
0.004265125
0.004148451
0.003993764
0.003704803
0.003273109
0.002881636
0.002417527
0.002092857
0.001620728
0.001287687
0.003380727
0.003584309
0.003843107
0.003965133
0.004007248
0.004062573
0.004378588
0.004942194
0.005789961
0.007123234
0.008079762
0.00847845
0.008416245
0.00796761
0.007285692
0.006599897
0.00595856
0.005431912
0.005039192
0.004838991
0.004717691
0.004598242
0.004462162
0.004184504
0.003777819
0.003493371
0.003046443
0.002842828
0.002584081
0.001974427
0.003234611
0.003462156
0.00358944
0.003903116
0.004065589
0.004088633
0.004232969
0.005020186
0.006495744
0.008547501
0.01103726
0.01314225
0.01471337
0.01553656
0.01486672
0.01279904
0.01063736
0.008636961
0.007278525
0.006363882
0.005805652
0.005434
0.005175816
0.004954527
0.004680146
0.004254815
0.003767213
0.003476728
0.003129678
0.002766369
0.002635857
0.002370669
0.003573363
0.003593202
0.003728052
0.004043085
0.004209438
0.004260629
0.004743241
0.006429147
0.008891559
0.01170583
0.01466327
0.01754481
0.02041769
0.02305445
0.02459006
0.02414298
0.02133724
0.01612598
0.01255051
0.009919095
0.008245708
0.007144615
0.00637931
0.005910505
0.005582375
0.005178336
0.004532085
0.004035397
0.003593145
0.003069511
0.002941279
0.002767878
0.003801971
0.003783491
0.003942845
0.004233462
0.004422665
0.004556795
0.005437404
0.007894364
0.01022303
0.01196225
0.01312812
0.01400695
0.01509486
0.01665495
0.01860032
0.02063293
0.02229222
0.02252569
0.02086731
0.01757557
0.01485572
0.01269559
0.01099373
0.009764429
0.008680168
0.007650644
0.006496732
0.005344978
0.004501175
0.003616878
0.003363588
0.003085841
0.004070654
0.003888411
0.004037058
0.004359784
0.004631387
0.004885214
0.00597989
0.008567141
0.01018708
0.01027606
0.009698936
0.009048495
0.008800539
0.008995584
0.009598611
0.01064144
0.01169456
0.01264115
0.0132426
0.01342163
0.01310044
0.01203837
0.01076986
0.009622049
0.008660059
0.007816178
0.006944344
0.005888521
0.00520056
0.004331601
0.003600744
0.003367425
0.004020482
0.004206135
0.004077053
0.004198091
0.004484644
0.004806816
0.005152919
0.00623176
0.008455623
0.0096374
0.008792104
0.007451684
0.006507537
0.006359286
0.00664121
0.007350308
0.008133119
0.008771213
0.009073154
0.008929211
0.008471674
0.007896816
0.007230792
0.006624463
0.006095266
0.005698521
0.005391566
0.005046633
0.004567072
0.004382
0.004106968
0.003387247
0.003348414
0.00290851
0.004303594
0.00432855
0.004267979
0.00436011
0.004605017
0.004946499
0.005335452
0.006253513
0.007928555
0.008790022
0.007931675
0.006482158
0.005324745
0.004746653
0.004880337
0.00542662
0.006057792
0.006654508
0.007096275
0.007262156
0.007115751
0.006684907
0.006067114
0.005408653
0.004833365
0.004413555
0.004120413
0.003833001
0.003502873
0.003421182
0.003233493
0.002730954
0.002807739
0.002475832
0.004509001
0.004558004
0.004502958
0.004549349
0.004736048
0.005060196
0.005458841
0.006176876
0.007323575
0.007935289
0.007376123
0.006254643
0.005248479
0.004587203
0.004408922
0.004557282
0.004863391
0.005211048
0.005510341
0.005696633
0.005735477
0.005610881
0.005329011
0.004927213
0.004491575
0.004119556
0.003813288
0.003498731
0.0031372
0.002990258
0.002741641
0.002309103
0.002298484
0.001925823
0.004535564
0.004709118
0.00471314
0.00475237
0.004883439
0.005160248
0.005538473
0.006098054
0.006855243
0.00729281
0.007037747
0.006345203
0.005590881
0.004999486
0.004658905
0.004560029
0.004625735
0.004763333
0.004889325
0.004949162
0.004923985
0.004819439
0.004648802
0.004420183
0.004161622
0.003939549
0.003738039
0.00347782
0.003118819
0.002929641
0.002651071
0.002235848
0.002073891
0.001698558
0.004458444
0.004793921
0.004880797
0.004957876
0.005050418
0.005260442
0.005582639
0.006030043
0.006564825
0.006909875
0.006873044
0.006532128
0.006029435
0.005557693
0.005206885
0.005024077
0.004973115
0.004980313
0.004973964
0.004910804
0.004781975
0.004606155
0.004409139
0.004202176
0.004011199
0.003886533
0.003770692
0.003562222
0.003226764
0.003017127
0.002719976
0.002344856
0.002074247
0.001719657
0.004279093
0.004979128
0.005056801
0.005188031
0.005261237
0.005390129
0.005619252
0.005968962
0.006388459
0.006717582
0.006831031
0.00672755
0.006465328
0.006155607
0.005906733
0.005764172
0.005691386
0.005623981
0.005512109
0.005338162
0.005112785
0.004870096
0.004638737
0.004423509
0.004267562
0.004193266
0.004085672
0.003841039
0.003474166
0.003212117
0.002849846
0.002526762
0.002197536
0.001859413
0.004961364
0.00509187
0.005303489
0.005481865
0.005574479
0.005694809
0.005943081
0.006282586
0.006607026
0.006807959
0.006877889
0.006869159
0.006816165
0.006779371
0.006745113
0.006668569
0.006518674
0.00629382
0.006015106
0.005715604
0.005450312
0.005235713
0.005059319
0.004991083
0.00496246
0.004788922
0.004408674
0.003932417
0.003555204
0.003060147
0.002769445
0.002412478
0.004399986
0.004904138
0.005406354
0.005836701
0.006048281
0.006107548
0.006228749
0.006450592
0.006738285
0.007029629
0.007363773
0.007658555
0.007862118
0.00794774
0.007891284
0.007699233
0.007411226
0.007076216
0.006735035
0.00642919
0.006241597
0.006138027
0.006083992
0.006172094
0.006169343
0.00581967
0.005222553
0.004581935
0.004038347
0.003400667
0.003075153
0.002659745
0.003789525
0.004397534
0.004873673
0.005508652
0.006062812
0.006504174
0.006864112
0.007225148
0.007654173
0.008163239
0.008587128
0.008889883
0.009017125
0.008935497
0.008684373
0.008342315
0.007985739
0.007658418
0.007379373
0.007197802
0.007243574
0.0073519
0.007475389
0.007710356
0.007645449
0.006995212
0.006158187
0.005299005
0.004601831
0.003844378
0.003372171
0.002887709
0.003329552
0.004007237
0.004314138
0.004857812
0.005473105
0.006085612
0.006736282
0.007396441
0.008006352
0.008505191
0.008887681
0.009112633
0.009117293
0.008933559
0.008672203
0.008432192
0.00824726
0.008115566
0.008040888
0.008123229
0.008533659
0.008859901
0.009107667
0.009412227
0.009176135
0.008162038
0.007104174
0.005978896
0.005202173
0.004385814
0.003617963
0.003110596
0.003475175
0.003900441
0.004372055
0.004888569
0.005443069
0.006025578
0.006666581
0.00726942
0.007710004
0.008044592
0.008300452
0.008342324
0.008296368
0.008322506
0.008434726
0.008572811
0.008720242
0.008913716
0.00932944
0.01008842
0.01049863
0.01075131
0.0110371
0.01059681
0.009278611
0.008017248
0.006696281
0.005826211
0.004747941
0.003900579
0.003039796
0.003441903
0.003771255
0.004161027
0.004632421
0.005102099
0.005711009
0.006268738
0.006631254
0.007052441
0.007518062
0.007661917
0.00788327
0.00832235
0.008804119
0.009222158
0.009608953
0.01004597
0.01073985
0.01166441
0.01204234
0.01224189
0.01244636
0.01188779
0.01038691
0.008935786
0.007476536
0.00645429
0.005136994
0.004052498
0.002956729
0.003374352
0.003642219
0.00398246
0.004368507
0.004992111
0.005531412
0.005854549
0.006571266
0.007333478
0.00754459
0.008068491
0.008855442
0.009553957
0.01011604
0.01065977
0.01127238
0.0121031
0.01300328
0.01339338
0.01356391
0.01360126
0.01291211
0.01129652
0.009782558
0.008353974
0.00699013
0.005592388
0.003087025
0.003456666
0.003668966
0.004028954
0.004735751
0.005269077
0.005626321
0.006700087
0.007674142
0.007928401
0.008719173
0.009689325
0.01042925
0.01102086
0.0116518
0.01237776
0.01326447
0.01413512
0.01440852
0.01436034
0.01427199
0.01355235
0.01189018
0.01054004
0.009334857
0.007746426
0.003377837
0.003694437
0.004073861
0.004836904
0.00548312
0.005959193
0.007310721
0.008317151
0.008647873
0.009612651
0.01061489
0.0113133
0.01189526
0.01253678
0.01323698
0.01400886
0.0147452
0.01481338
0.01453846
0.01442249
0.01378275
0.0123125
0.01134485
0.009863821
0.003928788
0.004527356
0.005135646
0.005923354
0.006503057
0.007971651
0.00890202
0.009301977
0.01029237
0.01121753
0.0118432
0.01236438
0.01294373
0.01355893
0.0141899
0.01484658
0.01473021
0.01423789
0.01437364
0.01380819
0.01285993
0.01147721
0.004945674
0.005513652
0.006577705
0.007036409
0.008429738
0.009271869
0.0096417
0.01059578
0.01144461
0.0120104
0.01246022
0.01296643
0.01351162
0.01400672
0.01465069
0.01439921
0.01397264
0.01438797
0.01324663
0.01245733
0.005881338
0.006932008
0.007672952
0.008846315
0.009591695
0.009937042
0.01063394
0.0113964
0.01192191
0.01230817
0.0127613
0.01331996
0.0139927
0.01464836
0.01433891
0.01388589
0.01384465
0.01247988
0.007693171
0.008816683
0.009529299
0.01052674
0.01085163
0.01146176
0.0119591
0.01229957
0.01274479
0.01345131
0.01428815
0.01414735
0.01366096
0.0128596
0.01028419
0.01093951
0.01143453
0.01170642
0.01203863
0.01254799
0.003875444
0.003927002
0.004089359
0.004004517
0.003959403
0.003811565
0.003656593
0.003499557
0.003314326
0.003138139
0.003461651
0.003886924
0.00438056
0.004282257
0.004286194
0.004134608
0.004042615
0.003943145
0.00374689
0.003538846
0.003345066
0.003258724
0.002985426
0.00266814
0.002483282
0.002411072
0.003708652
0.003947194
0.004039908
0.004511321
0.004519525
0.004601685
0.004442474
0.004414581
0.004223317
0.003936717
0.003636945
0.003341821
0.00314118
0.002816914
0.002536999
0.002391756
0.002404828
0.002313482
0.003316798
0.003949047
0.003989214
0.004335264
0.004484817
0.005053222
0.005086204
0.005143384
0.004986838
0.004824984
0.004529648
0.004158956
0.003790069
0.003459858
0.003195006
0.002880769
0.00261519
0.002396839
0.002221986
0.001987663
0.00185482
0.001762032
0.003362194
0.003835442
0.004157402
0.004409051
0.004948294
0.005182517
0.00561494
0.005617601
0.005610568
0.005428255
0.005163262
0.004787303
0.004358874
0.003958305
0.003628759
0.003366021
0.003085989
0.002831985
0.002564616
0.002264532
0.001932602
0.001713032
0.001618778
0.001552426
0.003276213
0.003860009
0.004144079
0.004572081
0.00502102
0.005501187
0.00573182
0.00604458
0.006011339
0.005951306
0.005761646
0.005457574
0.005034757
0.004569367
0.004161091
0.003856995
0.003633824
0.003398406
0.003147827
0.002829618
0.00243767
0.002029109
0.001719764
0.001571389
0.001547071
0.001610796
0.003276714
0.003770438
0.004138998
0.004539995
0.005090361
0.005517129
0.005881449
0.006058341
0.006288441
0.006248882
0.006173833
0.006024714
0.005760271
0.005337661
0.004847982
0.004431835
0.004152412
0.003976633
0.003787367
0.003545149
0.003192555
0.002732421
0.002262343
0.001919105
0.001758796
0.001765581
0.001793003
0.001809456
0.003046622
0.003577181
0.003983328
0.00447553