/*--------------------------------*- C++ -*----------------------------------*\
  =========                 |
  \\      /  F ield         | OpenFOAM: The Open Source CFD Toolbox
   \\    /   O peration     | Website:  https://openfoam.org
    \\  /    A nd           | Version:  6
     \\/     M anipulation  |
\*---------------------------------------------------------------------------*/
FoamFile
{
    version     2.0;
    format      ascii;
    class       volScalarField;
    location    "50";
    object      k;
}
// * * * * * * * * * * * * * * * * * * * * * * * * * * * * * * * * * * * * * //

dimensions      [0 2 -2 0 0 0 0];

internalField   nonuniform List<scalar> 
203709
(
0.003269496
0.003176518
0.003101506
0.003076041
0.003561143
0.00358319
0.003435804
0.003340936
0.003260909
0.00319949
0.003189654
0.003157311
0.003530821
0.003908781
0.003954281
0.003816726
0.003667452
0.003547001
0.003451343
0.003377753
0.003336577
0.003292725
0.00331278
0.003227253
0.002571289
0.003396487
0.003565214
0.003831251
0.003824513
0.003763001
0.003684756
0.003603635
0.003530384
0.003473692
0.003424071
0.00339526
0.003329804
0.00329707
0.00232372
0.002800041
0.003071851
0.003451722
0.003711019
0.00376313
0.003733066
0.003669277
0.003599388
0.003536218
0.003480015
0.003432718
0.003377712
0.003307451
0.002654442
0.002792542
0.003088035
0.003290496
0.003497344
0.003719787
0.003885512
0.00389546
0.00376049
0.0036342
0.003526956
0.003438657
0.003362731
0.003263424
0.003132796
0.002971213
0.002886903
0.003018544
0.003129494
0.003205142
0.003285498
0.003401667
0.003565573
0.003708831
0.003686124
0.003604355
0.003466589
0.003288141
0.003054655
0.002812223
0.002608489
0.002369504
0.002696453
0.002830293
0.002937096
0.002999465
0.003023218
0.003035328
0.003014495
0.00296934
0.00291553
0.002862463
0.002801255
0.002714549
0.002635415
0.002575538
0.002530808
0.002491206
0.002430777
0.002346395
0.00283402
0.002560509
0.002563301
0.002713812
0.002858947
0.002950855
0.002958686
0.002900792
0.002818721
0.002739892
0.002676125
0.002628568
0.002594888
0.002571998
0.00255525
0.00254099
0.002520382
0.002481244
0.003136495
0.002801104
0.002662187
0.002688883
0.002807911
0.002944924
0.003009993
0.002970119
0.002877382
0.002774813
0.002691515
0.002636635
0.002604001
0.002584768
0.002567854
0.002554682
0.002536795
0.002444918
0.003309574
0.003162576
0.003065575
0.003067846
0.003095063
0.003134347
0.00315983
0.003139763
0.003058979
0.002934664
0.002806312
0.002706577
0.002644022
0.002611579
0.002587802
0.00258102
0.00259854
0.002457784
0.003310103
0.003268002
0.003261936
0.003279071
0.003305382
0.003320792
0.00330517
0.00324559
0.003141675
0.003008326
0.002870655
0.002757204
0.002682797
0.002634804
0.002622246
0.002584313
0.003455841
0.003375854
0.003367218
0.003390489
0.003416076
0.003427197
0.003411224
0.003362153
0.003279167
0.003168258
0.00303811
0.002908535
0.002796956
0.002718819
0.002691015
0.002683492
0.003436607
0.003448106
0.003470989
0.003487378
0.003488336
0.003463774
0.003413799
0.003339926
0.003248935
0.003140338
0.003028512
0.002910055
0.002822979
0.002774475
0.003610488
0.003535696
0.003551076
0.003533507
0.003513171
0.003474426
0.00341832
0.003346859
0.003272959
0.003181063
0.003100753
0.002982036
0.002919285
0.002894912
0.003708989
0.003684525
0.00356895
0.003537704
0.003465601
0.003394887
0.003323058
0.003273269
0.003182921
0.003153428
0.002989743
0.00301318
0.003692931
0.003610849
0.003449032
0.003366604
0.003287026
0.003286925
0.003150166
0.003222624
0.003465225
0.003362402
0.003269017
0.003361138
0.003492166
0.003224483
0.00306604
0.002932016
0.002800052
0.002694129
0.002618271
0.002564106
0.002518851
0.002476394
0.003578863
0.003613163
0.003443241
0.003247888
0.003104827
0.002984979
0.002865252
0.00276975
0.002705274
0.002663211
0.002629915
0.002588493
0.002503215
0.002349127
0.003527631
0.003496487
0.003599455
0.003462706
0.003303332
0.003180817
0.003072049
0.002959587
0.002871866
0.002816861
0.002778721
0.002745037
0.002705956
0.002623991
0.002472253
0.002237623
0.00340043
0.003463662
0.003444383
0.003574339
0.003501073
0.003391277
0.003282098
0.003156244
0.003049271
0.002965763
0.002913903
0.002886168
0.002871231
0.002832173
0.002752092
0.002595989
0.002458309
0.002180663
0.003187049
0.003358288
0.003387305
0.003379818
0.003552323
0.003573775
0.003584668
0.003551525
0.003377776
0.003265722
0.003172975
0.003096699
0.003110846
0.003139233
0.002976557
0.002909104
0.002782892
0.002635884
0.002411295
0.002159702
0.003007787
0.003160955
0.003206096
0.00318141
0.003294054
0.003906141
0.004282674
0.0042382
0.004140887
0.003882653
0.003670979
0.003513167
0.00339923
0.003388335
0.00343087
0.003447871
0.003387052
0.003099807
0.00295472
0.002802529
0.002587043
0.002326946
0.002792851
0.00294551
0.00297974
0.003087601
0.004324215
0.005637028
0.006546461
0.006452382
0.005909975
0.005205043
0.004609889
0.004199791
0.003943638
0.003832226
0.003810723
0.003821853
0.003653185
0.003371129
0.003249253
0.00315077
0.003049907
0.002850844
0.002878483
0.002837132
0.002862722
0.003181348
0.003852425
0.005656384
0.008428599
0.01067358
0.01157482
0.01059162
0.008750104
0.007040751
0.005944456
0.005277451
0.004910378
0.004734633
0.004619004
0.004344746
0.003706961
0.003774654
0.003633706
0.003439318
0.003163823
0.002831409
0.002735962
0.002771656
0.00307744
0.003756503
0.005042216
0.006575615
0.009577064
0.01217722
0.01481727
0.01681277
0.01630516
0.01294941
0.01051936
0.008919777
0.007958681
0.007533706
0.007325793
0.007108945
0.005862359
0.005060978
0.004540419
0.003952233
0.00343566
0.002958537
0.002738028
0.002812026
0.003284297
0.003877205
0.004537935
0.00574859
0.006845388
0.007938633
0.009573472
0.01211321
0.01506415
0.01678698
0.01638485
0.01558487
0.01448691
0.01352299
0.01236007
0.01052263
0.008397952
0.00620839
0.004709461
0.003603082
0.002988198
0.002392369
0.002885046
0.002800813
0.003296888
0.004126761
0.004302118
0.004906669
0.005261027
0.005596464
0.006026096
0.006404796
0.006787383
0.007253084
0.007689892
0.007888482
0.007607287
0.007032433
0.006299642
0.005536483
0.004865696
0.004318986
0.003464236
0.002825864
0.002593032
0.002227531
0.003013695
0.002963048
0.003158761
0.004030444
0.004345726
0.005028596
0.005707353
0.006142664
0.006558411
0.006794794
0.006624618
0.006092096
0.005422012
0.004820682
0.004354696
0.00399502
0.003695493
0.003425478
0.00317729
0.002923196
0.002662948
0.002642813
0.002621589
0.002669449
0.003067524
0.003107039
0.003208403
0.003651933
0.004012918
0.004417656
0.004689524
0.004937456
0.005595007
0.00630232
0.006623358
0.006456813
0.005926605
0.005236466
0.00457958
0.004040333
0.003625584
0.003292573
0.003015604
0.002754699
0.002538104
0.002491651
0.002398863
0.002314756
0.003077361
0.003157148
0.003246004
0.003373379
0.003474833
0.003574628
0.003496225
0.003549045
0.003883431
0.004388561
0.004906623
0.005281665
0.005371103
0.005150537
0.004739577
0.00427806
0.003864549
0.003494454
0.00316744
0.00287184
0.002555868
0.002402046
0.002286705
0.002171928
0.003084279
0.003154212
0.003228975
0.003294252
0.003354841
0.003315936
0.003191611
0.003151588
0.003220568
0.003380707
0.003601281
0.003843417
0.004056099
0.004178149
0.004165199
0.004017327
0.003789932
0.003508892
0.003185356
0.002910803
0.002545063
0.002429828
0.002314925
0.002144537
0.003108032
0.003149997
0.003203814
0.003259156
0.003280017
0.003249652
0.003162207
0.003103429
0.00309504
0.003118674
0.003160753
0.003215011
0.00327936
0.003343748
0.00339048
0.003394015
0.00334195
0.003214787
0.002982998
0.002860812
0.002598403
0.002516398
0.002433379
0.002276122
0.003234529
0.003217453
0.003229186
0.003260641
0.00329385
0.003339978
0.003306518
0.00324502
0.003180662
0.003127198
0.003082688
0.003044093
0.003014097
0.002990991
0.002974121
0.002956833
0.002931295
0.00287234
0.002746222
0.002683974
0.002635506
0.002608538
0.002567961
0.002483246
0.003342334
0.003327374
0.003341965
0.003377812
0.003402049
0.003378343
0.00334061
0.00328115
0.003206626
0.003123914
0.00304053
0.002964466
0.002894424
0.002834545
0.002784889
0.002741894
0.002693077
0.002670544
0.002675921
0.002690288
0.002712021
0.002707984
0.003497367
0.003480137
0.003474379
0.003503877
0.003544772
0.00353382
0.003497543
0.003427484
0.003343787
0.003235003
0.003114036
0.00300483
0.002904633
0.002823849
0.002767965
0.002721163
0.002697394
0.002722695
0.002749943
0.002806722
0.002865188
0.002868371
0.003698299
0.003720226
0.003723723
0.003724609
0.003713796
0.003686935
0.003571246
0.003464834
0.00333013
0.003193964
0.003067981
0.002953684
0.00288223
0.00284686
0.00283488
0.00283401
0.00287366
0.002947995
0.00304086
0.003082656
0.003887098
0.003889898
0.003826699
0.003758145
0.003685467
0.00360738
0.003520619
0.003360715
0.003236842
0.003129904
0.003046988
0.003018318
0.002987321
0.002994204
0.003067416
0.003194884
0.003325367
0.003367207
0.00379773
0.003767973
0.003683383
0.003606921
0.003524501
0.00344484
0.003372939
0.003306923
0.003250875
0.003202141
0.003178911
0.003214676
0.003325937
0.003527051
0.003787754
0.00382466
0.003610327
0.003585504
0.003542741
0.003459985
0.003405059
0.00337088
0.003357681
0.003366496
0.003400194
0.003482191
0.003661765
0.003957155
0.004327618
0.004554276
0.00344025
0.003432569
0.003444557
0.003477439
0.003544817
0.003650432
0.00380101
0.00403716
0.004428398
0.004795379
0.003270653
0.003050194
0.002886408
0.002705376
0.002537446
0.002396335
0.002283035
0.002211843
0.003624498
0.00366547
0.003500696
0.003246224
0.003044861
0.002877901
0.002702052
0.002545033
0.002415625
0.0023093
0.002218781
0.002121865
0.002019955
0.001958998
0.003707211
0.003642641
0.003678347
0.003511706
0.003256858
0.003062913
0.002894666
0.002726299
0.002583373
0.002471686
0.002384235
0.002307913
0.002221211
0.002123195
0.00204205
0.001984287
0.003496421
0.003708106
0.003732949
0.00367989
0.003727591
0.003413066
0.003161067
0.002990376
0.002841204
0.002696203
0.002580286
0.002495263
0.002431439
0.002375178
0.002303729
0.002248454
0.002152048
0.002039767
0.001888014
0.001810367
0.003326549
0.003452685
0.003677903
0.003738252
0.003566546
0.003639795
0.003372009
0.00314973
0.002993452
0.002863571
0.002742426
0.002655457
0.002603251
0.002572996
0.002549313
0.002483215
0.002396392
0.002217697
0.002082588
0.001892233
0.001747512
0.001677659
0.003139789
0.003253138
0.003399866
0.003649719
0.003594706
0.003503986
0.003650127
0.003417598
0.003213998
0.00307038
0.002958256
0.002852761
0.00278242
0.002753811
0.002747714
0.002764306
0.00274269
0.002677288
0.002444678
0.002210625
0.00191499
0.001690966
0.001554703
0.001581035
0.003042562
0.003166858
0.003353218
0.003495357
0.003544928
0.003528688
0.003730299
0.003571346
0.003397474
0.003257786
0.003149597
0.003044283
0.002974007
0.002951947
0.002953268
0.003018327
0.00306763
0.00310706
0.002934433
0.002747443
0.002431869
0.001827147
0.001773744
0.001751678
0.002939322
0.002993965
0.003107876
0.003255323
0.003506335
0.003676338
0.003749095
0.004027643
0.003965384
0.003831322
0.003669171
0.003515065
0.003376073
0.003280094
0.003242471
0.003252347
0.003336907
0.003428711
0.003562475
0.003511445
0.003435561
0.003172047
0.002625548
0.002333279
0.002004226
0.001658248
0.002668647
0.002889498
0.002927313
0.003071348
0.003375228
0.003860295
0.004276042
0.004561955
0.005051041
0.005118547
0.004959465
0.00468196
0.004359345
0.004053605
0.003828532
0.00370985
0.00368261
0.003733916
0.003830673
0.003926286
0.003934602
0.003861006
0.003603658
0.003056173
0.002625115
0.002477149
0.001906172
0.001338184
0.002607921
0.002805779
0.002906881
0.003292609
0.003897474
0.004679391
0.00550902
0.006431509
0.007567011
0.008107014
0.007915592
0.007211619
0.006342493
0.005546367
0.004954801
0.004585528
0.004400935
0.004351642
0.004374908
0.004335568
0.004145159
0.003987242
0.00376115
0.003463908
0.002991322
0.002807798
0.00242586
0.001677736
0.00258618
0.002761634
0.003094495
0.003768046
0.004748499
0.005927587
0.007275779
0.009124357
0.01165812
0.01372095
0.01439343
0.01331412
0.0112642
0.009175508
0.007675381
0.006696179
0.006116329
0.005812702
0.005631531
0.005395044
0.004882561
0.004642978
0.004313044
0.003897244
0.003348012
0.00294229
0.002671855
0.002079613
0.002548499
0.002617682
0.002743291
0.003308916
0.004369902
0.005600182
0.006915523
0.008559146
0.01087571
0.01406585
0.01728047
0.02029532
0.02216721
0.02122574
0.01743662
0.01437249
0.01223359
0.01087399
0.01021727
0.009898258
0.009786678
0.009041288
0.007755967
0.006576192
0.005377099
0.004229018
0.00316585
0.00271879
0.002157305
0.001486834
0.002548399
0.002590598
0.002725897
0.003385526
0.004822247
0.0060058
0.006824465
0.007704012
0.008895257
0.01015396
0.0117114
0.01404606
0.01732585
0.02081971
0.0227241
0.0222537
0.02120841
0.01975661
0.01836537
0.01679369
0.01436935
0.01182814
0.009432093
0.007808208
0.006292022
0.004871854
0.003172759
0.002619626
0.002245679
0.00188862
0.002585573
0.002590284
0.002712169
0.003290288
0.00480573
0.006081648
0.006434371
0.006488087
0.00673176
0.006906112
0.007188823
0.007725608
0.008389073
0.009072898
0.009782536
0.01037427
0.0105599
0.01017743
0.009431961
0.008518521
0.007616207
0.006851918
0.006257962
0.00569311
0.005245304
0.004848783
0.00394791
0.003028309
0.002640111
0.002135016
0.002654813
0.002622932
0.002714243
0.003150423
0.004409971
0.00567566
0.006159407
0.006114641
0.006537002
0.007102328
0.007668953
0.008137668
0.008494961
0.008410848
0.007860995
0.007077221
0.006315647
0.005701271
0.005228131
0.004862108
0.004575158
0.004368618
0.004224629
0.004073826
0.003927286
0.003721902
0.003310999
0.002588654
0.00214886
0.001632117
0.002747014
0.002687248
0.002743241
0.003052165
0.003946106
0.004948215
0.00551978
0.005638972
0.005847308
0.006044427
0.006208556
0.006820464
0.007631814
0.00808152
0.00798232
0.007407307
0.006575688
0.005740917
0.005043411
0.004525914
0.004154524
0.003899976
0.003713393
0.003516288
0.003290368
0.002997685
0.002596245
0.00216301
0.001869288
0.001603064
0.002848553
0.002774631
0.002802103
0.003018241
0.00359664
0.004291598
0.004761465
0.004942156
0.004964536
0.004717343
0.004419373
0.004568607
0.005038011
0.005611036
0.006079988
0.006249346
0.006055175
0.005606027
0.005070089
0.004581817
0.004174259
0.003856363
0.003613226
0.003411363
0.003232157
0.002988308
0.002581753
0.00201066
0.001755149
0.001512767
0.002932589
0.002866765
0.002881545
0.003033827
0.00339657
0.003841227
0.004176597
0.004317171
0.004243039
0.003969352
0.003694629
0.003611948
0.003705372
0.003917073
0.00417923
0.004422212
0.004575197
0.004586455
0.00445276
0.004229231
0.003963742
0.003684259
0.003428582
0.003210679
0.003089559
0.002939039
0.002671977
0.002097196
0.001832617
0.001519905
0.002998311
0.002984855
0.002980923
0.003072409
0.003302911
0.003593184
0.003828728
0.003936509
0.00387097
0.003665417
0.00349693
0.003400294
0.003371386
0.003386748
0.003426155
0.003479405
0.003536626
0.003582926
0.003597505
0.003570717
0.003494474
0.003349075
0.003178255
0.002993451
0.002901857
0.00279772
0.002673526
0.002286976
0.002002342
0.001739878
0.003243679
0.003161887
0.003169475
0.003268189
0.003461245
0.003639337
0.003744593
0.003750337
0.003677859
0.003573236
0.003486846
0.003410768
0.003340251
0.003273435
0.003215741
0.003170911
0.003141778
0.003125082
0.003119487
0.003110485
0.003060137
0.002973603
0.002876039
0.002827121
0.002747712
0.002706104
0.002480755
0.002229248
0.003466449
0.003362303
0.003370875
0.003414372
0.0035226
0.003650276
0.003757877
0.003826835
0.003834149
0.003782077
0.003687974
0.003570139
0.0034491
0.0033291
0.003222035
0.003131591
0.003062793
0.003014222
0.002995323
0.002994312
0.002987673
0.002957488
0.002931116
0.002925575
0.002854345
0.002860639
0.002699315
0.002478165
0.003455846
0.003496302
0.00350933
0.003529483
0.003591286
0.003696658
0.003808672
0.003899279
0.003940505
0.003921985
0.003846686
0.003722158
0.003576272
0.003441947
0.003322995
0.003219002
0.003142018
0.003087842
0.003080077
0.003108442
0.003140855
0.00316306
0.003199033
0.003225577
0.003168588
0.003137256
0.002952479
0.00272095
0.003627798
0.003736465
0.003791337
0.003825844
0.003895095
0.003995516
0.004057623
0.004065367
0.004023292
0.003936734
0.003813168
0.003666817
0.003539786
0.003436853
0.00334196
0.003285618
0.0032633
0.003292388
0.003387109
0.003473583
0.003578098
0.003682742
0.00368316
0.003713523
0.003508116
0.003262643
0.003899097
0.003910854
0.003961997
0.004011304
0.004077072
0.004095947
0.004066693
0.003994789
0.00389843
0.003793185
0.003687519
0.003594206
0.003525373
0.003481674
0.003473972
0.003519148
0.003614722
0.003823372
0.004001089
0.004210569
0.004307136
0.004409419
0.004220256
0.003946438
0.003590249
0.003735637
0.003773389
0.003821555
0.003880234
0.003915907
0.003911026
0.00385548
0.003792326
0.003730383
0.00367677
0.00363704
0.003630012
0.003657644
0.003729848
0.003879705
0.004118985
0.004510546
0.004763407
0.004994076
0.005241005
0.005070878
0.004794608
0.00440885
0.003485563
0.003608603
0.003618722
0.00366653
0.003677642
0.003696123
0.003687375
0.003687413
0.003682759
0.003690635
0.003732397
0.003814456
0.003939197
0.0041361
0.004471499
0.004930962
0.005510085
0.005669032
0.006107151
0.006041298
0.005770777
0.005338049
0.003275458
0.00338465
0.003511072
0.003478077
0.00346481
0.003517302
0.003592734
0.003656654
0.00375663
0.003918243
0.004132485
0.004404257
0.004797371
0.005390467
0.00594962
0.006804227
0.00677138
0.006921896
0.006829109
0.006330176
0.003248213
0.003305468
0.003350041
0.003483266
0.003614631
0.003746196
0.00396215
0.00427248
0.004637956
0.005075439
0.005693178
0.006574609
0.007277702
0.007705722
0.007569031
0.007504877
0.003177666
0.003417821
0.003701253
0.003934267
0.004157107
0.004526078
0.00500188
0.00549571
0.006052511
0.006805908
0.00779389
0.008405701
0.00862755
0.008003445
0.004363833
0.004768184
0.005303867
0.00591992
0.006484986
0.007095712
0.00785596
0.008632158
0.003038929
0.002889845
0.002732951
0.002566428
0.002433315
0.0023628
0.003454005
0.00356106
0.003484275
0.003376819
0.003123212
0.002934965
0.002748835
0.002567776
0.00241958
0.002304604
0.00214659
0.00201547
0.001932917
0.001918562
0.003382378
0.003619496
0.003637818
0.003712751
0.003626258
0.003264277
0.003066813
0.002893895
0.002695363
0.002508195
0.002347828
0.002207193
0.002081951
0.002019986
0.001916534
0.00182672
0.001743647
0.00169463
0.003461206
0.003538141
0.003768277
0.003641927
0.003749628
0.003621985
0.003298842
0.003125414
0.002925132
0.00271258
0.002527944
0.002376178
0.002245773
0.002128643
0.002032599
0.001910237
0.001816115
0.001769296
0.001704306
0.001679415
0.0033845
0.003610688
0.00371455
0.003813122
0.003763539
0.003910941
0.003734851
0.003406385
0.00318825
0.002969075
0.002761341
0.002597301
0.002473719
0.002375817
0.002288841
0.002190719
0.002059896
0.001940076
0.001850541
0.001795034
0.00173902
0.001700728
0.003302109
0.003493118
0.003572316
0.003818497
0.003918816
0.003971314
0.004060402
0.003837012
0.003493305
0.003248685
0.003031203
0.00284796
0.00272212
0.00264339
0.002591616
0.002540326
0.00244692
0.002299461
0.002137277
0.001964335
0.001815671
0.001708891
0.001683877
0.001619445
0.003108353
0.003409997
0.003437131
0.003614707
0.003949576
0.004067059
0.004111949
0.00417525
0.003927676
0.003570357
0.00331668
0.003117732
0.002970489
0.002891355
0.002864247
0.002863366
0.002849607
0.002760867
0.002587478
0.002370163
0.002130963
0.001912797
0.001754483
0.001707495
0.001665259
0.001673572
0.002803815
0.003176789
0.003271996
0.003422424
0.003678936
0.003997664
0.004128023
0.004178564
0.004254168
0.004030684
0.003681238
0.003427039
0.003245815
0.003125405
0.003081474
0.003095576
0.003153803
0.003210724
0.003161101
0.002972279
0.002702444
0.002408463
0.002153149
0.002010795
0.001966357
0.00188451
0.001815224
0.001652586
0.002613424
0.002882444
0.00318254
0.003235247
0.003422967
0.00366702
0.003972652
0.00412586
0.004205642
0.004333449
0.004191503
0.003891999
0.003643982
0.00346327
0.003344606
0.003324748
0.00338667
0.003506091
0.003635097
0.003670564
0.003532564
0.003287281
0.002971026
0.002644142
0.002416421
0.002331425
0.002295759
0.002096662
0.001726825
0.001477174
0.002628281
0.002881985
0.003115236
0.003206626
0.003381822
0.003600515
0.003927296
0.004151865
0.004326232
0.004571371
0.004568437
0.004355449
0.004113352
0.003905673
0.003755048
0.003696399
0.003737781
0.003858443
0.004022854
0.004171108
0.004144427
0.003993886
0.003743689
0.003290801
0.002842568
0.002712415
0.002773659
0.002543403
0.001967306
0.001586323
0.002472348
0.002688978
0.002796254
0.003089126
0.003191306
0.003315064
0.003546541
0.004060778
0.004534686
0.004959689
0.005441128
0.005619686
0.005480824
0.00517745
0.004827077
0.004517737
0.004315556
0.004247455
0.004296164
0.004423549
0.004592497
0.004646746
0.00459726
0.004426977
0.004048178
0.003518788
0.003174115
0.003728122
0.003196631
0.002366147
0.001762063
0.001415753
0.002504078
0.002659599
0.002772433
0.003075955
0.003165236
0.003318928
0.003778382
0.004713828
0.005723226
0.006763738
0.007884575
0.00850535
0.008433296
0.007829096
0.007008385
0.00622406
0.005628473
0.005261588
0.005098079
0.005083566
0.005153657
0.005154759
0.004990163
0.004740664
0.004405398
0.004060028
0.003790701
0.004228369
0.00441575
0.003021657
0.002096
0.001572521
0.002586325
0.002682396
0.002800738
0.003081761
0.003190722
0.003550949
0.004527705
0.006134515
0.007939923
0.01008761
0.01265158
0.0146465
0.01533099
0.01443374
0.01255239
0.01050984
0.008941759
0.007873783
0.007224688
0.006878656
0.006682765
0.006471089
0.006123992
0.005759467
0.005201191
0.004625647
0.004221185
0.004227056
0.00453252
0.003586723
0.002469658
0.001875541
0.002693319
0.002687712
0.002839126
0.003099598
0.00330894
0.004071814
0.005766265
0.007900172
0.01029455
0.01321437
0.01669879
0.02019191
0.02324977
0.02492905
0.02384073
0.02025811
0.01713058
0.01485158
0.01337532
0.01264424
0.01238402
0.01228627
0.0114904
0.009911028
0.008176481
0.006453112
0.005046577
0.004197106
0.003893277
0.003296698
0.002810493
0.002239104
0.002708677
0.002844592
0.002767099
0.002907434
0.003141103
0.00344544
0.004643147
0.006860726
0.008665018
0.01022632
0.01173503
0.01327631
0.01524466
0.01808109
0.02166318
0.02513022
0.02685079
0.026306
0.02514986
0.02352897
0.02180169
0.0197299
0.01688924
0.01416426
0.01170968
0.009764186
0.007888871
0.005994764
0.004206835
0.003401491
0.003169821
0.002917689
0.002619488
0.001362309
0.0027638
0.002835643
0.002834913
0.002975935
0.003201907
0.003543087
0.004869392
0.00726351
0.008501113
0.008704577
0.008665172
0.008598467
0.008757958
0.009263801
0.01010862
0.01107145
0.01199421
0.01262167
0.01265897
0.01214131
0.01124087
0.01022638
0.009295219
0.00853231
0.007990862
0.007589131
0.007268652
0.00685773
0.005895313
0.005068642
0.004437796
0.003394254
0.002867121
0.001829851
0.002871124
0.002890647
0.002918206
0.003059773
0.00328293
0.003603855
0.004761403
0.006827024
0.008004099
0.007946207
0.007902432
0.008153426
0.008680033
0.00922813
0.009709293
0.009773015
0.009315926
0.008526174
0.007674825
0.006941863
0.006366183
0.00593748
0.005639934
0.005483189
0.005478188
0.005587962
0.005771799
0.005947457
0.005884793
0.005358675
0.004480189
0.003118949
0.00173055
0.0009726795
0.002990914
0.002988412
0.003018946
0.003161882
0.00338258
0.003681466
0.004523617
0.006051462
0.007063929
0.00716353
0.007130191
0.007173186
0.007301898
0.007729205
0.008565801
0.009102551
0.009090581
0.008543088
0.007657153
0.006713843
0.005903184
0.005302717
0.004895191
0.004650712
0.004551318
0.004545338
0.004535368
0.004432928
0.004082266
0.003458284
0.002681173
0.001923993
0.001410408
0.001103748
0.003070001
0.003091579
0.003122255
0.003272857
0.003494865
0.003776139
0.004350214
0.005318105
0.006083697
0.00627909
0.006159978
0.005818342
0.005314171
0.005301458
0.005703668
0.006264827
0.006743135
0.006924035
0.00673113
0.006260684
0.005683831
0.005146945
0.004705237
0.004363689
0.004135768
0.004007826
0.003895188
0.003751069
0.00349728
0.003109914
0.00255754
0.001976792
0.001468262
0.00113921
0.003036793
0.003200506
0.003196729
0.003361766
0.003596541
0.00387108
0.004275039
0.004856335
0.005334848
0.005516618
0.005400514
0.004993622
0.004520281
0.004301442
0.004331602
0.004517711
0.004751498
0.004944884
0.005036285
0.004994331
0.004828868
0.004590685
0.004325326
0.004049698
0.003799091
0.003609159
0.003448972
0.003273295
0.003065646
0.002851179
0.002459868
0.002049095
0.001538641
0.00125824
0.003491465
0.00334594
0.003414132
0.003652097
0.003929519
0.004250752
0.004628398
0.004935449
0.005051165
0.004946618
0.00468152
0.004393451
0.00420721
0.004123256
0.004098349
0.00408896
0.004071399
0.004040242
0.003997438
0.003942484
0.003875816
0.003790752
0.003663948
0.003501984
0.003344891
0.003196152
0.003011507
0.002810254
0.002665992
0.002365349
0.002127401
0.001656253
0.003618915
0.003662447
0.003675578
0.003844245
0.004060669
0.004305416
0.004573685
0.004798542
0.004905137
0.004861964
0.004720678
0.00459058
0.004465558
0.004345536
0.004220435
0.004082145
0.003934575
0.003790212
0.003664339
0.003566595
0.003503515
0.003465946
0.0034202
0.003347544
0.003266769
0.00315902
0.002983834
0.002774979
0.002645648
0.002364717
0.002159771
0.001860534
0.003625094
0.003764656
0.003841052
0.004043137
0.004258223
0.004481577
0.004696194
0.0048826
0.005011441
0.005070072
0.00505251
0.004947249
0.004820701
0.004669262
0.004484462
0.004278792
0.004069848
0.003874253
0.003707477
0.003577276
0.003499325
0.003468973
0.003453956
0.003440247
0.003427018
0.003345447
0.003165825
0.002931632
0.002793546
0.002544144
0.00235543
0.002066095
0.003314597
0.003669374
0.003777591
0.003980055
0.004300129
0.004599316
0.004852887
0.005068099
0.005245896
0.005358957
0.005364105
0.005264612
0.005100562
0.004919059
0.004719277
0.00449755
0.004276193
0.004071787
0.00390154
0.003771184
0.003716771
0.003729036
0.003754436
0.003802529
0.003845384
0.003751844
0.003535274
0.003241019
0.003090739
0.002847608
0.002583474
0.002270253
0.003656864
0.00386327
0.004093612
0.004341073
0.004694406
0.005014067
0.005280087
0.005460081
0.005527457
0.005490386
0.005361533
0.005198336
0.005020441
0.004844264
0.004653731
0.004463208
0.004289046
0.004152852
0.004062345
0.004092027
0.004200892
0.004287611
0.00442016
0.00450228
0.004344188
0.004052458
0.003679136
0.003500185
0.003258094
0.002886566
0.003234129
0.003601898
0.003879192
0.004253179
0.004617016
0.004924783
0.00516091
0.005317395
0.005368782
0.005322019
0.005215758
0.005092909
0.004963477
0.004840589
0.00472014
0.004606073
0.004511553
0.004452136
0.004449434
0.004649649
0.004908032
0.005058088
0.005274938
0.005344201
0.005064703
0.004675806
0.004201352
0.004063636
0.003590015
0.003100758
0.003329889
0.003708651
0.00385085
0.004112776
0.004402042
0.004653668
0.004839913
0.004940233
0.004958804
0.004930468
0.004882407
0.004821158
0.004767974
0.004742549
0.004744408
0.004777198
0.004839821
0.004996386
0.00547772
0.005894194
0.006038293
0.006295783
0.006295503
0.005838892
0.005327376
0.004821411
0.004463815
0.003907878
0.003245275
0.003598818
0.003746296
0.003939081
0.004171725
0.00434909
0.004477927
0.004567477
0.004643327
0.004659484
0.004663004
0.004703143
0.004803879
0.00495586
0.005150918
0.005397021
0.005803323
0.006595409
0.007079818
0.007132215
0.007351254
0.007136273
0.00646628
0.005914995
0.00550781
0.004887483
0.00311004
0.003395659
0.003470069
0.003667584
0.003851224
0.004008263
0.004190025
0.004395893
0.004466314
0.004569724
0.004765393
0.005044209
0.005361663
0.005727084
0.006196839
0.006900717
0.007927478
0.008326831
0.008022929
0.008061247
0.007683795
0.00696176
0.006510678
0.005852325
0.00291806
0.003125499
0.003222168
0.003439699
0.003597042
0.003909383
0.00424494
0.004375524
0.004676367
0.005091926
0.005576414
0.006059185
0.006594811
0.007271998
0.008109335
0.009058204
0.009164735
0.008432307
0.008472601
0.008026498
0.007479185
0.006737137
0.00280936
0.003021051
0.003207013
0.00339952
0.0038501
0.004295063
0.004505551
0.005029086
0.005628592
0.006267969
0.006850169
0.007480421
0.008236428
0.008960703
0.009696818
0.009526832
0.008634424
0.008837773
0.007942055
0.007446809
0.002963758
0.003273611
0.003589172
0.004111597
0.004568422
0.004921984
0.005559525
0.006250915
0.006963776
0.007554845
0.008172334
0.008895603
0.009574918
0.01012225
0.009778319
0.008827641
0.008650973
0.007664692
0.003849418
0.004543073
0.004987781
0.005761364
0.006279488
0.006920823
0.007624188
0.008167627
0.008734095
0.009510734
0.01017375
0.009980995
0.009443948
0.008207025
0.006555614
0.00725878
0.007905326
0.008326455
0.008708848
0.009161921
0.003157586
0.003189776
0.003175714
0.003035618
0.002907451
0.002744012
0.002598952
0.00247194
0.002374551
0.002339945
0.00316582
0.003437785
0.003590159
0.003428598
0.003412073
0.003139845
0.002997819
0.002829309
0.002637035
0.002468084
0.002335843
0.002266884
0.00212963
0.002002944
0.001958253
0.001972635
0.003338524
0.003444915
0.003529306
0.003700204
0.003632393
0.003605761
0.0033516
0.003228329
0.002992078
0.002746879
0.002530335
0.002336855
0.002192871
0.002028033
0.001907203
0.001861686
0.001892491
0.001885199
0.002963995
0.003475151
0.003446846
0.003754452
0.003900933
0.004182664
0.004110342
0.004009292
0.003730407
0.00348209
0.003179104
0.002899045
0.002662361
0.002459322
0.002279563
0.00209962
0.001942549
0.001804599
0.00170449
0.001610818
0.001636255
0.001645849
0.003013908
0.003226225
0.003609447
0.003790813
0.004311441
0.004538292
0.004697791
0.00453538
0.004315894
0.003966363
0.003624045
0.003288845
0.003009467
0.002788938
0.00260806
0.002441589
0.002272164
0.002110073
0.001951395
0.001803139
0.001671871
0.001611096
0.001636205
0.001639596
0.002889493
0.003290963
0.003490401
0.003952561
0.004384974
0.004865532
0.005066221
0.005095508
0.004817021
0.004480389
0.004065574
0.003682246
0.003357589
0.003114672
0.002941125
0.002807946
0.002683104
0.002544056
0.002392866
0.002232207
0.002064407
0.001897935
0.001740889
0.001643194
0.001603847
0.001538885
0.002724427
0.003162452
0.003477335
0.003839349
0.004498638
0.004926734
0.005290445
0.005415987
0.005345821
0.004970816
0.004546999
0.004098548
0.003724632
0.003450971
0.003278937
0.00318096
0.003115555
0.003040631
0.002926507
0.002773164