/*--------------------------------*- C++ -*----------------------------------*\
  =========                 |
  \\      /  F ield         | OpenFOAM: The Open Source CFD Toolbox
   \\    /   O peration     | Website:  https://openfoam.org
    \\  /    A nd           | Version:  6
     \\/     M anipulation  |
\*---------------------------------------------------------------------------*/
FoamFile
{
    version     2.0;
    format      ascii;
    class       volScalarField;
    location    "50";
    object      k;
}
// * * * * * * * * * * * * * * * * * * * * * * * * * * * * * * * * * * * * * //

dimensions      [0 2 -2 0 0 0 0];

internalField   nonuniform List<scalar> 
203709
(
0.003938919
0.003972413
0.00391851
0.003683747
0.004349714
0.005297071
0.004799612
0.004348069
0.004091146
0.00384605
0.003803432
0.003399372
0.004253036
0.00498426
0.004515957
0.005073097
0.005023933
0.004464136
0.004166174
0.003898345
0.003742628
0.003451825
0.003387866
0.003100315
0.00370783
0.003925622
0.004189731
0.004277561
0.004514883
0.004579599
0.004412371
0.004199619
0.003891022
0.003680544
0.00343839
0.003275764
0.003041436
0.002771705
0.003588296
0.003653274
0.003698116
0.003681736
0.003660801
0.003628836
0.003596913
0.003542599
0.00344413
0.003254496
0.002973306
0.002801315
0.002645953
0.002382622
0.003687684
0.003353586
0.003350977
0.003339546
0.003323927
0.003326447
0.003365655
0.003349449
0.003257732
0.003113348
0.002954203
0.002804974
0.002674367
0.002551002
0.002373014
0.002183058
0.003678204
0.003160571
0.002981858
0.002832904
0.002899495
0.003172145
0.003416955
0.003543919
0.003535732
0.003406127
0.003205837
0.002988197
0.002799668
0.002649616
0.002526454
0.002365126
0.004356387
0.004015175
0.003387418
0.003010005
0.002807647
0.002897268
0.003201242
0.0035077
0.003722982
0.00381806
0.00378398
0.003641498
0.003427291
0.003194028
0.00297941
0.002801389
0.002643074
0.002525994
0.004324756
0.004129481
0.003717832
0.003398619
0.003286828
0.003416293
0.003602173
0.00378743
0.003939227
0.004032218
0.00404522
0.00397045
0.003815889
0.003605509
0.003372904
0.00315128
0.002968269
0.002789422
0.004308365
0.004210857
0.003992671
0.003817498
0.003789169
0.003871741
0.003972072
0.004073144
0.004162055
0.004219898
0.00422846
0.0041759
0.00406234
0.003895882
0.003693971
0.003482306
0.003295032
0.003123164
0.004433329
0.004323713
0.004203061
0.004123897
0.004130418
0.004164952
0.004212765
0.004268939
0.004321855
0.004354019
0.004349252
0.004298214
0.004201381
0.004064875
0.003900408
0.003729843
0.00359569
0.003454448
0.004345801
0.004303506
0.004273209
0.004277899
0.004299096
0.004335456
0.004380522
0.004419581
0.004435691
0.004417337
0.004360651
0.004270231
0.004152683
0.004019259
0.003898463
0.003852573
0.004423604
0.004396513
0.004375224
0.004370205
0.004385435
0.00441873
0.004457315
0.004483273
0.004481498
0.004447149
0.004383547
0.004299145
0.004200125
0.004096024
0.004032729
0.004040766
0.004417798
0.004413292
0.004424528
0.004457338
0.004497188
0.004526782
0.00453093
0.004505099
0.004455495
0.004392628
0.004325538
0.004257905
0.004187809
0.004183663
0.004468047
0.004517426
0.004553151
0.004602039
0.004617405
0.004608083
0.004573206
0.004524159
0.004474678
0.004438578
0.004415974
0.004414281
0.004382014
0.004359031
0.004700462
0.004731841
0.004797345
0.004734707
0.004687824
0.004626425
0.004585835
0.00457803
0.004623848
0.004696405
0.004841319
0.004814629
0.004707148
0.004740479
0.004788999
0.004765505
0.004810491
0.004904013
0.005100868
0.005187276
0.004936077
0.005089706
0.005303701
0.005413605
0.004154255
0.004063726
0.004050606
0.00404036
0.003932686
0.003743092
0.003525553
0.003311942
0.003142222
0.003002464
0.003831303
0.004073157
0.004060569
0.004012539
0.004031719
0.004060477
0.004000833
0.003849112
0.003653157
0.003448901
0.003274324
0.003121544
0.003059787
0.002788771
0.003713456
0.003708642
0.003915155
0.003953071
0.003955191
0.004012993
0.004087222
0.004083549
0.00398015
0.00381974
0.003637434
0.003455226
0.00329588
0.003189414
0.002971283
0.002750661
0.00356482
0.00365045
0.00357234
0.003731568
0.003842966
0.003959325
0.004096267
0.004121871
0.004135934
0.004063675
0.00393379
0.003797747
0.003663757
0.003519618
0.003384541
0.003208851
0.002994689
0.002805759
0.003444888
0.003588801
0.003561293
0.003551199
0.003843765
0.004148883
0.00511387
0.00572285
0.005165608
0.004842241
0.004550305
0.004242618
0.004133813
0.004042278
0.003783759
0.003639193
0.00349632
0.003333887
0.00313023
0.002970382
0.003419533
0.003535801
0.00361704
0.003848957
0.004418636
0.006513297
0.007916461
0.008871477
0.01064578
0.009714677
0.008080245
0.006772828
0.005673622
0.005103632
0.00468283
0.004562011
0.004164869
0.003893363
0.003714275
0.003564055
0.003378002
0.003241279
0.003411485
0.00359697
0.003895533
0.004677977
0.006451377
0.008118406
0.01053907
0.01257006
0.01491761
0.01581608
0.01533326
0.01347191
0.01025415
0.008296037
0.006846457
0.005986802
0.004963587
0.004392831
0.004234326
0.004054205
0.003828626
0.003597458
0.003552866
0.003599138
0.003689739
0.004144647
0.004912273
0.005900257
0.007196173
0.008277652
0.009213329
0.010413
0.01168243
0.01294997
0.01380804
0.01383405
0.01291312
0.01131603
0.01006041
0.008766455
0.006697234
0.005441824
0.004562141
0.003923323
0.003446031
0.002964986
0.003592718
0.003654129
0.003742154
0.004124427
0.004821096
0.005255205
0.00568562
0.005845149
0.005986001
0.006261008
0.006681824
0.007195608
0.007617524
0.007920556
0.008012513
0.007892764
0.007496378
0.00676063
0.005478123
0.0042682
0.003629466
0.003149752
0.002843755
0.002543601
0.003675487
0.003727791
0.003844304
0.004165894
0.004626612
0.004600679
0.004690572
0.004666046
0.0048947
0.005172358
0.005645431
0.006092449
0.006374453
0.006391838
0.006114453
0.005630797
0.005069791
0.004474605
0.003846603
0.003120963
0.002774426
0.002675397
0.002553098
0.002344739
0.003767037
0.003812939
0.003946558
0.004305902
0.004591644
0.004295682
0.004129022
0.003930173
0.003799468
0.003981517
0.004387466
0.004816137
0.005178398
0.005401498
0.005423648
0.005229963
0.004853335
0.004356013
0.003786755
0.003070513
0.002610055
0.002663117
0.002573194
0.002391757
0.00384764
0.003891743
0.00402574
0.004267887
0.004474126
0.004232392
0.003968691
0.003724121
0.00353813
0.003561775
0.003739856
0.003984061
0.004226058
0.004417193
0.004526282
0.004532591
0.004422239
0.004189235
0.003823739
0.003372339
0.002899493
0.002820874
0.002696591
0.002532584
0.003910296
0.00395061
0.004069778
0.004216884
0.004370175
0.004253881
0.004029522
0.003799759
0.0036243
0.003567055
0.003613553
0.003717638
0.003830615
0.003919987
0.003969324
0.003974866
0.003933527
0.003830879
0.003625293
0.00330775
0.003009964
0.002945136
0.002836586
0.002706028
0.003953527
0.003982049
0.004078389
0.004171903
0.00427567
0.004272146
0.004147297
0.003977364
0.003850268
0.003782216
0.003768196
0.003782957
0.003798831
0.003798197
0.003775221
0.003732923
0.003675689
0.00359445
0.00343701
0.003190744
0.003067948
0.003044213
0.002970438
0.002882861
0.00398177
0.003987102
0.004054402
0.004135699
0.004301351
0.004371113
0.004346304
0.004265507
0.004173429
0.004098147
0.004045904
0.00400339
0.003955068
0.003893491
0.003821113
0.003746112
0.003674061
0.003594531
0.003439053
0.003271291
0.003249098
0.003196839
0.003133176
0.003070682
0.004012586
0.003981176
0.004013325
0.004090334
0.004284667
0.00441501
0.004467021
0.004455847
0.004418678
0.004380586
0.004336362
0.004275691
0.004198791
0.004112115
0.004025333
0.003952541
0.003893374
0.003831288
0.003671302
0.003514015
0.003526241
0.00347518
0.003388522
0.003305739
0.004045746
0.004037587
0.004009474
0.004043125
0.004113074
0.004423735
0.00457177
0.004654469
0.004681571
0.004680774
0.004645572
0.004577934
0.00449759
0.004420236
0.004358125
0.004333185
0.004320074
0.004304773
0.004152699
0.004134802
0.004049124
0.003952688
0.003791927
0.003604862
0.004278927
0.004162078
0.004128932
0.004175357
0.004449802
0.004666566
0.004827432
0.004917588
0.004945397
0.004919485
0.004864306
0.004819481
0.004798684
0.004807378
0.004885853
0.004943231
0.005036881
0.004950338
0.004888691
0.004842755
0.00469262
0.004384771
0.004204133
0.00432953
0.004321657
0.004381226
0.004485014
0.004774942
0.004942929
0.005075322
0.00512072
0.005098243
0.005107682
0.00516188
0.005249103
0.005359407
0.005588693
0.005695762
0.005817453
0.005882379
0.005942983
0.005977847
0.005764119
0.005096989
0.004254228
0.004511271
0.004517424
0.004524142
0.004537102
0.004575654
0.004819061
0.005014493
0.005160197
0.005342436
0.005547737
0.005790619
0.006011464
0.006289151
0.006565975
0.006782015
0.007129619
0.00747933
0.00752093
0.006950259
0.004039479
0.00430962
0.004304606
0.004325809
0.004430444
0.004576811
0.004817328
0.005251384
0.005721325
0.006104421
0.006417793
0.006779425
0.007181002
0.007763526
0.008288203
0.00880516
0.009129411
0.008777269
0.003966158
0.004218161
0.004353944
0.004640003
0.004895383
0.005266643
0.005774481
0.006349656
0.006858632
0.00731301
0.00785378
0.008597753
0.009359108
0.00984285
0.01030238
0.01026787
0.004236978
0.00474841
0.00530587
0.005623762
0.006158053
0.006805248
0.007429321
0.007996573
0.008586668
0.009264814
0.01000569
0.01075285
0.01114522
0.01136455
0.005976022
0.006529146
0.007194739
0.007927393
0.008559921
0.009131011
0.009753321
0.0104352
0.01113003
0.01175651
0.004194164
0.004051108
0.00395669
0.003791549
0.003564902
0.003327495
0.003104375
0.002928138
0.004104438
0.00442914
0.004402349
0.004204403
0.004082485
0.00399225
0.003824031
0.0035958
0.003356802
0.003131958
0.002952574
0.002805255
0.002564255
0.00239774
0.004179499
0.004131358
0.004398925
0.00440959
0.00423962
0.004152665
0.004075692
0.003907856
0.003676211
0.003435004
0.003212364
0.003047404
0.002933213
0.002699908
0.002523443
0.002317129
0.003882774
0.004137273
0.004198853
0.004138503
0.00439665
0.00425545
0.004129851
0.004090304
0.004050957
0.003905039
0.0036827
0.003446174
0.003226722
0.003070824
0.002976974
0.002868315
0.002694423
0.002527006
0.002108342
0.001720377
0.003751935
0.00386802
0.004050552
0.004151234
0.003975776
0.00425384
0.004177747
0.004124262
0.004126583
0.004129447
0.004019403
0.003813386
0.003579702
0.00335624
0.003202375
0.003104146
0.003073525
0.002882084
0.002732744
0.002385643
0.001917471
0.001465407
0.003627032
0.003729917
0.003781761
0.003971819
0.003953707
0.003880342
0.004236773
0.004234031
0.004223428
0.004254302
0.004284891
0.004211233
0.004031777
0.003806707
0.003574606
0.003404386
0.003301206
0.003306564
0.003150167
0.003149261
0.002716776
0.002340278
0.001921238
0.001500038
0.003596695
0.003638449
0.003710826
0.003799393
0.003922811
0.004017221
0.004567845
0.004701685
0.004740884
0.004743273
0.004717824
0.00459649
0.004394112
0.00415342
0.003916804
0.00373531
0.00361465
0.00359699
0.003505797
0.003435208
0.003224502
0.002837616
0.002538134
0.002112524
0.00356468
0.003637421
0.003599834
0.003628549
0.003901432
0.004303276
0.00484843
0.005889446
0.006406072
0.006731642
0.006708277
0.006375985
0.005873353
0.00538014
0.004932632
0.004582023
0.004298253
0.00411374
0.004024278
0.003924971
0.003812289
0.003507406
0.003201401
0.003045921
0.002765977
0.002438595
0.003335311
0.003581219
0.003594465
0.003569323
0.003808831
0.004480683
0.005531115
0.006914741
0.008874494
0.01039673
0.01163221
0.0124607
0.01180294
0.01009004
0.008447224
0.007041256
0.006098357
0.005436352
0.005042397
0.004734259
0.004517594
0.004323995
0.004070724
0.003631198
0.003218493
0.003170605
0.00303147
0.002853491
0.003405015
0.00352597
0.003577101
0.003728662
0.004306772
0.005609543
0.007316599
0.009454061
0.01199105
0.01466535
0.01722188
0.01953225
0.02050873
0.01974284
0.01714599
0.0133196
0.01059866
0.008591573
0.007321431
0.006376652
0.005676965
0.005414301
0.005200155
0.004815434
0.004019528
0.003818189
0.003575607
0.003348518
0.003519884
0.00354568
0.003656448
0.003941924
0.004889392
0.006708401
0.008316123
0.009786689
0.01122539
0.0124483
0.0136914
0.01522731
0.01691406
0.01836057
0.01920327
0.01893629
0.01751665
0.01508832
0.01316106
0.01151896
0.009767719
0.008450161
0.007335062
0.006366987
0.005083402
0.004100574
0.003822936
0.003557921
0.003548075
0.003620395
0.003598209
0.003763101
0.004108244
0.005216453
0.007171043
0.008232675
0.008478006
0.008453979
0.008172284
0.008033076
0.008177811
0.00852386
0.009249045
0.009957156
0.01051723
0.01078667
0.0107005
0.01024102
0.009289764
0.007954563
0.006796192
0.00596723
0.00536446
0.004718715
0.003690365
0.00351963
0.003261303
0.002817876
0.003650899
0.00361026
0.003624245
0.003849713
0.004216116
0.005241151
0.006955951
0.007718495
0.007230008
0.006541134
0.005969017
0.005910555
0.006110421
0.006641041
0.007214213
0.007626857
0.007753479
0.00752831
0.00703005
0.006408252
0.005720305
0.005051865
0.004430651
0.004010014
0.003791275
0.003508305
0.002912421
0.002917618
0.002761747
0.002461506
0.003787872
0.003667817
0.00366712
0.003915383
0.004272561
0.005114793
0.006448668
0.007005454
0.006444151
0.005564505
0.004811687
0.004397701
0.004452106
0.004902351
0.005405638
0.005852597
0.006159161
0.006243027
0.006076868
0.005682905
0.005135044
0.004522341
0.00392571
0.003485959
0.003285688
0.003032847
0.002565357
0.002593131
0.00245689
0.002178597
0.003961735
0.003779086
0.003741297
0.003974074
0.004301739
0.00494866
0.005906311
0.00633744
0.005932351
0.005213786
0.004534744
0.004028925
0.003890099
0.004025624
0.004280041
0.004555387
0.004787755
0.004933378
0.004967017
0.004869736
0.004638359
0.004281446
0.00386242
0.003492508
0.003267693
0.003013205
0.002560568
0.002545788
0.002394166
0.002111685
0.004131623
0.003918967
0.003843706
0.004034118
0.004320522
0.004807505
0.005467479
0.005830119
0.005643201
0.005183701
0.00465237
0.004208091
0.003962033
0.003905632
0.003968707
0.004078631
0.004180628
0.004241977
0.004251105
0.004204533
0.004097629
0.003910331
0.003652392
0.003432504
0.00329289
0.003098133
0.002691197
0.002653461
0.002489101
0.002198431
0.004267561
0.004061101
0.003962084
0.004095389
0.004331666
0.004703956
0.005171167
0.005491213
0.005495854
0.005254973
0.004894719
0.004549008
0.004296435
0.004164264
0.004122477
0.00412349
0.00412569
0.004104387
0.004052093
0.003972707
0.003869757
0.003720309
0.003534495
0.003431044
0.003368931
0.003222922
0.002872443
0.002845151
0.002676918
0.002386431
0.004383179
0.004208208
0.004095202
0.004164216
0.004339287
0.004624954
0.004987767
0.005299798
0.00543626
0.005367162
0.005174221
0.004933848
0.004727927
0.004594976
0.00452013
0.004469342
0.004413638
0.004339436
0.004245553
0.004139975
0.004029134
0.003879841
0.003741556
0.003714169
0.003678779
0.003507308
0.003157737
0.00313
0.002937392
0.002643506
0.004335129
0.004424985
0.004288529
0.00426735
0.004364127
0.004571078
0.00486754
0.005174675
0.005382891
0.005437876
0.005375801
0.005267299
0.005175413
0.005113615
0.005062256
0.005001427
0.004922236
0.004827171
0.004723238
0.004623388
0.004537128
0.004411163
0.004363541
0.0043862
0.004343657
0.004065391
0.003657041
0.003550235
0.003272577
0.002943005
0.004691177
0.004569035
0.004505871
0.004479906
0.004575736
0.004780899
0.005043631
0.005293952
0.005465468
0.005573862
0.005666575
0.005727193
0.005746538
0.005717651
0.00565306
0.005570117
0.005484991
0.005409051
0.005361094
0.005359956
0.005316785
0.005417994
0.005484066
0.005363623
0.004900619
0.004449711
0.004091728
0.003689294
0.004370025
0.004523449
0.004636349
0.004793858
0.004875324
0.005023551
0.005263904
0.005577437
0.005867
0.006114071
0.006293252
0.006396265
0.006410666
0.006364966
0.006304173
0.006253819
0.006224909
0.006228903
0.006296971
0.00647685
0.006569129
0.006759142
0.006828205
0.006564132
0.0058191
0.005281463
0.00464321
0.004066788
0.003773493
0.004236589
0.004448717
0.004759706
0.005041211
0.00530545
0.00562783
0.00595232
0.006267761
0.006520783
0.00668189
0.006772274
0.00680933
0.006819294
0.006847598
0.006903159
0.006984873
0.007122134
0.007358816
0.007793164
0.007949001
0.0082175
0.008223165
0.007759981
0.00700251
0.005935725
0.005106052
0.004433635
0.003859739
0.00429438
0.004417397
0.004820694
0.005226451
0.005564238
0.005886737
0.006186144
0.006407636
0.006584316
0.006728877
0.006895443
0.007106648
0.007318302
0.007531805
0.007750933
0.008071328
0.008457714
0.00910241
0.009175703
0.009526347
0.00944853
0.008669097
0.007651644
0.006534305
0.005656654
0.003679641
0.003895194
0.004040275
0.004518394
0.004987852
0.005340015
0.005740868
0.006034476
0.00630992
0.006619247
0.00702217
0.007426918
0.00780334
0.008201554
0.00857972
0.009072511
0.009605533
0.01031743
0.01033157
0.01077968
0.010528
0.009621253
0.008474064
0.007218261
0.003275481
0.003560806
0.003695816
0.00390197
0.004471787
0.004880183
0.005479751
0.005902727
0.006339734
0.006850723
0.007438346
0.007993103
0.008491559
0.009011329
0.009550273
0.01016682
0.01079251
0.01147887
0.01145145
0.01184551
0.01174831
0.01044786
0.009256963
0.008034539
0.003298054
0.003597418
0.003918671
0.004315482
0.004769133
0.005675695
0.006237212
0.006778377
0.007444142
0.008179283
0.008815993
0.009371823
0.009956554
0.01057806
0.01124789
0.01185172
0.0124576
0.012411
0.01299344
0.01245589
0.01118445
0.0100123
0.003631069
0.004241736
0.004723306
0.005146364
0.006207117
0.006853748
0.007482496
0.008238823
0.009032907
0.009660708
0.01020738
0.01081165
0.01146862
0.01214028
0.01274269
0.01331316
0.01327211
0.01348153
0.01309945
0.01167195
0.005244179
0.00582506
0.006961271
0.007818542
0.008313631
0.009081875
0.009861985
0.01046361
0.01099642
0.01160216
0.01227856
0.01297992
0.01356715
0.01357276
0.0135213
0.01361737
0.00647352
0.007718805
0.008527761
0.008916083
0.009640699
0.01038447
0.01094299
0.01141867
0.01196185
0.01258323
0.01325323
0.01390982
0.01380044
0.01350699
0.009298828
0.0100305
0.01076518
0.01129789
0.01172039
0.01220264
0.0127638
0.01336785
0.003995806
0.003902354
0.00379363
0.003602226
0.003403082
0.003249099
0.003944929
0.004381833
0.004381759
0.004396695
0.00418167
0.004031548
0.003874089
0.003648465
0.003420425
0.003233393
0.002989498
0.002683216
0.002443668
0.00234284
0.003789211
0.004186905
0.004232874
0.004573054
0.004547689
0.004291576
0.004132738
0.004015662
0.003826256
0.003573378
0.003315327
0.003076213
0.002850176
0.002715353
0.002498455
0.002351522
0.002164059
0.001996164
0.003895233
0.004068146
0.004370082
0.004241082
0.004595141
0.004586154
0.004342231
0.004268146
0.004132167
0.003897737
0.003610419
0.003330143
0.003081792
0.002874216
0.002751221
0.002525662
0.00233569
0.002187266
0.001948236
0.001735174
0.003847525
0.0041761
0.004298638
0.00441188
0.004351295
0.004745718
0.004752055
0.004526744
0.004440819
0.00429699
0.004034058
0.003720296
0.003426441
0.003183503
0.003017591
0.002929527
0.002711828
0.002482116
0.002254122
0.001983187
0.001722252
0.001549206
0.003802669
0.004122333
0.004139939
0.0043773
0.004499723
0.004537564
0.004860864
0.004885992
0.004692659
0.004618884
0.004503285
0.004242057
0.003910863
0.003603423
0.003360332
0.003222242
0.003181404
0.002987055
0.002760882
0.002489037
0.002103579
0.001731732
0.001588948
0.001505917
0.003630715
0.004047472
0.004087459
0.004175571
0.004465775
0.004596663
0.004630619
0.004907421
0.004963214
0.004814551
0.004771555
0.004715959
0.004504932
0.004184683
0.003865278
0.00360546
0.003466235
0.00348173
0.003347796
0.003144324
0.002898827
0.002474301
0.001974068
0.001713071
0.001552096
0.001458491
0.003409623
0.003809241
0.003954964
0.004076458
0.004214883
0.004459519
0.004588586
0.004628815
0.004903753
0.005028228
0.004948672
0.004944061
0.004948349
0.004808697
0.004529921
0.004210352
0.00394984
0.003817684
0.003867492
0.003820143
0.003649895
0.003467749
0.003121341
0.002578947
0.002257841
0.002064041
0.00152035
0.001311886
0.003258048
0.003563924
0.003853657
0.004002704
0.004110556
0.004195988
0.004394111
0.004539275
0.004662798
0.005100834
0.005419026
0.005469822
0.005490619
0.005482814
0.005344332
0.005080506
0.004762213
0.004472891
0.004287255
0.004273124
0.004253884
0.004154504
0.004003467
0.003720765
0.003324162
0.002937691
0.002349294
0.002229612
0.001724155
0.001343215
0.003423213
0.003627439
0.003897912
0.004055876
0.004125881
0.004165266
0.004367707
0.004709108
0.00524141
0.006212519
0.006982897
0.00735353
0.007426426
0.007220515
0.006775055
0.006251014
0.005732345
0.005296325
0.004971512
0.004816431
0.004722292
0.0046206
0.004490827
0.004210621
0.003808505
0.003546093
0.003092825
0.002736806
0.0025617
0.002092652
0.003289786
0.003500559
0.003623208
0.003941447
0.004136955
0.004166043
0.004200235
0.004660298
0.005624532
0.007128455
0.00922652
0.01108697
0.01250534
0.01329447
0.01285992
0.01140406
0.00976106
0.008251231
0.007133899
0.00634165
0.005844511
0.005499675
0.005253642
0.005041751
0.004776155
0.004381915
0.003877262
0.00355465
0.003183002
0.002789342
0.002645987
0.002431668
0.003642771
0.003646804
0.003762278
0.004067202
0.004249077
0.004268069
0.004486408
0.005568878
0.007630324
0.01031564
0.01345435
0.01652593
0.01939725
0.02179072
0.02288159
0.02220101
0.01945592
0.01558273
0.01252276
0.01018173
0.00862748
0.007556994
0.006817593
0.00647187
0.00617668
0.005717946
0.004975977
0.004367728
0.003822714
0.003216322
0.003050998
0.002854192
0.003858977
0.003836899
0.003973464
0.004242642
0.004428048
0.004487972
0.005001276
0.006908381
0.009499288
0.01188797
0.01389901
0.01545579
0.01697548
0.01873863
0.02062376
0.02215649
0.02281838
0.02229677
0.02059205
0.0177097
0.01538912
0.01348632
0.01179019
0.01034368
0.009108305
0.007989241
0.006783929
0.005600381
0.004747556
0.003814745
0.003510063
0.003204574
0.004128342
0.003928526
0.004052943
0.004350549
0.004605953
0.004777921
0.005525425
0.007829705
0.01009246
0.01093102
0.0108603
0.01031699
0.009929642
0.009909342
0.01016095
0.01086097
0.01173234
0.01241106
0.01272889
0.01259374
0.01206123
0.01098586
0.00970364
0.008594152
0.007723416
0.007006203
0.006289986
0.005420971
0.00491154
0.004198351
0.003526484
0.00335253
0.004055163
0.004241047
0.004105519
0.004206796
0.004464385
0.004761864
0.005044351
0.005879087
0.008033761
0.009789693
0.009528713
0.008340901
0.007228578
0.006817923
0.006952533
0.007479537
0.008147178
0.008652375
0.008847701
0.008653207
0.008140996
0.007477041
0.006733637
0.006056548
0.005488776
0.005083313
0.004797001
0.004493062
0.004096937
0.003997947
0.003804603
0.003186525
0.003196885
0.002759787
0.0043246
0.004357539
0.004290416
0.004364917
0.004580934
0.004894685
0.005242397
0.006028804
0.007759599
0.009045437
0.008535712
0.007073388
0.005705128
0.004992868
0.004983148
0.005514143
0.006099829
0.006617638
0.006970941
0.007066443
0.006875474
0.006431027
0.005824569
0.005179907
0.00461095
0.004193573
0.003908302
0.003627349
0.003309626
0.003243047
0.003066414
0.002610765
0.002695379
0.002369201
0.004508045
0.004570872
0.004514629
0.004548705
0.004710777
0.00500949
0.005375654
0.006044743
0.007291516
0.008194071
0.007801045
0.006615495
0.005463252
0.004685767
0.0044328
0.004569327
0.0048627
0.00518603
0.005451899
0.005600016
0.005600461
0.005446311
0.005154398
0.004763838
0.004351925
0.004008473
0.003735214
0.003444728
0.00309392
0.002954517
0.002708912
0.002290286
0.002265982
0.00189766
0.004517957
0.004700671
0.004706892
0.0047401
0.004854035
0.005111828
0.005464504
0.006011302
0.006862084
0.007489262
0.007325309
0.006581653
0.005748239
0.005085324
0.004696748
0.004572651
0.004623797
0.004751106
0.00486848
0.004918572
0.004879848
0.004758339
0.004572146
0.004335914
0.004081836
0.003876506
0.003703312
0.003469517
0.003125955
0.002946255
0.002672538
0.002264045
0.002087416
0.001716278
0.004432982
0.00476922
0.004855303
0.004927962
0.005009792
0.005208964
0.005517382
0.005967672
0.006565669
0.00702604
0.007054651
0.006703639
0.006166343
0.005654403
0.005260084
0.005044428
0.004974613
0.004975913
0.004972431
0.004914922
0.004789297
0.004612097
0.004410316
0.004198328
0.004006875
0.003888154
0.003784225
0.003587051
0.003258563
0.003053252
0.002755343
0.002383505
0.002098935
0.001742027
0.0042527
0.004941433
0.005011827
0.005135048
0.005198881
0.005323273
0.005550726
0.005920142
0.006382557
0.00677753
0.006944502
0.006863229
0.006587578
0.006252358
0.005960155
0.005781439
0.005691207
0.005624479
0.005524084
0.00536408
0.005149616
0.004913805
0.004686675
0.004474771
0.004325206
0.004258647
0.004153788
0.003906009
0.003533079
0.003265475
0.002892728
0.002566223
0.002219266
0.001877857
0.004912989
0.005034922
0.0052322
0.00538991
0.005472828
0.005601682
0.005883365
0.006266053
0.006642904
0.006894327
0.006992872
0.006967352
0.006870552
0.006789714
0.006733173
0.00665821
0.006524797
0.00632054
0.006059397
0.005772367
0.00551715
0.005312547
0.005146873
0.005093081
0.005075581
0.004899106
0.004508199
0.004017215
0.00362532
0.003110467
0.002809774
0.002430501
0.004359464
0.004852047
0.005337442
0.005733321
0.005903538
0.005947572
0.006092033
0.006351835
0.00668096
0.007003125
0.007314141
0.007593889
0.007789086
0.007885885
0.007857209
0.007698493
0.007439591
0.007125291
0.006797215
0.006500636
0.006324435
0.006235256
0.006197087
0.006304123
0.006311766
0.005953204
0.005343457
0.004682873
0.004119364
0.003456298
0.003108944
0.002674661
0.003759521
0.004356288
0.004822301
0.005438081
0.005954262
0.006344755
0.006668544
0.007004574
0.007422248
0.007931067
0.008409362
0.008759371
0.008941325
0.008915034
0.008707942
0.008393079
0.008049737
0.007727992
0.007452591
0.00727736
0.007336726
0.007462467
0.007603607
0.007857563
0.007799744
0.007139537
0.006291195
0.0054072
0.00468922
0.003900908
0.003400042
0.002895508
0.003310362
0.003975386
0.004274802
0.004808668
0.005410953
0.006012204
0.006661832
0.007326947
0.007947473
0.008473253
0.008882554
0.009141602
0.00918032
0.009017736
0.008760263
0.008513137
0.008320018
0.008184366
0.008111601
0.008202521
0.00862908
0.008973869
0.009240278
0.00956237
0.009331954
0.008318078
0.007250752
0.00609934
0.005297933
0.004440116
0.003636094
0.003108884
0.003450072
0.003871494
0.004341491
0.004856183
0.005408523
0.006006936
0.006666082
0.007287914
0.007756674
0.008117328
0.008387208
0.008436311
0.008383113
0.008391996
0.008489855
0.008622635
0.008772191
0.008973157
0.009401301
0.01017667
0.01060668
0.01088207
0.01118366
0.01075162
0.009458982
0.008191496
0.006838906
0.005935756
0.004807779
0.00393282
0.003022222
0.003420366
0.003747286
0.004138888
0.004613932
0.005095599
0.005719208
0.006297234
0.006678258
0.007103039
0.007563856
0.007705893
0.007914894
0.008341561
0.008821938
0.009247193
0.009643619
0.01009171
0.01079951
0.01173916
0.01213885
0.01236966
0.01259366
0.01205373
0.01059184
0.009128142
0.007634996
0.006579881
0.005215762
0.0040945
0.002940691
0.003354209
0.003620407
0.003964507
0.004354447
0.004986024
0.005533529
0.005865434
0.006572193
0.007329216
0.007538636
0.008054123
0.008841103
0.009550889
0.01012699
0.01068107
0.01130511
0.01214923
0.01306383
0.01348163
0.01368689
0.01374612
0.01308045
0.01150979
0.009986842
0.008527041
0.007137885
0.00569446
0.003066786
0.003429536
0.003645068
0.004002124
0.004707528
0.005237895
0.005595631
0.006662123
0.007640742
0.0078923
0.008682235
0.009664333
0.01042025
0.01102472
0.01166294
0.01239846
0.01329841
0.01418405
0.01448465
0.01447543
0.0144149
0.01372646
0.01210534
0.01075422
0.009538277
0.007907362
0.003346335
0.003658526
0.004034424
0.004790714
0.005432162
0.005900465
0.007250767
0.008266772
0.008594594
0.009566868
0.01058799
0.01130258
0.01189454
0.01254339
0.01325198
0.01403586
0.01478696
0.01488343
0.01465154
0.01456533
0.01396431
0.01253108
0.01157694
0.01006924
0.003888538
0.004478055
0.005078786
0.005869311
0.006448245
0.007918277
0.008857789
0.009260681
0.01026169
0.0112019
0.01183871
0.01236645
0.01295086
0.013573
0.01421587
0.01488791
0.01480078
0.01435477
0.01452419
0.01400671
0.01308874
0.01169368
0.004899561
0.005466642
0.006525261
0.006991623
0.00838963
0.00924038
0.009616711
0.01057971
0.01143945
0.01201272
0.01246661
0.01297629
0.01352765
0.01403526
0.01469634
0.01447613
0.0140996
0.01454361
0.01345309
0.01266871
0.005841673
0.006891354
0.007636004
0.008815366
0.009569365
0.009922496
0.01062792
0.01139851
0.01192926
0.01231824
0.01277415
0.01333903
0.0140258
0.01470281
0.01442762
0.01402519
0.01400591
0.01268633
0.007664328
0.008794993
0.009515247
0.01052009
0.01085111
0.01146825
0.01196999
0.01231276
0.01276071
0.0134736
0.01432378
0.01420431
0.01375378
0.0130019
0.01028369
0.01094782
0.01144698
0.01172084
0.01205501
0.01256852
0.003928315
0.003975785
0.004133523
0.004033599
0.003970979
0.003802976
0.003627484
0.003450172
0.003250434
0.003077168
0.003486648
0.003922931
0.004438487
0.004343903
0.004339827
0.004174026
0.004059153
0.003936557
0.003716372
0.003486942
0.003275923
0.003175788
0.00290357
0.002598421
0.002431065
0.002373418
0.003733614
0.003984969
0.004089423
0.004581686
0.004587776
0.004655957
0.004472202
0.004410682
0.004187669
0.003873646
0.003555928
0.003255604
0.003052341
0.002737322
0.002471376
0.002338267
0.002353027
0.002269561
0.003328553
0.003967749
0.004031883
0.004395081
0.004559495
0.005143958
0.005165567
0.005196387
0.00499966
0.004794765
0.004462906
0.004065542
0.003685669
0.003359613
0.003103944
0.002802904
0.002547169
0.002332505
0.002155986
0.001927747
0.001809779
0.001727789
0.003367267
0.003857359
0.004198287
0.004480238
0.005043753
0.00529219
0.005724824
0.005704821
0.005656888
0.005417954
0.005101394
0.004689312
0.004240994
0.003839712
0.003523939
0.003277713
0.003010958
0.002761036
0.002489801
0.002187273
0.001866121
0.001661711
0.001577409
0.001525232
0.003285856
0.003876144
0.004188589
0.004645886
0.005132175
0.00563606
0.005872545
0.006167832
0.006100381
0.005988513
0.005725249
0.005357999
0.004901196
0.00442765
0.004031939
0.003751507
0.003550164
0.003327028
0.00307627
0.002749875
0.002354732
0.001956852
0.001663468
0.00152857
0.001519552
0.001590948
0.003298411
0.003793561
0.004179758
0.00461731
0.005204803
0.005669874
0.006052293
0.006221932
0.006418071
0.006333713
0.006200436
0.005967869
0.005621083
0.005160047
0.004674259
0.004286751
0.004043662
0.003898361
0.003722969
0.003480242
0.003119683
0.002656383
0.002191304
0.001851803
0.001691042
0.001703261
0.001758519
0.001780503
0.003062593
0.003591883
0.004016099
0.004540445
0.005086764
0.005605859