/*--------------------------------*- C++ -*----------------------------------*\
  =========                 |
  \\      /  F ield         | OpenFOAM: The Open Source CFD Toolbox
   \\    /   O peration     | Website:  https://openfoam.org
    \\  /    A nd           | Version:  6
     \\/     M anipulation  |
\*---------------------------------------------------------------------------*/
FoamFile
{
    version     2.0;
    format      ascii;
    class       volScalarField;
    location    "50";
    object      p;
}
// * * * * * * * * * * * * * * * * * * * * * * * * * * * * * * * * * * * * * //

dimensions      [1 -1 -2 0 0 0 0];

internalField   nonuniform List<scalar> 
203709
(
122684.6
122663.1
122629.8
122589.5
122737.5
122731.5
122723.4
122703.4
122678.3
122644.7
122598.7
122558.4
122763.7
122766.9
122768.9
122758.1
122747
122732.3
122716.7
122698.4
122673.4
122644.3
122607.4
122574.3
122763.9
122774.8
122767
122757.7
122754.3
122755.7
122759.1
122761.5
122758.3
122747.8
122731.9
122708.9
122679.6
122671.7
122739.2
122733.6
122719.7
122717.6
122731.8
122755.4
122786.3
122815.1
122832.6
122838.2
122834.5
122823.1
122804.3
122784.5
122694.2
122678.3
122660
122647.2
122660.1
122696.1
122753.5
122817.3
122873.3
122910.7
122932
122941.2
122940.6
122924.5
122895.2
122859.5
122588.3
122538.9
122518
122528.2
122570.9
122639.9
122734
122839.1
122921.8
122975.9
123010.4
123024.2
123014.1
122981.9
122937.2
122888.9
122458
122391.8
122293.8
122255.9
122294.6
122405.2
122552.6
122698.2
122820.6
122906
122962.6
122991.8
122995.8
122979.9
122950.6
122913.6
122872.6
122822.4
122321
122168.1
122023.9
121961.5
122033
122214.2
122417.8
122590.7
122723.5
122814.7
122872.4
122901.1
122911.9
122908
122894.1
122873.9
122849.7
122820.9
122245
122060
121891.2
121841.6
121939.8
122130.8
122337.9
122518.2
122653.5
122745.8
122802.1
122831.9
122846
122849.8
122847.4
122841.8
122834
122818.5
122271.3
122109.4
121978
121947.9
122023.7
122166.3
122332.4
122490.7
122618.6
122707.4
122761.5
122791.6
122806.9
122813.6
122816.6
122819.3
122820.2
122808.6
122242.4
122161.4
122136.8
122182.4
122278.4
122398.2
122515.1
122615.6
122693.6
122745.8
122776.4
122792.4
122799.7
122803.5
122807.2
122802.5
122411.8
122368.5
122344.2
122363.9
122419.5
122496.5
122577.1
122650.1
122708.8
122750.8
122777.4
122792.3
122798.7
122800.6
122803.6
122788.6
122548.3
122532.5
122530.5
122555.6
122600.6
122649.2
122697.1
122735
122768.8
122789.4
122801.4
122806.2
122805.4
122805
122687.1
122680.6
122665.7
122675.1
122699.6
122725.9
122754.8
122774.6
122795.7
122809
122818
122821.2
122820.7
122815.6
122775.6
122763.4
122778.6
122785.5
122798.3
122810.7
122816.5
122828.2
122834.9
122841.8
122831.8
122824.2
122839.5
122841.2
122861.3
122863.2
122859.8
122863.3
122854.5
122853.9
122886.8
122889
122883.3
122886.9
122774.4
122754.6
122732.1
122702.5
122667.2
122629
122590.5
122555.1
122525.2
122490.4
122774.8
122770.7
122757.3
122738.8
122716.3
122688.2
122654.2
122617.2
122579.2
122539.4
122501.4
122457.8
122408.5
122364.9
122768.8
122770.9
122765
122750.2
122730.5
122708.1
122682.1
122648.9
122612.1
122574.8
122530.3
122487.8
122444.4
122401.4
122353.1
122292.1
122766.1
122776.7
122773
122765
122752.4
122736
122712.6
122690.9
122662.7
122629.9
122595.8
122540.6
122499.5
122450.8
122405
122359.4
122304.8
122266.8
122773.6
122786.5
122785.9
122779.7
122774.4
122762.8
122751.5
122733.8
122710.5
122677.8
122650.4
122622.8
122589.1
122554.8
122490.5
122448.6
122399
122348.9
122317.4
122332.7
122790.4
122798.1
122796.2
122791
122787.5
122786.5
122780.4
122764.1
122739.6
122721.6
122704.7
122687
122665.6
122641.6
122614.8
122580.3
122546.7
122483.8
122436.5
122411.5
122422.4
122474.1
122805.7
122802.8
122793.6
122787
122785.2
122779.3
122762.8
122748.5
122740.3
122737.7
122738.6
122738.6
122732.5
122719.7
122699.9
122674.7
122643.6
122622.2
122558.2
122528.2
122532.7
122559.8
122816.3
122816.1
122796.8
122778
122768.9
122751.8
122735.3
122722
122718.7
122727.8
122746.6
122773
122798.3
122813.5
122817.8
122812.1
122797.3
122773.5
122748.4
122688.4
122652.2
122633.5
122644.2
122684.6
122830.3
122806.6
122774.4
122745.7
122721.6
122695.2
122665.5
122653.5
122665.8
122698.6
122749.6
122808.6
122860.9
122896.3
122918.2
122927.8
122925.4
122904.4
122867
122819.2
122749.3
122696.1
122668.6
122675.2
122820.8
122779.5
122725
122669.8
122609.7
122551.3
122524.5
122529.5
122571
122640.4
122732.3
122832.3
122912.3
122965.3
123000.8
123016.3
123005.1
122970.1
122921.8
122865.3
122787.4
122732
122690.5
122678.7
122793.5
122730.5
122644.4
122527
122433.4
122319.5
122272.9
122298.1
122395.9
122536.5
122680.1
122802.7
122890.1
122947.2
122975.8
122979.5
122964.1
122935.2
122897.9
122856.9
122804.3
122759.4
122727.5
122715.4
122768.3
122673.8
122549.3
122380.3
122200
122048.9
121978.3
122030.5
122190.4
122385.5
122560
122695.5
122790.3
122849.8
122880.4
122891.7
122889.1
122877
122858.9
122836.2
122809.3
122783.7
122766.4
122756.7
122766.6
122651.9
122500.7
122306.7
122085.4
121903.6
121830.6
121904.1
122085.2
122292
122476
122617.8
122715.6
122775.7
122808
122823.1
122828
122827.8
122825.4
122821
122811.5
122802.5
122796.5
122790.6
122791.6
122679.2
122523
122332
122139.9
121968.5
121906.5
121964.1
122105.9
122277.5
122441.8
122575.7
122670.9
122731
122764.9
122782.3
122790.6
122795.6
122801.4
122812.4
122810.8
122809.9
122809.1
122805.1
122835.2
122742.2
122607.9
122467.7
122283.2
122144.1
122093.6
122126.9
122220.1
122341.1
122464
122571.3
122654.2
122711.2
122746.2
122765.6
122775.6
122781.4
122788.3
122796.8
122803
122807.8
122806.6
122803
122878.2
122811.6
122712.8
122592.6
122453.6
122372.1
122309.2
122315.4
122366.3
122441.9
122524.7
122601.8
122665.4
122712.7
122744.3
122763.4
122773.7
122779.1
122789.1
122791.2
122794.9
122795.1
122794.5
122786.7
122911.3
122878.9
122809.6
122724.9
122637.7
122555.3
122505.4
122492.7
122511.8
122552.4
122601.9
122651.6
122695.1
122730.5
122755.2
122770.7
122779.6
122784.7
122791.3
122783.7
122785.2
122780.4
122778.2
122760.5
122928.9
122889.8
122835.8
122771.9
122702.1
122676.3
122642.8
122643.4
122659.2
122683.5
122711.4
122737.1
122759.7
122776.2
122786.9
122793.6
122803.4
122801.2
122781.7
122770.2
122760.4
122750.9
122960
122949.2
122916
122872.4
122827.5
122786
122767.6
122768.8
122755.8
122763.4
122773.6
122785.1
122797
122806.4
122821
122822
122818.3
122793.7
122776.2
122760.9
122746.9
122727
122974.2
122972.5
122942.6
122910.1
122878
122861.4
122847.9
122843.3
122849.6
122836.4
122837.5
122847.9
122849.4
122849.7
122828
122814.9
122796.6
122775.6
122751.6
122719.5
122988.4
122993
122971.8
122948.5
122932.5
122915.2
122908.1
122902.5
122897.6
122893.7
122891.3
122874.6
122862.2
122844
122826.2
122804.7
122770.1
122725.8
123004
123013.1
122997.7
122987.6
122972.3
122961.1
122949.9
122941.5
122930.6
122922.7
122905.9
122888.8
122864.6
122833.7
122797.5
122739
123017.9
123015.6
123028.1
123014.4
123000.5
122988.6
122977.4
122962
122947.3
122928.6
122905.1
122867.2
122804.2
122758.2
123024.1
123021.6
123009.6
122992.3
122973.1
122950.4
122929.8
122906.9
122877.5
122829.3
122877.3
122854.4
122837.2
122815.6
122792.7
122771.6
122753.9
122753.3
122861.2
122848.3
122834.6
122812.1
122792.3
122772.9
122749.3
122724.7
122701.2
122679.8
122661.1
122639.8
122636
122647.2
122826.6
122812.1
122803
122790.2
122767.4
122744.7
122720.8
122693.5
122665.1
122637.5
122612.7
122591.6
122571.9
122556.5
122551.5
122546.8
122800.8
122795.1
122793
122780.2
122766.2
122753.5
122734.9
122711.6
122684
122652.9
122620
122587.3
122556.8
122528.9
122500.5
122480.9
122466.1
122456.1
122446.7
122458.4
122787.8
122783.7
122777.8
122767.2
122758
122747.6
122732.4
122703.4
122676.4
122645.9
122611.6
122575.2
122538.6
122503
122470.3
122446
122418.7
122391.1
122376.4
122374.3
122392.7
122412.1
122792.7
122784.4
122772.4
122763.6
122757.7
122747.5
122729.5
122712
122688.9
122661.7
122630.1
122594.2
122555.6
122516.4
122476.8
122438.8
122402.1
122368.7
122342.5
122318.2
122314.1
122333.4
122392.7
122465.4
122791.2
122780.6
122768.3
122763
122755.8
122739
122725.7
122709.7
122688.3
122661.1
122631
122596.7
122558.8
122519.3
122476.7
122437.1
122395.5
122357.2
122321.3
122294
122283.1
122303.4
122373.1
122465.2
122805.4
122798.8
122784.8
122775.7
122767.4
122753.1
122742.5
122731.9
122716.7
122698
122674.2
122646.3
122615.3
122582.5
122546.8
122510.1
122471.6
122427
122388
122349.6
122316.9
122301.2
122328.9
122407.1
122511.6
122598.8
122834
122822.1
122807.2
122797.5
122783.2
122766.9
122758.3
122750.3
122741.8
122729
122710.8
122690.5
122670.6
122650.8
122629
122602.5
122572.8
122538.6
122501.1
122465.1
122427.5
122395.6
122382
122408.6
122484
122575.3
122662.3
122711.2
122844.5
122833.3
122817.8
122802.8
122781.7
122770.1
122762.6
122754.8
122744.3
122731.1
122717.4
122706.9
122700.6
122697
122692.3
122681.8
122664.9
122640.8
122611.1
122577.6
122548.3
122518
122502.9
122521.5
122579.4
122654.4
122714.6
122749.9
122853.9
122842.9
122831.2
122810.3
122783.5
122768.5
122755.7
122740.1
122724.9
122712.1
122706.3
122709.9
122722.5
122742.8
122762.5
122773.2
122774.5
122766.3
122748.4
122721.5
122690.2
122655.6
122628.3
122620.9
122645.9
122696.6
122739.3
122768.5
122884
122874.4
122854.9
122834.6
122798.6
122772
122747.7
122721.7
122694.2
122669.9
122656.9
122663.4
122688.8
122732.2
122784.7
122831.2
122862.6
122882.9
122891.7
122887.6
122864.7
122823.2
122772.9
122721.2
122679.1
122666.1
122692.3
122736.3
122772.2
122781.5
122893.3
122884.8
122861
122829.8
122779.5
122735.8
122685.8
122630.3
122577.8
122543.7
122538.5
122570.3
122632.5
122716.8
122808.6
122883
122932.5
122966.8
122981.5
122967.8
122930.7
122880.1
122822.5
122762.2
122709.9
122681.2
122686.5
122721.9
122757
122774.1
122903.2
122890.5
122859.9
122811.8
122739.1
122663.1
122565.2
122459.7
122360.1
122304.1
122309.7
122386.7
122511.9
122647.6
122765.6
122851.5
122907.6
122934.6
122937.7
122923.5
122897.3
122862.2
122821.5
122776.5
122737.8
122715.5
122715.1
122734.9
122757
122770.2
122911.4
122895.4
122858.5
122794.3
122690.5
122573.1
122422.8
122249.9
122090.2
122000.8
122019.9
122148.9
122332.4
122505.4
122643.8
122742.3
122804.1
122836.6
122849.7
122849.5
122840.9
122826.6
122807.6
122785.5
122766.7
122756
122756.2
122763.9
122771.8
122775.7
122917.6
122902
122863.3
122791.8
122669.7
122524.6
122340.2
122124.1
121927
121821.7
121858.2
122015.3
122216
122403.6
122553.1
122658.6
122725
122762.1
122780.5
122788.6
122792.1
122793.5
122793
122790.8
122789.2
122788.5
122789.8
122789.6
122788.8
122784.5
122925.6
122912.4
122876.6
122809.1
122689.6
122541.8
122357.8
122149.8
121961.2
121862.7
121891.7
122024
122197.6
122367.7
122508.9
122611.9
122679.1
122718.7
122740.5
122752.6
122761.3
122770.2
122780.2
122788.4
122795.7
122801
122803.7
122800.5
122794.6
122785.7
122934.2
122925.6
122897.1
122841.5
122740.6
122613.2
122457.6
122282.4
122126.2
122043.6
122056.5
122146.2
122270.2
122398.6
122512.1
122600.7
122663
122702.8
122726.3
122740.2
122749.6
122758.6
122768.3
122778.5
122787.8
122793.6
122796.8
122792.9
122785.9
122775
122942.4
122939.9
122921.2
122878.9
122804.1
122706.2
122584.8
122451
122334.8
122264
122258.7
122306.1
122382.6
122468.7
122550.1
122617.9
122669.1
122704.5
122727.1
122740.9
122749.5
122756.8
122762.7
122767.3
122771.2
122774.8
122777.2
122770.9
122765.5
122751.6
122951.9
122945.1
122918.4
122874.7
122797.2
122710.3
122615.4
122529
122469.9
122450.2
122465.3
122504.4
122554.9
122606.8
122653.1
122690.6
122718
122736.3
122747.5
122753.7
122757.1
122756.2
122754.4
122751.4
122755.3
122750.5
122737.8
122730.4
122960.7
122963.4
122949.7
122920.9
122872.9
122815
122749.5
122685.7
122639.1
122610.3
122605.8
122618.2
122641.9
122670.3
122698
122721.7
122739.5
122751.4
122758.2
122761.7
122760.3
122750.4
122738.6
122730.1
122729.1
122709.1
122704.2
122694.7
122965.7
122974.1
122973.1
122961.6
122940.7
122896
122850.5
122802.4
122760.4
122733.4
122722.1
122716.9
122722.3
122732.7
122745.7
122757.8
122766.8
122773.4
122774
122770.1
122757.7
122741.2
122725.1
122719.8
122706.7
122677.1
122666.3
122653.4
122979.8
122993.3
122988.3
122976.2
122961.8
122921.8
122883.6
122849.7
122825.2
122809
122798.9
122795.4
122791.9
122793.6
122797.6
122798.1
122796
122785.6
122773
122755.2
122734.6
122722.8
122702.2
122663.1
122644.8
122626.1
123000.8
123008.8
123005.8
122993.4
122981.1
122946.8
122919
122897.9
122879.8
122865.7
122855.5
122847.1
122840.9
122835.3
122825.7
122814.7
122797.6
122777.8
122757
122740.9
122714.2
122663.9
122634.4
122616.5
123005.6
123020.7
123026.5
123020.6
123013.6
123005.1
122975.4
122956.7
122938.9
122923.5
122908.9
122895.6
122882.8
122870.4
122855.1
122837.4
122813.9
122789.4
122771
122739.7
122684.2
122646
122612.6
122589.8
123022.9
123041.1
123045.3
123043.9
123039.8
123028.7
123020.5
122992.7
122974.6
122958.3
122942.4
122925.7
122908.1
122888.5
122867.2
122848
122814.7
122777.8
122719.9
122675
122635.1
122603.2
123044.5
123051.4
123069.5
123067.9
123060.8
123053
123045.1
123032.4
123016.6
122999.3
122980.1
122959.2
122934.8
122904.1
122868.4
122811.8
122770
122725.5
122674.9
122641
123069
123086.4
123083.7
123077.1
123071.6
123056.2
123038.4
123019.1
122997.5
122974.6
122946.3
122911.7
122876.5
122834.1
122792.1
122761
123087.6
123087.7
123082.4
123090.7
123078.3
123062.3
123044.7
123024
123001
122972.9
122931.7
122888.3
122871.4
122867.7
123097
123086.9
123072.7
123057.7
123040.7
123023.3
123008.8
123014
122962.6
122941.7
122927.3
122914.1
122903.6
122911.3
122936
122926.5
122918
122909.5
122884.2
122868.5
122854
122838.6
122824
122813.4
122800.3
122797.9
122799.7
122816.3
122883.5
122881.5
122872.7
122863.2
122854.5
122839.8
122820.4
122801.5
122782.8
122764.3
122748
122734.4
122721.6
122715.1
122714.5
122720
122728.2
122761.6
122852.4
122839.4
122832.7
122821.4
122810.4
122796.9
122782.1
122753.6
122730.1
122707
122684.8
122664.9
122649
122642.8
122630.2
122625.8
122628.5
122642.7
122664.3
122692.6
122825.1
122814.9
122798.9
122789.5
122780.9
122759.8
122742.9
122723.3
122698.3
122671.4
122643.6
122616.1
122590.8
122569.1
122552.1
122537.2
122530.8
122539.7
122541.6
122565.7
122592.5
122622.4
122812.5
122799.2
122781.7
122768
122759.7
122738.2
122720.6
122703.8
122682.5
122656
122625.6
122592.5
122558.6
122526.4
122497.5
122472.9
122452.2
122438.6
122435.7
122450.4
122460
122485.9
122546.8
122581.3
122815.3
122800
122777.4
122760.8
122738.8
122723.5
122709.4
122695.5
122678.7
122654.6
122625.2
122590.9
122552.8
122513
122474.2
122438.2
122406.2
122378.6
122355.9
122342.2
122343.2
122360.5
122407.2
122466.8
122559.6
122615.3
122831.4
122810.3
122789.1
122765.8
122738.2
122719.1
122705.6
122693.9
122680.6
122663.1
122638.8
122608.1
122571.5
122530.3
122486.6
122443.1
122401.6
122362.9
122326.6
122296.1
122275.3
122270
122287.2
122336.8
122425.6
122522.7
122615.3
122678.4
122854.7
122831.2
122806.4
122781.6
122750.9
122727
122711.1
122699.2
122688
122675.7
122659
122635.5
122605
122568.6
122527.6
122483.8
122438.7
122393.7
122351.6
122311.1
122275.9
122247.6
122234.4
122247.4
122303.1
122403.9
122523.3
122621.7
122685.2
122730.8
122850.6
122829.5
122805.1
122781.1
122747.5
122726.4
122711.4
122700.3
122690.9
122680.1
122664.8
122643.5
122616.2
122583.7
122546.9
122507.1
122465.1
122422
122380
122337.9
122300.2
122268.4
122249.4
122258.9
122322
122431.9
122548.9
122635.3
122700.4
122740.1
122883.8
122858.5
122835.7
122809.3
122776.8
122751.5
122731
122716.8
122708.2
122700.7
122691.5
122678.3
122660.1
122638
122613.5
122586.6
122557.1
122524.5
122488.9
122451.3
122412.1
122375.3
122344
122325
122336
122396.4
122498.5
122604.5
122680.3
122727.3
122761.3
122783.8
122884.7
122864.9
122842.8
122810.1
122781.9
122758
122738.9
122726.7
122718.4
122710.7
122701.8
122689.8
122675.7
122661.8
122649.6
122638.6
122626.2
122609.6
122587.9
122561.3
122530.5
122497.7
122469.2
122450.2
122458
122505.4
122583.9
122668.4
122729.7
122764.3
122780.2
122793.7
122890.4
122872.4
122850.8
122817.7
122792.2
122767.9
122748.8
122733.8
122720.4
122707.2
122693.9
122681.2
122673
122671.6
122678.1
122691.2
122703.3
122708.1
122705.4
122694.9
122676.5
122650.7
122620.5
122594.9
122583.5
122599.3
122645
122706.1
122754.9
122784
122792.3
122799.4
122896
122884.1
122862
122828
122800.5
122773.3
122750.2
122725.3
122700
122674.3
122650.6
122635.3
122636.1
122654.6
122691.1
122736.8
122776.5
122803.3
122821.1
122829.2
122823.7
122800.6
122759.9
122712.1
122669.7
122646.8
122658.8
122702.9
122751.6
122782.4
122790.7
122797.5
122924.1
122908.9
122894.8
122866.3
122836
122804.1
122768.8
122730.4
122683.4
122632.3
122581.5
122541.4
122526
122545.6
122599
122676.2
122759.3
122827.7
122874.6
122906.5
122917.7
122902
122866.4
122819.3
122766
122714.1
122675.2
122667.1
122694.2
122737.5
122769
122784.7
122795.2
122798
122925.4
122914.6
122902.6
122872.2
122839.9
122798.3
122743.3
122676.1
122588
122487
122388.6
122321.4
122308
122361.7
122466.7
122590.2
122702.3
122786.7
122841.2
122866.9
122870.5
122859.4
122838.7
122809.8
122774.7
122737.9
122709.1
122700.3
122715.3
122742.3
122764.6
122777.7
122785.5
122790.1
122931.2
122921
122909.2
122878.1
122842.8
122789.8
122707.9
122600.8
122464.3
122299.7
122133.6
122021.6
122004.5
122099.4
122262.1
122428.4
122567.4
122668.3
122732.6
122768.2
122784.9
122790.1
122788.5
122781.8
122770.5
122755.9
122744.2
122741.3
122750.1
122763.2
122773.3
122779.5
122782
122780.9
122934.5
122926
122915.3
122885.2
122849
122790.7
122692.6
122557.9
122384.4
122173.6
121964.2
121827
121816.2
121935.1
122123.9
122310.9
122465.7
122578.2
122651.3
122694.4
122718.6
122733.2
122744.2
122754.1
122761.9
122766.1
122768.8
122772.3
122777.6
122782.7
122785.4
122785
122780.6
122774.2
122936.2
122930.5
122922.1
122895.6
122861.6
122806
122709.5
122572.5
122394.6
122183.9
121977.4
121840.2
121827.2
121934.1
122101.4
122273.4
122420.7
122531.4
122606.6
122653.5
122682
122701
122717.1
122733.7
122750
122763.6
122773.6
122780.8
122785
122786.7
122785.8
122782
122773.5
122764.2
122938.8
122934.5
122930.5
122910
122880.6
122833.5
122751.9
122634
122480.1
122300.6
122125.9
122009
121991.2
122065.4
122184.9
122314.6
122432.5
122527
122595.6
122641.6
122671.3
122691.6
122707.9
122723.2
122737.8
122751
122761.2
122767.9
122771.1
122771.3
122770.1
122767.4
122759.1
122748.6
122941.7
122942.7
122930
122901.7
122865.8
122805.5
122715.8
122597.5
122459.4
122325.6
122232.5
122206.2
122242
122313.6
122398.8
122481.8
122552.8
122607.8
122647.4
122674.7
122693.8
122707.9
122719
122727.8
122734.4
122738.9
122741.9
122743.6
122743.2
122744.5
122741.1
122730.9
122942.9
122943.5
122939.7
122921.5
122898.1
122858.9
122796
122713.1
122615.7
122519.3
122446.5
122412.8
122418.1
122451
122498.3
122549
122595.6
122634.3
122663.9
122685.3
122700.3
122710.1
122715.5
122716.8
122715.3
122712.3
122710.8
122709
122707
122709.3
122698
122696.5
122946.9
122945.4
122948
122939.6
122925.3
122901.5
122862.4
122808.7
122744.2
122677.2
122618.7
122580.6
122567.3
122574
122593.7
122619.1
122645.1
122668.3
122686.7
122700
122708.6
122712.3
122710.8
122703.5
122692.8
122682.9
122676.6
122669.2
122668.9
122672.9
122659.6
122656.8
122951.3
122949.9
122957.2
122958.4
122947.4
122934.4
122913.1
122879.5
122836.5
122786.4
122737.9
122702
122682
122674.2
122676
122683.8
122694.2
122704.4
122712.2
122716.9
122717.2
122712.6
122702.1
122685.8
122668.1
122654.7
122643.8
122633.8
122635.5
122632.8
122620.3
122621.1
122958.1
122962.9
122969.6
122971.9
122959.4
122946.5
122926.7
122894.1
122854.7
122817.3
122787.4
122766.2
122752.1
122743.9
122739.8
122738.9
122738.8
122736.9
122732
122722.6
122708.4
122689
122665.3
122644.1
122626.1
122609.2
122606.1
122600.4
122585.5
122586
122961.5
122968.6
122974.9
122983.7
122980.5
122971.2
122955.8
122934.2
122905.3
122876.1
122851.2
122830.2
122812.6
122798.1
122786.2
122776.4
122767.3
122756.5
122742.7
122723.5
122700.2
122673.6
122646.7
122622.2
122597.8
122583.4
122581.6
122562.7
122558.3
122557.4
122978.5
122989.8
122999.8
123005.8
122996.7
122984.5
122969.4
122949.9
122925.1
122902.4
122881
122861.2
122842
122824
122806.8
122790
122772
122750.2
122722.8
122693.5
122663.5
122634
122604.7
122584.4
122574.3
122565
122546.3
122538.1
122999.9
123012.8
123025.2
123029.8
123018.1
123005.9
122990.6
122971.3
122951
122927.1
122904.6
122881.9
122859.4
122836.8
122813.9
122790.1
122762
122730.6
122698.6
122666
122631.3
122605.7
122590.1
122572.9
122556.5
122549.2
123025.4
123041.6
123054
123056.7
123053.7
123031.6
123012.8
122994.1
122973.4
122951.5
122927.2
122902.2
122876.4
122849.8
122821.2
122786.4
122750.6
122711.2
122682.4
122662.2
122632
122608.6
122590.4
122583.7
123055.9
123072
123079.3
123080.4
123076.1
123053.4
123035.6
123016.3
122993
122966.5
122939.7
122912.3
122884.4
122854.3
122817.8
122783.7
122749.6
122729.8
122703.2
122671.9
122658.6
122649
123090.6
123104.6
123106
123105.4
123100.7
123091.8
123074.3
123038.6
123010.6
122985.2
122959.2
122932.3
122906.4
122885
122856.9
122823.8
122798.6
122781
122754.6
122752.9
123124.2
123126.1
123136.3
123132.9
123123.7
123112.8
123096.8
123076.7
123057.7
123036.7
123012.8
122990.1
122974.2
122954.1
122931.8
122912.8
122897
122879.5
123176.8
123167.5
123155
123149.8
123151.8
123140.7
123130.9
123119.5
123105.5
123089.5
123088.5
123089.7
123104.1
123122.6
123245.7
123232.5
123233.4
123235.7
123247.1
123299.2
123004.8
122995.1
122988.6
122976.6
122967.6
122957.5
122943.7
122931.5
122929.5
122938
122951.3
122944.6
122948.3
122937.3
122928.8
122915.5
122902.8
122891.2
122879.8
122869
122861
122860.9
122862.1
122850.8
122856.4
122883.7
122904
122889.6
122885.1
122884.2
122875.7
122863.5
122852.9
122830.5
122815.1
122801.6
122790.9
122789.2
122781.1
122780.2
122776.9
122783.2
122809
122832.4
122858.7
122852
122851
122838.9
122835.5
122820.6
122810
122797
122782.3
122761.9
122743
122726
122712.3
122703
122693.3
122690.2
122692
122706.6
122716.4
122738.2
122756.9
122802.9
122841.1
122826.5
122816
122808.2
122790.7
122781.3
122767.4
122753.1
122737
122716.1
122692.4
122669.1
122647.2
122628.9
122615.7
122606.7
122600.4
122601.2
122609.8
122624.3
122651.7
122673.6
122723
122758.2
122836.7
122819.4
122796.8
122783.6
122761.5
122746.2
122735.9
122720
122702.2
122681
122655.9
122628.1
122599.5
122571.7
122547.1
122527.6
122513.3
122503.8
122502.4
122510.2
122524
122551.2
122591.4
122630.4
122690.5
122726.5
122845.9
122822.8
122796.5
122774.2
122744.9
122723.7
122708.7
122694.4
122678
122659.3
122635.3
122606.8
122574.3
122539.5
122504.4
122472.3
122444.8
122422.6
122406.5
122398.7
122402.1
122417.9
122445.2
122491.8
122562.4
122624.2
122688.4
122724.2
122865.7
122836.1
122806.8
122780.1
122743.7
122715.8
122693.2
122675.6
122660.8
122646.1
122627.7
122601.5
122569.2
122531.6
122490.2
122447.9
122408
122372.1
122341.2
122316.4
122299.9
122296
122309.2
122343.7
122407.6
122494.7
122590.3
122660.6
122715.8
122746.8
122852.3
122824.7
122795.8
122757.4
122722.4
122692.7
122669.8
122652.5
122638.8
122625.1
122606.9
122579.4
122544.2
122502.3
122456
122408.3
122361.5
122317.8
122278.8
122245.8
122221.7
122211.8
122223.3
122264.7
122346.1
122455.1
122560.6
122646.1
122703.4
122741.8
122885
122854.5
122820.6
122779.9
122743
122707.5
122678
122656.6
122641
122628.2
122615
122597.2
122570.3
122535
122492.4
122443.8
122393
122342.8
122294.8
122251
122212.8
122183.8
122169.1
122177.3
122222.1
122316.4
122440.9
122556
122641.1
122703
122745.6
122771.6
122918.8
122884.9
122850.9
122809.9
122771.6
122735.9
122700.7
122673
122653.2
122639.4
122628.7
122617
122600.7
122576.1
122543.6
122503.9
122458.4
122409.9
122361.1
122313.7
122269.5
122229.5
122197.6
122179
122183.3
122231
122333.3
122462.4
122575.7
122656.2
122713.2
122755.5
122782.3
122798.4
122911.3
122881.4
122849.7
122807.4
122770
122734
122701.4
122676.2
122659.4
122648
122639
122629
122614.6
122593.6
122566.5
122534.5
122498.3
122459.3
122419.1
122378.9
122339.7
122302.8
122271.7
122252.2
122255.7
122304.2
122402.2
122521.5
122624.9
122691
122735.4
122769.7
122791.6
122802.2
122912.8
122885.2
122847.2
122810.2
122773.2
122738.8
122709.5
122687.4
122672.2
122661.1
122651.8
122641.8
122628.7
122612
122593.4
122574.4
122554.8
122533.5
122509.4
122483.2
122455.5
122427.1
122400.8
122382.4
122384.1
122423.1
122500.5
122598.5
122684.7
122735.2
122762.6
122783.8
122799.8
122805.3
122948.6
122918.8
122891.4
122850.7
122816.3
122780.9
122749.5
122723.3
122702.4
122685.8
122670.5
122655.9
122640.9
122626.3
122614.9
122608.8
122609.2
122614.3
122618.3
122616.7
122610
122598.5
122582.2
122561.5
122540.7
122529.7
122541.2
122584.2
122652.1
122719.9
122762.3
122780.8
122792.8
122804.9
122806.5
122807.4
122944.9
122918.6
122893.6
122856
122824.7
122791.8
122762.7
122737.6
122714.9
122691.4
122664.3
122636.2
122609.1
122589.5
122584.2
122596.7
122626.5
122664.5
122697.5
122720
122735.5
122743.7
122738.1
122716.1
122679.9
122641.3
122614.7
122616.6
122656
122714.7
122761.2
122782.8
122793.8
122804.9
122805.6
122804.3
122942.8
122917.5
122895.8
122863.1
122832.9
122802.4
122773.8
122745.3
122713.8
122672.4
122620
122565.8
122518.1
122491.9
122499.2
122542.2
122610.9
122686.4
122749.7
122794.8
122823.5
122829.8
122812.8
122781.5
122741.2
122696
122655.7
122636.6
122653.6
122699.4
122746.5
122774.6
122789.1
122800.3
122802.1
122799.1
122941.6
122920.2
122895.2
122869.8
122840.9
122810.3
122777.9
122736.8
122682.9
122604.9
122505.6
122403.7
122323.1
122289.5
122318.3
122402.5
122512.8
122618.4
122700.2
122752.3
122776.7
122781.1
122774.8
122761.1
122740.1
122713.3
122687.1
122673.2
122682.2
122711.5
122744.4
122767.9
122781.7
122789.7
122793.2
122789.4
122941.7
122922.7
122898.3
122876.2
122848.7
122816.4
122776.8
122717.1
122627.2
122502.2
122344.2
122172.2
122037.2
121985.2
122042.3
122178
122334.7
122471.5
122573.5
122640.1
122679.3
122700.6
122712.3
122718.8
122720.9
122718.5
122713.9
122713.3
122722.3
122740
122757.5
122769.8
122777.3
122780.6
122780.5
122776.2
122941
122923.9
122902
122882.8
122857.4
122824.8
122779.5
122706.8
122592.2
122429.8
122223.8
122004.2
121835.7
121776.6
121852.3
122020.2
122202.5
122360.4
122479
122558.9
122608.8
122639.9
122662
122681.4
122699.8
122715.8
122728
122738.4
122748.9
122759.2
122767.5
122772.6
122774.6
122773.6
122770.4
122764.7
122939.5
122924.4
122906.8
122890.4
122868.2
122838.1
122792.8
122718.8
122601.5
122433.7
122222.9
122000.8
121828.8
121766.5
121835.3
121991.3
122163.3
122315.6
122434.1
122517.7
122572.7
122608.9
122635.6
122659.6
122683.5
122706.1
122724.8
122739.3
122750.2
122757.5
122762
122764.1
122763.6
122761
122757.3
122751.5
122940.9
122928.8
122917.5
122899.3
122880.7
122855.7
122816.3
122751.7
122650.1
122504.5
122322.2
122130.8
121981.4
121926.1
121975
122086.3
122215.6
122337.2
122437.7
122513.1
122565.8
122602.4
122629.7
122652.7
122673.9
122692.9
122709.2
122721.6
122730
122735
122738.3
122740.9
122742.1
122741.9
122738.9
122732.4
122940.5
122927.1
122919.9
122907.2
122893.2
122873.8
122844.3
122795.2
122718
122607.3
122467.8
122320.4
122202.8
122151
122169.9
122233.4
122315.9
122399.4
122473
122531.6
122575.3
122607.3
122631.7
122651.2
122667
122679
122687.8
122693.6
122697.5
122700.2
122703.4
122707.7
122711.2
122714.2
122708.1
122707.5
122939.6
122925.5
122922.4
122912.2
122903.6
122891.5
122872.3
122839.3
122786.4
122710.4
122613.8
122509.8
122421.9
122370.9
122363.4
122388
122429.9
122477.4
122523
122561.9
122592.7
122616.4
122634.8
122648.6
122657.7
122661.8
122662.4
122661
122659.7
122659.5
122662.3
122667.3
122671.7
122680.2
122674.9
122677.1
122931.8
122925.7
122916.8
122912.6
122906.6
122895.5
122875.8
122843
122794.9
122732.8
122662.3
122594.2
122544
122520.5
122519.4
122532.2
122552
122574.3
122595.3
122612.8
122626.6
122636.9
122642.9
122644.2
122640.1
122632.7
122625
122619.5
122616.8
122619.6
122625.8
122631.3
122640.4
122633.8
122936.5
122930
122926.7
122922
122918.8
122912.8
122902
122883.3
122853.2
122810.8
122757.9
122702.9
122659.2
122631.3
122617
122612.4
122614.1
122619.8
122626.4
122632.1
122635.6
122636.4
122633.2
122625.7
122613.3
122599.5
122587.8
122579.7
122576.3
122579.4
122585.5
122594
122600.6
122596.9
122941.2
122933.7
122934.2
122931.5
122929.3
122926.2
122918.3
122904.4
122881.7
122848.8
122808.6
122768.1
122732.8
122705.5
122685.7
122671.9
122662.7
122656.8
122652.4
122647.5
122640.9
122631.7
122618.7
122602.5
122583.1
122565.3
122551.5
122543
122541.4
122544.7
122549.7
122562.1
122561.7
122568.6
122949.8
122946.4
122948.4
122942.6
122939.3
122932.9
122920.3
122901.1
122875.7
122845.7
122813.8
122783.9
122757.6
122735.1
122715.8
122699.4
122685.1
122671.6
122657.6
122641.5
122622.7
122600.8
122577.5
122553.8
122534.9
122521.4
122515.8
122517.1
122519.8
122528.1
122535.5
122533.8
122958.9
122963.2
122966.3
122961.1
122955.9
122944.9
122928.2
122906.6
122880.7
122852.6
122824.8
122798.4
122773.4
122749.7
122727.5
122706.2
122685.1
122663.4
122639
122612.3
122584.2
122557
122532.5
122516
122505.4
122503
122507
122511.5
122511
122513.5
122974.9
122978.3
122987.4
122992.7
122985.9
122977.1
122962.5
122943
122918.5
122891.6
122863.7
122835.2
122807.2
122779.1
122751.6
122724.5
122697.3
122669.4
122638.6
122607.5
122577.9
122551.5
122528.4
122515.7
122509
122509.2
122513.8
122510.6
122511
122518.5
122998.5
123007.1
123018.1
123023.3
123013
123001.6
122984.7
122960.3
122933
122904.2
122873.7
122842.9
122810.9
122779.3
122747.9
122716.5
122684.7
122650.6
122619.7
122591.6
122568.9
122550.3
122539.9
122536
122537.6
122530.7
122529.5
122533.8
123030.9
123042.2
123051.2
123053.2
123040.2
123024.4
123003.3
122977.7
122949.1
122917
122884.2
122849.9
122816.1
122783
122750.5
122718.4
122684.1
122656.9
122634
122617.1
122601.4
122593.5
122590.4
122575.1
122573.6
122575
123070.5
123080.6
123085.5
123086.7
123067.4
123048.4
123027.6
123002.1
122970.4
122937.4
122902.9
122869.8
122838
122807.6
122780.1
122750.8
122729.5
122709.4
122697.2
122684.6
122680.6
122659.8
122643.2
122645.7
123113.1
123111.5
123127.1
123121
123108.5
123083.4
123059.5
123032.9
123007.6
122976.1
122947
122920.4
122896.7
122877.1
122853.6
122840.7
122824.6
122820.8
122802.4
122791.4
122759.6
122739.1
123169.9
123173.1