/*--------------------------------*- C++ -*----------------------------------*\
  =========                 |
  \\      /  F ield         | OpenFOAM: The Open Source CFD Toolbox
   \\    /   O peration     | Website:  https://openfoam.org
    \\  /    A nd           | Version:  6
     \\/     M anipulation  |
\*---------------------------------------------------------------------------*/
FoamFile
{
    version     2.0;
    format      ascii;
    class       volScalarField;
    location    "50";
    object      p;
}
// * * * * * * * * * * * * * * * * * * * * * * * * * * * * * * * * * * * * * //

dimensions      [1 -1 -2 0 0 0 0];

internalField   nonuniform List<scalar> 
203709
(
306173.5
306017.1
306021.7
306192.3
306370.4
306328.6
306246.7
306139.6
306159.4
306307.2
306426.9
306480.2
306202.7
306263.5
306313.2
306317.3
306428.3
306511.3
306553.6
306554.4
306512.6
306528.4
306494.3
306390.3
306199.9
306076.7
306127.8
306333.5
306550.3
306766.4
306928.6
307000.1
306987.2
306900.3
306737.7
306526.6
306412.2
306449.3
306146.6
305983.9
306152.9
306410.8
306705.2
306996.7
307226
307348
307359.3
307260.4
307059.6
306794.2
306538.9
306561.7
306137.7
305973.1
305906.1
306076.7
306346.8
306686.7
307043
307337
307521.7
307579.7
307504.5
307308.9
307025.6
306719.5
306576.5
306580.5
305974.6
305766
305840.4
306009
306284.5
306658.4
307061
307402.6
307624.1
307704.2
307652.2
307477.2
307194.3
306849.6
306527.5
306491.5
305998.6
305850.2
305765.6
305878.4
306061.2
306347.6
306734.6
307137.4
307472.3
307696.4
307787.2
307742.5
307577.8
307302.6
306938.4
306558.5
306345.9
306282.1
305860.6
305748.6
305861.5
306039.1
306268.3
306564.4
306922.1
307279.5
307564.1
307758.8
307834.4
307786.8
307615.9
307348.1
306977.8
306563.9
306195.3
306093.9
305945
305862.6
306024.8
306253.1
306520.6
306815.7
307125.6
307426.2
307652.1
307800.6
307842.7
307776
307595
307325.5
306957.5
306547.5
306183.4
306087.2
306227.3
306163.6
306209
306448.4
306732.5
307021.8
307287.9
307527.3
307710.2
307808.9
307805.9
307708
307518.2
307238.1
306879.1
306507.9
306314.1
306263.1
306437.4
306364.8
306585.9
306861.7
307135.9
307372.8
307558.1
307688.5
307744.4
307709.5
307589
307382
307092.2
306753
306441.3
306435.2
306633.8
306579.2
306642.2
306883
307136.1
307351.9
307507.7
307597.2
307614.2
307552.2
307407.1
307180.5
306888.4
306585.2
306457.6
306500
306688.3
306615.3
306808.2
307030.8
307220.3
307349.1
307408
307394.7
307318.1
307157.3
306928.7
306651
306395.6
306444.3
306688.9
306640.4
306699.3
306872.3
307011.8
307102.6
307132.8
307100.5
307019.2
306872.1
306680.9
306446.3
306324.3
306371.6
306735.4
306808.5
306843.9
306795.8
306826.3
306808.3
306767.3
306715.1
306616.7
306599.8
306495.9
306364.4
306877.2
306806.6
306689.3
306505.2
306464.2
306564
306603.2
306610.3
306597.9
306403.7
306362.8
306486.9
302460.9
302521.3
302718.3
302858.1
302916.4
302890
302779.4
302588.4
302341.8
302232.4
302464.2
302644.5
302768.7
302877.3
303045.2
303147.7
303178.9
303156.8
303081.8
302936.4
302725.7
302569.4
302407
302191.3
302695.7
302736.5
302945.4
303201.6
303391.1
303551.9
303591.1
303554.8
303540.2
303549.9
303480
303283.4
303052.6
302753.8
302500.5
302437.8
302792.4
302885.4
303116.4
303410.4
303682.1
303810.9
303791.5
303737.1
303515.6
303514.2
303735.3
303767.1
303767.1
303603.3
303285.2
302941.4
302668
302565.9
302740
302913.7
303191.1
303536.6
303758.6
303846
303882.7
303670.8
303476.6
303093.1
303108.4
303520.9
303728.6
303941.5
303863.1
303738.1
303455.9
303048.7
302722.5
302540.1
302555
302811.5
303163.2
303551.7
303722.6
303762.1
303634.4
303512.8
303165.8
303143.2
303150.4
303188.6
303255
303332.3
303692.1
303803
303885.5
303756.2
303519.2
303056.6
302649.5
302384.8
302766.2
303037.2
303457.5
303766.8
303748.8
303371.5
303025.4
303044.8
303135.6
303267.9
303383.7
303451.7
303475
303458.1
303419.7
303391.3
303665.1
303949.4
303862.5
303456.8
302950.6
302637.2
302609.9
302911.7
303294.4
303700.2
303788.3
303509.4
302889.3
302824
302942.4
303149.8
303383.2
303580.9
303700.1
303734
303679.1
303564.7
303444
303422.7
303889.8
304017.2
303796.7
303268.3
302803.8
302464.5
302694.3
303015.3
303457.8
303764.9
303685.5
303201.1
302641.9
302624.1
302786.3
303058.7
303370
303641.3
303822
303892.5
303848.9
303715.6
303540
303424.5
303760.6
304053.2
303933.9
303473.9
302924.9
302545.1
302904.4
303175.5
303586.5
303682.3
303356.1
302635.8
302436.1
302463
302654
302971.4
303338.4
303655.4
303871.3
303965.2
303939.2
303810.7
303613.3
303419.9
303362.7
303802.4
303896.9
303628.3
303095.3
302751.8
303063
303289.3
303612
303570.5
303108.8
302495.3
302376.1
302436.4
302655.5
302995.8
303366.4
303685.3
303907.1
304010
303992.3
303868.4
303662.1
303424.6
303266.9
303569.5
303815.8
303655
303196.2
302896.2
303154.3
303357.7
303614.1
303382.8
302725.7
302505.8
302474.6
302582.1
302813.6
303134.2
303466.1
303747
303942.9
304032.4
304008.9
303881.5
303672.2
303414.4
303193.7
303144
303569.1
303612.7
303232.2
302963.8
303176.8
303396
303670.5
303461.8
302831.9
302658.5
302674.2
302814.5
303041.5
303321.2
303598.3
303824.7
303975.8
304032.8
303989.5
303852.2
303640.4
303384.5
303167.4
303122.9
303553.8
303597.8
303218.2
302951.7
303125.3
303393
303766.7
303794.2
303405
302908.5
302905.4
303049.1
303261
303494.1
303712.8
303884.8
303986.1
304002.4
303932.4
303782.9
303570.2
303337.2
303187.2
303509
303762.8
303599.7
303144.7
302854.3
302997.2
303323.2
303796.9
303979.9
303764
303185.1
303120.9
303233.4
303416.6
303607.4
303773.2
303893.4
303949.5
303930.3
303836.6
303675.1
303468.9
303280.3
303234.5
303702.5
303788
303524.3
302993.9
302667.7
302806.4
303184.1
303699.4
304098.9
304132.6
303761.9
303315.1
303350.9
303489.8
303641.2
303764.3
303840.4
303858.6
303812.3
303700.7
303534.5
303349.7
303238.7
303597.4
303917.7
303777
303317.4
302774.5
302417.2
302743.2
303098.8
303557.9
304053.6
304219.2
304024.7
303479.7
303427.6
303503.3
303603.1
303682.3
303720
303710.1
303650.4
303538
303390.8
303251.7
303229.9
303728.1
303844.4
303611.9
303082.3
302622.9
302311.4
302996.1
303335.5
303834.8
304208.5
304233.7
303915.2
303568.2
303548.1
303552.2
303564.2
303557.5
303529.4
303479.4
303405.5
303334.6
303286.7
303566.7
303853.5
303722.7
303294.5
302778.9
302457.9
302815.8
303138.6
303559.8
304009
304213.2
304286.7
304164.1
304026.2
303613.6
303510.9
303425.9
303388
303395
303422.8
303760.7
303837.9
303902.4
303742.1
303460.9
302969.6
302537.2
302234
303090.4
303318.7
303650.7
304040.2
304283.9
304378.9
304396.5
304151.1
303915.3
303452.3
303411.3
303783.3
303947.2
304128.9
304008.9
303841.7
303528.9
303081.2
302704.1
302444.7
303207.6
303350.8
303620.4
303933.6
304217.3
304331.5
304288.2
304196.5
303936.3
303896.7
304083.5
304073.1
304030
303827
303472.3
303094.1
302761.7
302568.3
303141.8
303221.1
303450.8
303722
303905.2
304050.5
304065.5
303999.1
303955.6
303941
303836
303603.7
303332.4
302990.1
302691.6
302559.5
302905
303108.4
303253
303361.7
303519.9
303609
303619.4
303577.6
303485.3
303313.8
303074
302877.7
302663.1
302426.9
302873.8
302949.4
303140.8
303266.9
303304.3
303263.3
303146.1
302945.9
302691
302576.7
298630.4
298613.9
298731.9
298791.4
298764.9
298653.8
298481.8
298441.4
298535.5
298744.2
299068.8
299138.4
299200.2
299312.5
299364.6
299336.7
299230.2
299067.2
298952.4
298829.7
298468
298232.6
298970.8
299004.3
299269.6
299507.6
299658
299821.6
299941.4
299993.3
299964.6
299856.7
299685.1
299474.3
299278.8
299004.3
298707.9
298630.9
298587.5
299020.6
299344.3
299537
299681.4
299842.4
299813.1
299944
300042.8
300083
300055.5
299961.2
299811.4
299634.4
299621.9
299422.7
299248.2
299014.6
298662.1
298205.2
298649
298949.3
299405.2
299688.2
299845.5
299805
299777.7
299543.5
299591.2
299631.2
299641
299617
299560.2
299475
299384.2
299571.4
299563.8
299576.4
299376.6
299056.1
298573.2
298258.4
298618.6
298969.7
299457.5
299796
299951.3
299774.3
299558
299595.9
299620.8
299617.4
299587.2
299559.2
299541.9
299536
299531
299498.2
299434
299358
299532.3
299674.4
299473.6
299099.9
298582.7
298231.6
299068
299446
299820.5
300025.5
299864.8
299609.3
299641.7
299673.6
299665.5
299613.1
299521.3
299445.2
299438.8
299501.4
299572.8
299600
299573.9
299502.5
299426.5
299632.9
299758.6
299504.1
299093.7
298704.2
299034.8
299420.5
299758.8
300002.2
299893
299647.8
299646.8
299659.2
299650.6
299592.4
299507.9
299412.7
299338.5
299348.1
299437.8
299536.8
299611.7
299640.6
299608.9
299546.9
299494.8
299681.3
299753.2
299464.5
299098.4
298715
298609.7
299104.1
299645.5
299950.8
299853.8
299659
299668.6
299630.6
299559.3
299494.4
299427.4
299365.4
299346.2
299352.2
299383.5
299435.7
299495.1
299565.4
299611.2
299631
299639.4
299614.9
299543.1
299672.1
299731.2
299384.8
298825.7
298342.6
298837.6
299395.9
299821.5
299931.3
299655.3
299704.2
299685.1
299553.9
299383.1
299277.8
299264.3
299310.8
299395.5
299480.3
299541
299576.1
299584.6
299576.8
299575.4
299620.4
299707.3
299751.5
299690.4
299567
299780.3
299611.6
299158
298603.2
299187.1
299659.3
300007.9
299924
299700.9
299724.7
299632.6
299409
299169.6
299079.2
299122.5
299254.5
299428.1
299587.8
299696.9
299745.2
299729.5
299677.3
299626.8
299631.4
299737.9
299826.5
299798.3
299674.2
299807
299823
299438.7
298964.1
298717.3
299293.6
299844.5
299999.3
299694.3
299713.1
299668.6
299469
299171.2
298910.3
298827.9
298901
299091.5
299340.8
299577.8
299749
299833.7
299828.9
299759.1
299665.2
299613.8
299673.3
299773.7
299803.8
299720.1
299602.3
299820.9
299619.3
299044.8
298453.5
298735.3
299384.7
300034.3
300148.6
299746.9
299690.2
299556.4
299266.5
298906.2
298660.4
298589.4
298685
298927.9
299241.7
299528
299736.8
299846.1
299856.1
299786.9
299673.8
299573.2
299559.1
299655.7
299734.7
299711.8
299655.6
299963.7
299797.6
299116.8
298461
298882.4
299522.4
300178.3
300271.2
299804.3
299658.5
299430.5
299102.8
298756.9
298542.8
298489.7
298611.6
298881.8
299213.5
299512.1
299732.1
299852.2
299870.4
299802.3
299676.9
299542.7
299471.2
299521.7
299619.7
299673.3
299697.3
300072.4
299931
299243.9
298594.8
298964.2
299599.7
300260
300345.3
299850.6
299664.2
299378.6
299034.3
298754
298595.3
298575.8
298714.9
298977.8
299278.9
299548.8
299747.9
299855.5
299867.2
299794.6
299662.6
299511.5
299404.6
299409.5
299525.5
299641.9
299712.6
300125.4
299999.2
299314.9
298673.6
298957
299599.4
300267.6
300362.3
299881.3
299710.9
299447.9
299132.2
298892.7
298778
298791.2
298929.9
299158.2
299406.2
299623.8
299779.6
299855.7
299847.6
299764.6
299629.1
299479.1
299375.5
299385
299505.6
299623.9
299695.4
300111.2
299984.9
299302.9
298664.6
298871.2
299523.8
300200
300319.4
299890.3
299787.3
299619.1
299366.8
299125.6
299021.2
299046.1
299170.3
299351.9
299540.7
299700.2
299805.6
299842.7
299808.8
299713.3
299578.7
299447.1
299383.4
299448
299555
299612.1
299638.3
300024.5
299882.9
299201.2
298560.6
298735.1
299392.8
300069.4
300222.8
299875.2
299874.6
299815.1
299623.8
299387.2
299267.6
299278.6
299374.6
299508.5
299641.8
299747
299805.1
299805.6
299748.2
299643.2
299517
299418
299413.3
299526.4
299612.4
299594
299541.1
299871
299703.3
299028.1
298384.9
298723.6
299308.1
299894.6
300094.5
299851.7
299932.2
299959.1
299851.9
299657.4
299494.9
299463.1
299517.4
299605.3
299690.1
299748.8
299767.8
299740.5
299667.7
299562.2
299455.2
299404.1
299475.4
299591.1
299625.5
299543.4
299430.7
299680.6
299467.6
298892.2
298324.6
299230.3
299736.4
300130.6
300105.6
299950.4
300039.5
300018
299868.1
299686.2
299608
299613
299650.5
299688.1
299706.1
299696
299654.2
299581.9
299492.8
299417.5
299412.6
299525.6
299615.7
299585.9
299461
299606.5
299649.7
299236.3
298745.3
298901.3
299494
299966.5
300145.1
299943.2
300057.3
300093.6
300010.5
299874.2
299767.4
299717
299686.5
299666.7
299642.9
299613.4
299575.8
299528.9
299485
299456.5
299484.1
299558.2
299579.8
299499.2
299364.4
299582.3
299400.2
298928.2
298354.7
298682.7
299224.7
299824.7
300196.2
300170.8
300042.2
300101.3
300099.1
300052.6
299989.3
299898.3
299780.4
299686.5
299609.4
299567.8
299558.8
299566.4
299597.3
299607
299596
299573
299514.6
299418.2
299544.1
299581.9
299188.7
298600
298078.8
299182.6
299625.1
300028.1
300342.4
300290.2
300095.3
300130.2
300163
300157.6
300080.4
299957
299809
299669.2
299620.2
299659.2
299712.9
299745
299729.3
299658.1
299557.8
299469.8
299637.7
299676.5
299346
298942.2
298504.6
299298.3
299735.7
300171.3
300437.9
300324.4
300098.4
300146.4
300182
300159.1
300077.2
299945.2
299823.4
299773
299793.8
299822.5
299806.6
299735.1
299621.5
299505.3
299683.9
299766.5
299462.7
299022.1
298596.2
298851.5
299265.1
299817.7
300207.3
300407.8
300256.3
300049.5
300088.9
300102.4
300077.2
300018.2
299957.4
299907.8
299870.2
299829
299756.2
299648.3
299531.3
299670.6
299776.7
299527.4
299109.7
298557.3
298149
298944.5
299299.9
299800.4
300121.1
300310.9
300280.3
300250.3
300003.5
300036.4
300058.7
300046.6
299999.8
299919
299803.8
299680.7
299842
299799.4
299768.4
299524.3
299169.8
298645
298292.2
298902.6
299369.7
299740.4
299960
300111
300282.5
300252.9
300378.5
300468.7
300493.2
300452.5
300346.7
300177.9
299977.9
299939.7
299699.5
299494.3
299250.5
298864.9
298381
299311.5
299382.9
299656.3
299902
300055.2
300219
300336.8
300376.9
300345.8
300241.1
300061.8
299841.9
299646.1
299360.9
299056.2
299040.5
298872.2
299087.7
299413.4
299499.9
299572.7
299692.4
299746.6
299729.1
299635.3
299475.3
299364.1
299271.8
298948.9
298784.4
298978.2
298968.9
299101.3
299181.5
299178.7
299088.6
298951.9
299003.6
294884.7
294779.3
294806
294789.3
294719.2
294782.2
294677.9
294926.9
295323.8
295602.2
295509.2
295472.9
295498.3
295477
295405.9
295389.8
295424.2
295122.1
294701.5
294433.2
294574.1
295067.3
295318.3
295536.8
295768.2
295915.7
295789.3
295820.2
295841.3
295816.2
295745.7
295662.7
295739.1
295558.5
295307.1
295071.4
294799.8
294312.3
295026.4
295288.4
295575.5
295781.5
295828.7
295962.9
295937.7
295674.2
295687
295698.3
295670.2
295604.1
295539.6
295757.3
295748.3
295587
295522.5
295295.9
294994.4
294717.1
295339.2
295547
295797.8
296012.7
295825.7
295605.7
295645.6
295690.2
295730.4
295774.4
295791.7
295761.6
295686.4
295589
295503.5
295422.6
295354.3
295549.7
295714.4
295482.4
295209.8
294986.3
295424.3
295624.2
295884.6
295972.4
295967
295648.8
295621.5
295625.4
295646.2
295692.8
295734.5
295746.6
295716.3
295645.9
295550.8
295458.6
295400.8
295366.7
295366.7
295655
295640
295530
295259.3
295056.4
295368.2
295642.5
295874.4
295830.6
295681.6
295679.5
295637.8
295616.5
295605.4
295596.8
295614.2
295628.4
295624.5
295596.9
295547.6
295483.9
295421.8
295390.6
295370.1
295363.8
295375
295348.2
295468.3
295497.1
295266.7
294996.5
295075.7
295594.6
295930.5
295855.9
295682.7
295696.4
295681.8
295631.2
295600.7
295598
295595.2
295586.1
295566.7
295544
295522.5
295503.2
295481.9
295451.7
295416.4
295384.9
295382.2
295400.5
295381.9
295335.1
295477.7
295545.8
295217.3
294705.6
294635.1
295357.7
295872.4
296039.3
295730.4
295723.1
295720.9
295677.1
295629.4
295615.9
295610.7
295593.4
295559.8
295514.6
295477.4
295465.8
295479.3
295497.8
295501.5
295484.8
295454.2
295430.4
295439.4
295446.4
295411.7
295387.7
295676.6
295508
294992
294270.2
295126.3
295658.8
296106.9
296054
295754.6
295736.1
295705.3
295660.8
295630.9
295609.6
295585.2
295548.5
295504.2
295460.8
295432
295435.1
295467.2
295505.4
295533.2
295540.9
295527.4
295506.4
295492.9
295492.4
295483.2
295468.3
295735.4
295779.1
295323.8
294785.8
294710
295398.2
295892.6
295941.4
295764
295742.2
295713.5
295685.3
295658.3
295611.6
295553
295502
295461.7
295436.3
295432
295443.6
295467.4
295498.8
295530.2
295557
295573.3
295581.3
295585.9
295579.5
295556.6
295535.4
295525.4
295517.2
295667.3
295606.4
295090.4
294417.7
294975
295635
295956.4
295745.6
295764.6
295746.2
295708.9
295696.5
295652.6
295559
295451.6
295379.4
295360.5
295388.3
295448.4
295515.1
295568.3
295603.4
295617.4
295616.1
295615.6
295631.4
295663.7
295680.7
295658
295614.1
295601.2
295575.2
295521
295706.3
295367
294710.5
295386.4
295876.1
296107.7
295808.9
295794.5
295760.1
295726.2
295697.2
295605.4
295452.9
295298.3
295214.2
295219.4
295300.6
295429.6
295559.5
295657.9
295712.9
295720.7
295702.2
295681.3
295681.8
295718.1
295749.5
295736.8
295687.7
295655.9
295633.1
295603.7
295868.6
295611
295121.9
295662.6
296035.9
296102.2
295880.1
295839.4
295768.7
295724.8
295650.8
295489.2
295267.8
295064.4
294958.5
294972.1
295094
295285.5
295487.6
295647.1
295742.1
295767.7
295743
295698
295671.9
295690.9
295728.8
295741.3
295712.7
295679
295683.1
295672.8
295852.5
295753.7
295386.6
294897
295591.1
295932.4
295865.4
295948.1
295910.9
295801.3
295707.8
295568.6
295340.3
295058.1
294812.5
294683.6
294700.5
294869.3
295125.2
295379.4
295579.6
295702.5
295745.8
295726.9
295674.7
295626.2
295619.4
295656.8
295694.7
295702.4
295704.8
295743.8
295730.8
295609
295642.7
295289.1
294556.1
294821.9
295582
295992.2
295906
296021.3
295981.7
295838.1
295693.6
295497.1
295226.9
294922.3
294668.4
294534.7
294563.7
294756.9
295042.2
295317.3
295534.6
295671.7
295725.5
295709.9
295650.8
295584.9
295553.3
295577.7
295630.8
295677
295723.1
295797.7
295792.5
295641.1
295692.6
295257.5
294468.2
294871.1
295628.8
296036.2
295944.4
296070.4
296030
295871.2
295703.7
295481.5
295203
294917.6
294689.5
294572.9
294616.2
294807.9
295071.9
295326
295527.4
295654.6
295703.1
295683.9
295620.1
295545.4
295499.8
295513.8
295577.6
295651.1
295725.1
295823
295827.8
295672.8
295734.3
295298.1
294511.4
294856.9
295616.8
296027.8
295943.8
296076.5
296044.4
295896.4
295743
295540.4
295288.6
295039.8
294851.5
294766.2
294816.7
294982.5
295195
295398.2
295557.6
295653.8
295682.2
295651.9
295583.8
295509.4
295466.6
295484.5
295551.7
295627.4
295703
295803.6
295811.4
295659.8
295726
295291
294504.9
294798.5
295559.3
295976.6
295907.2
296040.2
296023.7
295909.8
295802.8
295656.9
295456.3
295244.9
295090.5
295030.1
295074.4
295198.7
295352
295495.5
295603
295659
295660.2
295615.2
295544.4
295478.7
295453.8
295488.1
295548.9
295600.1
295650.8
295734
295737.2
295594.2
295658.7
295224.7
294438.9
294878.5
295570.2
295920.5
295871.8
295980.9
295978.3
295911.3
295867.5
295791
295649
295475.7
295344.3
295294.3
295320.8
295399.9
295496.8
295583.6
295641
295657.8
295632.7
295575
295505.5
295455
295454.1
295501.5
295546.8
295560.8
295570.2
295624.2
295623
295511.2
295563.6
295203.1
294485.3
295648.3
296029.1
296112.2
295928.4
295930.2
295910
295919.2
295904.8
295824.4
295695.1
295577.8
295518.8
295517.9
295554.3
295602.3
295640.9
295656.6
295642.4
295598.6
295535
295472.8
295441.9
295463.8
295508.5
295526.8
295503.5
295478.2
295502.3
295503.3
295691.5
295613.1
295221.7
295363.7
295868.7
296129.3
295875.6
295909.8
295932.4
295956.1
295984.5
295959.3
295873.1
295765.9
295691.2
295661.3
295658.6
295664
295663.1
295648.3
295615.4
295565.1
295506.4
295456.6
295441.2
295470.1
295496.6
295482.1
295433.5
295409.8
295402.6
295375.3
295644
295384.3
294883
294953.4
295631.8
295993.1
295832.5
295905.1
295950.2
295977.5
296024.7
296035.9
295988.6
295906.5
295831.6
295777.6
295735.7
295700.5
295665.8
295630.6
295592.8
295550.6
295509
295474.1
295461
295468.1
295460.4
295417.6
295360.8
295346.9
295316.5
295256.2
295440.7
295081
294403.1
294702
295413.3
295948
296051.8
295930.8
295972.8
296010.6
296042.5
296062.6
296050.1
296012
295960.3
295894.3
295817.6
295743.5
295677.4
295629.5
295598.7
295575
295554.3
295525.3
295491.8
295457.6
295413.3
295361.4
295324.7
295302.1
295271.3
295407.6
295327.8
294792.8
294084.2
295170.1
295736.3
296242.3
296248.1
296010.8
296054.4
296079.5
296079.1
296078.8
296073.6
296048.7
295990.8
295907.3
295811.1
295722.4
295667.3
295645.3
295631.6
295608.6
295564.4
295502.8
295435
295378.8
295347.7
295316.4
295280.9
295533.1
295542.9
295049.8
294495.2
294687.9
295455.6
296019.5
296250.4
296005.6
296056.3
296106.1
296099.8
296074.3
296071
296063.3
296027.4
295962.3
295875.6
295792.1
295734.4
295702.7
295674
295628.2
295558.8
295478.3
295405.8
295373.7
295346.8
295284.9
295243.6
295508.3
295288.5
294739.1
293981
295192.8
295765
296159.8
296144.9
296023.5
296080.3
296094.2
296057.7
296029.8
296020.3
296000.5
295966
295914.2
295856.5
295800
295744.9
295683.6
295609.1
295525.6
295447.3
295398.5
295378.2
295326.2
295257.2
295385.5
295413
295033.1
294465.8
295550.8
295882.1
296174.3
296173.3
296054.3
296070.7
296039.3
296015.7
295992.4
295967
295964.7
295955.2
295925.6
295872.1
295795.9
295701.1
295603.1
295532.1
295471.7
295426.5
295405
295350.8
295454
295448.4
295171.9
294854.3
295663
295913.7
296219.4
296333.4
296340.9
296021.1
295987
295981.2
295988.6
296022
296047.4
296040.8
295993
295905.4
295788.5
295669
295579.3
295515.4
295497.4
295777.6
295729.4
295590.8
295290.1
295049.4
295624.1
295865.5
296133.9
296370
296181.9
295947.8
295976.7
296010.4
296041.7
296075.5
296080.6
296042.3
295961.4
295855.2
295757.1
295661.5
295583.1
295785
295941.2
295683.4
295401.8
295166.9
295352.5
295627.3
295916
296129.7
296172.1
296297.7
296263.9
295986.4
295995.3
296005.7
295979.9
295918.3
295861.3
296098.5
296096.5
295941.6
295890.3
295682.6
295371.2
295134.5
294937.1
295412.3
295666.3
295889.6
296118.7
296259.6
296130.1
296170.3
296208.3
296198.1
296137.5
296076.5
296197.9
296055.5
295834
295631.8
295403
294953.5
295065.5
295305.4
295707.9
295981.8
295893.1
295876.1
295935.8
295941.1
295890.1
295913
296033.7
295808.3
295489.5
295343.2
295360
295267.8
295346.4
295369.3
295347.4
295525.4
290861
291112.3
291309.8
291377.4
291432.7
291421.8
291325.1
291208.7
290991.3
290725.9
290771.8
291168.5
291579.4
291746.2
291876.9
291965.2
291791.7
291792.9
291774.8
291727.6
291856
291744.7
291597.8
291394.2
290978.4
290600.7
291455.4
291474.6
291777.8
291889.6
292086
292166.9
292053.6
291686.4
291643.6
291620.8
291615.3
291934.2
292017.4
291917.3
291696.3
291574.3
291287.5
291266.1
291077.2
291649.5
291879.8
291835.4
291867.2
291709.3
291776.6
291784
291728.2
291669.9
291644
291617.6
291591.2
291600.1
291619
291586.7
291501.8
291647.6
291609.8
291649.8
291416.1
290850.2
291351
291726.3
292016.6
291911.5
291694.1
291667.6
291677.2
291720.4
291721.9
291687.3
291666.9
291651.5
291621.8
291580
291548.6
291542.7
291512.1
291448.9
291424.9
291438.8
291642.8
291742
291456.5
291067.3
291460.8
291904.3
292198.5
292059.4
291793.4
291733.7
291673.1
291643.1
291653.6
291664.4
291668.2
291671.5
291662.9
291630.5
291577.6
291519.6
291471.8
291428.4
291394.4
291405.6
291451.2
291496.1
291751.3
291888.1
291604.1
291157.8
291386.8
291923.2
292285.8
292142.7
291823.6
291769.2
291722.1
291653.9
291620.3
291613.1
291616.2
291625.9
291631.6
291621.5
291587.8
291534.2
291472.7
291417.7
291379.8
291360.9
291371.9
291420.4
291451.9
291495.9
291810.7
291960.9
291612.3
291071.5
291146.9
291781.6
292240.1
292165.3
291846.7
291756.5
291709.7
291671.5
291626.5
291597.3
291582.1
291573.1
291571
291565.5
291548.5
291516
291471.8
291424
291381.4
291353.7
291340.3
291344.9
291367.1
291386.3
291420.7
291506.3
291822.9
291905.6
291452.3
290806.8
291724.3
292088.7
292121.7
291871.3
291782.2
291720.6
291683.8
291647.9
291607.4
291578.4
291561.8
291548
291532.9
291513.1
291489.1
291461.7
291433.5
291405.9
291379.4
291357
291343.3
291345.2
291360
291372.8
291391.2
291442.2
291529.5
291777.8
291743.8
291375.5
291540.1
291972.3
291998.8
291875.3
291839.9
291760.5
291710.8
291675.3
291634.6
291596.2
291570.4
291551
291529.9
291504.6
291476
291450
291431.6
291421.4
291414.4
291405.1
291392.6
291380.6
291376.2
291384.3
291396.4
291408.6
291443.3
291515.9
291546.9
291654.4
291609.8
291160.1
290859.6
291570.1
291934.1
291794.4
291833.9
291814
291748.3
291703.2
291664.5
291624.6
291588.2
291556.6
291527.7
291499.3
291472.5
291449.6
291434.2
291429.8
291434.6
291442
291446
291444.4
291438.9
291435
291436.3
291442.8
291453.2
291478.7
291530.5
291538.4
291484
291598.9
291219.9
290490.3
291232.6
291856.5
291963.1
291779.3
291789.8
291768.5
291730.3
291693.1
291658.2
291620
291573.3
291522.5
291479.2
291449.3
291435.6
291437.8
291450
291466.2
291482.1
291494.6
291501.7
291504.9
291507.2
291511.3
291514.5
291513.6
291515.3
291527.8
291545.2
291545.3
291513.3
291669.2
291560.5
290916.4
291626.2
291970.5
291817.9
291804.9
291780.5
291760.3
291730.1
291696
291664.1
291615.3
291540.4
291460.1
291401.5
291379.3
291395.4
291440.6
291494.5
291540.3
291571.7
291584.5
291583.5
291580.7
291584.3
291596
291604.8
291602.7
291594.2
291592.9
291590.8
291579.5
291575.8
291564.5
291699.2
291347.1
290886.9
291804.5
292176.1
291893.1
291862.5
291812.9
291779.8
291743.9
291707.3
291665.2
291584.7
291465.6
291346.6
291266.9
291249.6
291297.2
291393.5
291501.6
291589.9
291646.3
291665
291662.7
291654.5
291651.4
291662.2
291673.3
291670.9
291656.3
291644.4
291636.1
291628
291643.8
291647.2
291906.2
291530.9
290628.8
291136.6
291930.9
292254.1
291907.2
291879.7
291847.4
291810.3
291760.7
291708.1
291634.9
291502.5
291321.9
291145.7
291027.3
290999.9
291070.1
291215.5
291386.1
291533.5
291633.4
291678
291680.8
291663.1
291650.2
291655.6
291670.5
291679.6
291675.8
291669.8
291669.5
291662.1
291657.2
291653.5
291978.5
291626.4
290818.6
291315
292007.6
292139.6
291864
291866
291877.7
291847.9
291781.6
291698.4
291577.5
291390.1
291148.4
290908.8
290744.5
290703.2
290805.8
291007.9
291233.2
291424.6
291557
291625.1
291641.7
291628.5
291609.7
291607.5
291625
291648.5
291665.5
291680.3
291696
291684.2
291636.1
291599.6
291848.4
291677.5
290957.5
291389.6
291849.4
291795.8
291830.7
291872.9
291911.2
291885
291803.4
291691.9
291532
291305
291026.6
290756.3
290567.9
290520.3
290643.4
290881.4
291133.4
291347.7
291499
291581.7
291606.3
291593.5
291569
291558.6
291574.3
291607.8
291645
291683
291716.9
291706.9
291635.2
291558.4
291490.9
291500.6
291000.9
291459.6
291869.5
291773
291828.2
291885.7
291936
291912.8
291825.1
291702.4
291529.1
291294.4
291019.4
290756.9
290572.8
290532.1
290653.9
290880.8
291119.3
291322.5
291467.2
291546.8
291569.8
291555.4
291528.3
291514.4
291529.7
291570.6
291621.6
291675.3
291722.4
291718.1
291641.8
291554.8
291466.2
291516.9
291056
291441
291855.9
291764
291823.2
291885.9
291941.8
291925.1
291845.5
291734.1
291577.4
291366.9
291124.7
290898.3
290744
290718.3
290823.8
291002.7
291191.8
291353.7
291467.5
291526.4
291537.4
291517.6
291489.7
291477.7
291496
291539.9
291593.3
291649.3
291699.9
291699.9
291628.3
291545.9
291459.6
291511.5
291044.9
291354.9
291822.3
291775.5
291819.4
291875.3
291928.8
291920.9
291861.9
291780.9
291663.7
291498.5
291304.1
291124.4
291006.6
290987.8
291061.1
291181.6
291309.6
291417.7
291488.9
291517.7
291510.4
291482.8
291455.5
291448.9
291471.4
291511.5
291554.5
291599.1
291642.9
291644.7
291585.3
291520.9
291458.7
291474
290959.3
291271.8
291978.4
292115
291853.2
291872.4
291907.7
291906
291873.3
291831.6
291762.9
291650.5
291507.2
291372.1
291285.2
291261.6
291296.8
291362.3
291432.2
291487.3
291515.4
291513.3
291487.4
291452.4
291426.6
291425.5
291448.2
291477.4
291501.3
291525.7
291556.6
291561.3
291528.8
291509.3
291758.5
291599.5
290856.5
291062
291877.6
292221.1
291896.4
291889.7
291888.4
291888.7
291882.7
291876.6
291852.5
291790.7
291696.4
291598.6
291524.8
291488.6
291488.6
291507.9
291529.2
291540.2
291533.1
291506.3
291466.6
291426.8
291402.9
291403.9
291419.4
291431.5
291433.9
291439
291456.5
291467.2
291477.8
291490.7
291815.5
291451.8
290612.3
290794.2
291736
292133
291880.9
291879.9
291868.2
291879.7
291894.1
291909.7
291919.7
291899.9
291843.9
291767.4
291695.3
291647
291620.3
291604.2
291589.1
291568.4
291537.8
291496.5
291450.1
291408.4
291383.7
291379.4
291380.2
291373.1
291359
291354.9
291358.9
291363.3
291390.7
291402.6
291663.2
291249.4
290287.5
291567
291932.3
291811.6
291835.8
291855
291883.1
291907.5
291931
291954.5
291956.2
291924.2
291867
291806
291752.4
291705.3
291662.1
291620.5
291579.4
291536.6
291490.7
291444.1
291401.3
291369.7
291350
291331.4
291308.1
291286.6
291280.8
291275.8
291265.6
291268.2
291258.4
291385.3
291001.4
291177.1
291835.6
291972.5
291829
291885.9
291915
291932.3
291951.8
291969.8
291975.6
291960.6
291927.5
291882.8
291828.2
291766.7
291702.9
291641.8
291588.2
291541.1
291496
291450.4
291402.9
291357.9
291318.1
291282.3
291252.6
291234.6
291229.9
291230.6
291221.6
291187.9
291344.4
291215.1
290549.9
290790.9
291545.2
291953.3
291861.5
291950.9
291983.6
291972
291981.5
291992.2
291991
291979.6
291959.2
291926.1
291875.6
291810.7
291737.3
291665.7
291605.4
291555.9
291508.9
291457.6
291400.2
291341.4
291287.4
291246.3
291221.1
291207.4
291209.7
291239.5
291229.8
291162.9
291275.6
290875.5
290124.7
291528.9
292007.8
292086.3
292010.9
292027.2
292000.3
292000
292007.3
291998
291976.6
291954.7
291927.2
291885
291828.3
291760.2
291691.1
291628.7
291572.9
291516.5
291453.8
291385.6
291319.5
291264.1
291230.5
291210.6
291196.2
291206.1
291252.8
291258.5
291352.7
291297.8
290825.4
291790.4
292199.9
292280
292076.5
292032.8
292011.5
292007.2
291990.9
291958.3
291926.5
291897.5
291862.8
291821.5
291770.4
291713.4
291652.5
291587.4
291517.2
291442.7
291370.6
291308
291263.8
291239.6
291221.4
291213.5
291239.7
291300.1
291521.2
291452.5
291064.1
291234.9
291913.6
292418.8
292387.6
292104.7
292043.9
292017.5
291986.8
291940.9
291902
291869.6
291839.6
291815.6
291785.1
291742.9
291685.3
291613.5
291532.5
291451.7
291384
291330.7
291299.5
291290.9
291282.9
291290.3
291348.7
291639.9
291674.2
291182.7
290510.5
291539
292115.7
292520.2
292407.7
292108.2
292063.9
292015.3
291938.2
291889.9
291862.6
291844.9
291836.3
291821.8
291792
291740.3
291668.4
291584.7
291502.7
291437.3
291392.6
291383.9
291410.1
291417
291435.6
291727.3
291825.4
291428.2
290851.5
291677.4
292151.8
292474.4
292353.4
292083.8
292018.4
291942.5
291894.3
291883.1
291874.1
291862.6
291849.5
291826.5
291783.3
291721.9
291655
291594.5
291540
291498
291506
291535.7
291566.6
291800.5
291886.1
291559
291070.2
291638
292026
292332.1
292226.3
291988.4
291944.3
291935.4
291957.3
291939.9
291891.6
291859.3
291837.6
291806.3
291767.5
291743
291740.7
291715.9
291659.8
291648.7
291662.8
291864.6
291925.9
291586.2
291171.7
291441.2
291999.7
292231.6
292168.2
292177.9
291999.4
292049.8
292040.4
291973.6
291910.1
291889.7
291873.1
291861.9
291894.7
291933.2
291932
291873
292060.2
292030.4
292073.4
291804
291173.8
291869.1
291872.4