/*--------------------------------*- C++ -*----------------------------------*\
  =========                 |
  \\      /  F ield         | OpenFOAM: The Open Source CFD Toolbox
   \\    /   O peration     | Website:  https://openfoam.org
    \\  /    A nd           | Version:  6
     \\/     M anipulation  |
\*---------------------------------------------------------------------------*/
FoamFile
{
    version     2.0;
    format      ascii;
    class       volScalarField;
    location    "50";
    object      p;
}
// * * * * * * * * * * * * * * * * * * * * * * * * * * * * * * * * * * * * * //

dimensions      [1 -1 -2 0 0 0 0];

internalField   nonuniform List<scalar> 
203709
(
306184.2
306023.8
306026.5
306196.1
306394.5
306348.6
306258.4
306146.9
306164.8
306311.9
306430.3
306484.5
306236.9
306301.8
306345.6
306339.4
306440.6
306519.2
306558.8
306559
306514.6
306531.6
306501.2
306400
306252.7
306135.5
306186.7
306383.7
306583.1
306785.3
306939.3
307007.1
306989.9
306898.8
306739.5
306531.5
306420.7
306460.2
306236.6
306085.8
306256.1
306500.9
306768.7
307037.6
307251
307362.3
307364.5
307261.6
307060.8
306796
306542.3
306566.7
306244
306094.8
306044.5
306215.4
306460.6
306762.3
307084.8
307362.1
307535.1
307583.4
307503.8
307307.1
307024.5
306719.5
306577.5
306582.7
306081.9
305891.6
305974.6
306135.3
306368.3
306695.9
307074.5
307404
307619.3
307696.7
307644.7
307471.4
307190.8
306848
306527.6
306492.8
306067.3
305941
305867.5
305978.8
306138.8
306382.8
306728.9
307120.3
307452.6
307677.3
307770.5
307729.3
307568.5
307297
306936
306558.6
306348.1
306287.2
305915.4
305816.1
305930.9
306095.8
306291.6
306553.9
306892.2
307245.1
307532.9
307732.7
307814
307771.7
307605.6
307342.1
306975.5
306564.6
306198.6
306100.2
305984
305906.9
306065.5
306278.8
306519.6
306790.7
307092.2
307392.1
307622.1
307776.4
307824.6
307763.5
307587.1
307321.4
306956.7
306549.4
306187.8
306095.1
306256
306191
306231.6
306458.8
306725.8
307000.5
307262
307501.9
307688.4
307792.1
307794.3
307701
307515
307237.9
306881.2
306511.9
306320.2
306272.3
306457.2
306379
306591.8
306858.7
307125.8
307359.7
307545.4
307678.2
307737.7
307706.6
307589.4
307384.9
307096.9
306758.8
306448.1
306443.8
306652.9
306593.5
306652.8
306889.4
307138.9
307352.6
307508.4
307599.3
307618.4
307558.5
307415.1
307189.8
306898.4
306595.3
306468
306511.1
306707.9
306633.7
306824.8
307045.1
307233.2
307361.6
307421.1
307408.5
307332.8
307172.6
306944.2
306666.3
306410.3
306458.9
306714.8
306667
306724.1
306895.6
307034.2
307124.6
307154.8
307122.3
307041
306893.6
306702
306466.4
306342.7
306388.6
306767
306839.9
306874.4
306825
306854.9
306836.4
306794.8
306742
306642.8
306624.8
306518.7
306384.7
306911.9
306840.2
306722.4
306537.4
306495.4
306594.4
306632.2
306638
306633.7
306438.4
306396.6
306520
302480.9
302538.2
302732.5
302869.2
302923.9
302894.1
302781.2
302589.1
302342.5
302233.1
302484.5
302663.4
302785.2
302891.8
303057.4
303157.2
303185.5
303161.2
303084.9
302938.7
302728
302571.9
302410.4
302196.6
302714.5
302753.7
302962.5
303218
303405.6
303564
303600.2
303560.9
303544.6
303553.3
303482.9
303286.5
303056.1
302758.5
302507.1
302448.7
302809.2
302901.3
303133.7
303429.7
303701.7
303828.4
303805.9
303747.6
303522.2
303518.8
303739
303770.3
303770.7
303608
303291.7
302950.4
302680.3
302581.6
302753.3
302927.9
303208.9
303559
303785.3
303872.9
303906.9
303689.9
303489
303099.9
303113.2
303525.2
303732.2
303945.6
303869
303746.6
303467.6
303064.3
302742.5
302563
302563.6
302822.3
303180.5
303577.2
303753.7
303798.9
303671.9
303545
303188.1
303155.9
303157.4
303193.2
303259.2
303335.1
303696.1
303809.3
303894.3
303769.2
303537.3
303078.3
302674.6
302412.6
302774
303053.4
303483.9
303804.6
303799.8
303428.6
303082.7
303093.5
303168.1
303284.7
303391.3
303456.9
303477.6
303458.1
303423.1
303398.2
303675.6
303961.7
303879.7
303476.9
302972.6
302661.1
302617.6
302924.1
303321.3
303743.5
303851.8
303593.9
302984.9
302920.8
303026.5
303210.7
303423.9
303606
303714.8
303739.7
303681.7
303567.3
303447
303426.7
303895.2
304025.8
303807.5
303281.5
302819.1
302479
302705.6
303037.8
303497.1
303827.3
303780
303315.7
302775.8
302757.6
302899.6
303136.5
303415.3
303668.1
303835.1
303895.2
303847
303711.8
303536.8
303422.7
303761
304055.8
303938.6
303481
302934
302555.7
302919.9
303203.8
303633.1
303753.1
303456
302758.2
302572.4
302588.4
302741.3
303019.4
303358.4
303660.7
303868.3
303957.8
303930.8
303803.3
303607.9
303416.5
303361.6
303803.4
303900.3
303633.4
303102.3
302760.6
303079.8
303318.1
303657.7
303640.2
303198.3
302598.5
302484
302525.7
302699.5
302997.8
303356.7
303670.4
303890.3
303993.8
303978.3
303857.4
303654.4
303420.2
303265.5
303570.7
303819.6
303660
303202.8
302904.6
303170
303383.4
303652.4
303437.2
302793.9
302578.4
302539.2
302617.7
302814.4
303111.3
303437.4
303719.2
303918.3
304011.8
303992.7
303869.5
303664.1
303409.9
303192.5
303145.6
303573.9
303618.6
303239.4
302972.5
303190.5
303417
303700.2
303501.4
302878.4
302702.9
302705.5
302820.6
303023.6
303291.3
303566.3
303795.6
303951.5
304013.7
303975.5
303842.6
303634.4
303381.7
303167.3
303125.3
303559.5
303604.4
303225.8
302960.7
303137.2
303409.8
303789.2
303822.3
303433.6
302933.9
302919
303044.9
303241.3
303468.4
303687
303862.2
303968.2
303989.4
303923.9
303778.1
303568.3
303337.6
303189.3
303513.5
303769.4
303606.5
303152.2
302863.2
303008.1
303337.4
303814.4
304000.6
303784.4
303201.1
303128.7
303231.4
303406.3
303593.6
303759.4
303882
303941.5
303926
303835.6
303676.7
303472.2
303284.8
303239.8
303709.5
303795.2
303531.4
303001.2
302676
302817.2
303197.4
303715.2
304116.8
304150.9
303776.7
303325.6
303357.2
303492
303641.1
303764.1
303841.5
303861.8
303817.6
303707.8
303542.9
303358.7
303247.9
303607.2
303927.6
303785.5
303325.3
302781.8
302425.1
302755.4
303113.1
303574.2
304071.7
304238.9
304043
303497.6
303444.3
303517.7
303615.8
303694.5
303732.6
303723.4
303664.6
303552.7
303405.6
303266.2
303243.8
303741.9
303856.3
303622.6
303092
302631.6
302318.9
303012.2
303353.6
303855.1
304231
304258.6
303942.5
303594.2
303572.3
303575.3
303586.5
303579.4
303551.1
303501
303426.6
303355
303306.2
303585.3
303870.9
303737.8
303308.1
302791.1
302467.8
302833.3
303159.9
303584.8
304038.2
304245.8
304319.1
304196
304057.4
303643.7
303540.2
303454.4
303415.8
303422
303448.8
303785.7
303861.4
303924.4
303762.1
303478.8
302986
302551.2
302243.1
303115.9
303348.3
303682.9
304074.2
304318.3
304413.7
304430.9
304185
303948.9
303484.9
303443
303813.9
303976.7
304157.2
304035.4
303866.1
303551.2
303101.3
302722.2
302460.3
303237.6
303382.4
303654
303968.8
304253.4
304367.8
304324.5
304232
303971
303930.6
304116.6
304104.9
304060.1
303855.3
303498.7
303118.3
302783.9
302589.6
303174.3
303254.8
303486.1
303758.3
303942.1
304087.5
304102.1
304035
303990.6
303975.1
303868.8
303635.1
303362.1
303018.2
302717.8
302585.1
302938.9
303143.5
303288.9
303398.2
303556.5
303645.3
303655.2
303612.6
303519.4
303346.8
303105.9
302908.1
302692.3
302455.9
302908.4
302984.6
303176.2
303302.2
303339.2
303297.5
303179.5
302978.4
302722.7
302607.4
298654.3
298634.1
298748.9
298804.7
298774.4
298660.3
298486.6
298444.5
298561.7
298769.1
299091.7
299158
299217
299326.6
299375.6
299344.8
299236.2
299072.1
298957
298834.1
298473.5
298238.9
298995.1
299026.6
299290.7
299527
299674.8
299835.9
299953
300002.1
299971
299861.3
299688.9
299478.2
299282.9
299009.4
298713.8
298636.8
298608.1
299041.6
299364.9
299556.3
299699.5
299858.9
299827.6
299956.1
300052.4
300090.1
300060.4
299964.7
299814.2
299637.2
299625.2
299427.3
299253.7
299020.5
298668.7
298211.5
298667.4
298967.7
299423.3
299705.6
299862.2
299820.8
299792.5
299556.1
299601.5
299639
299646.4
299620.6
299562.8
299477.3
299386.8
299574.7
299568.2
299582.3
299383.5
299063.8
298580.7
298266.6
298634.4
298985.7
299473.3
299811.2
299966.2
299789.4
299572.5
299609.9
299633.1
299627.3
299594.4
299563.9
299545
299538.4
299533.4
299501.3
299438.2
299363.6
299539.6
299684
299484.6
299111.5
298595.4
298247.9
299081.3
299459.3
299833.3
300038.2
299878.4
299623.9
299657.3
299689.3
299679.5
299624.3
299529.2
299450
299442
299504.2
299575.8
299603.9
299579.4
299510
299436.2
299645.1
299774
299522.2
299114.9
298727.9
299045.3
299431.3
299769
300012.2
299904.4
299661.5
299663.5
299678.7
299670.9
299610.8
299522.3
299422.2
299343.8
299351.6
299441.2
299540.4
299616.7
299647.7
299618.6
299559.5
299510.8
299700.8
299775.5
299490.8
299131.3
298752.5
298618.2
299112.3
299653
299957.4
299862.4
299671.5
299685.9
299653.5
299587.4
299524.2
299453.9
299385.3
299358
299357.7
299387.1
299439.6
299498.7
299571
299619.4
299642.3
299654.6
299634.3
299566
299698.8
299761.3
299418.5
298862.8
298385.4
298843.8
299401.7
299827.2
299936.8
299666.7
299722.6
299713.2
299592.3
299429.3
299326.1
299306.7
299340.4
299411.1
299486
299544.6
299578.8
299586.3
299582.4
299584.8
299633.8
299723.8
299771.4
299712.8
299590.8
299805.6
299637.3
299184.1
298631.6
299191.7
299664.5
300014.2
299933.2
299720.7
299758.4
299684.1
299478.6
299252.7
299165.7
299199.3
299311.8
299466.3
299612.2
299711.3
299751.4
299732.8
299680.7
299630.8
299637
299744.5
299835
299809.2
299687.6
299822.9
299837.7
299454.2
298977.9
298721.6
299297.7
299850.2
300008.7
299711.7
299744.3
299721.4
299549.1
299276.8
299035.6
298955.4
299012.2
299172.1
299390.7
299606
299761.8
299835.4
299825.4
299753.7
299660.4
299610.3
299671.6
299774.6
299807.4
299726.1
299610.5
299830.3
299628.7
299053
298460.7
298739.3
299389.2
300041.1
300161.2
299769.9
299729.8
299620.6
299360.1
299025.8
298796.4
298717.2
298781.2
298985.7
299267.6
299536.8
299735.1
299838.6
299846.7
299778.1
299666.8
299568.3
299556.6
299655.4
299736.6
299715.7
299661.2
299971.1
299805.3
299124.4
298467.9
298886.2
299527.2
300185.9
300285.3
299828.9
299699.2
299493.5
299190
298863.7
298657.4
298587.1
298664.9
298895.1
299210.2
299500.7
299717
299836.3
299856
299790.4
299668.2
299537.2
299468.7
299521.8
299622
299677.4
299702.8
300079.6
299938.5
299251.4
298601.9
298968.2
299604.8
300267.9
300359.2
299873.4
299699.9
299430.8
299103.1
298832.7
298669.9
298624.7
298723.5
298956.9
299252.6
299522.8
299724
299835
299850.7
299782.2
299654
299506.5
299402.8
299410.5
299529
299647
299718.8
300133
300006.8
299322.5
298681.1
298961.4
299604.8
300275.5
300375
299900.8
299739.6
299487.1
299180.3
298942.5
298817.2
298804.9
298916.5
299129.2
299374.7
299594.9
299755.2
299836.4
299833.2
299754.6
299622.8
299476
299375.1
299387.1
299509.9
299629.6
299701.9
300119
299992.3
299310.2
298671.9
298876.3
299529.7
300207.9
300330.8
299906.5
299809.5
299647.3
299398.4
299155.3
299040.2
299045.8
299152.4
299326.3
299514.5
299677.1
299787.2
299829.3
299800
299708.3
299576.7
299447.2
299385.3
299451.5
299559.9
299617.8
299644.4
300031.9
299889.7
299207.8
298567.4
298741
299399.5
300077.5
300233.5
299889.1
299892.3
299836.4
299646.5
299407.1
299279.5
299279
299364.9
299494.4
299627.6
299735.2
299796.9
299801.2
299747.1
299644.7
299520.3
299422.4
299418.2
299531.9
299618.1
299599.7
299546.8
299877.8
299709.3
299033.7
298391
298730.4
299315.9
299903.5
300105.2
299865
299948.1
299977.4
299871.4
299675.3
299508.1
299471.6
299520.9
299605.7
299690
299750
299771.1
299746
299675
299570.7
299464.3
299413
299484
299598.9
299632.5
299549.7
299436.6
299687.4
299473.2
298897.4
298330
299239.6
299746.7
300143
300119.7
299966.7
300057.9
300037.9
299888.2
299706.6
299627
299629
299664.3
299701
299719.3
299710
299668.9
299596.9
299507.9
299431.9
299425.8
299537.6
299625.8
299594.6
299468.8
299614.1
299656.9
299242.4
298751.2
298912.2
299506.1
299980.9
300160.9
299961.1
300077.8
300117.6
300038.3
299904.4
299796
299743.3
299711.1
299690.2
299665.9
299636
299598
299550.4
299505.4
299475.4
299501.2
299573.2
299592.6
299510.2
299374.3
299591.2
299408.4
298936.1
298361.7
298695.2
299238.7
299840.4
300214
300192.3
300067.9
300131.8
300132.8
300087
300023
299931.2
299812.2
299717.4
299639.3
299596.6
299586.4
299592.6
299621.9
299629.6
299616.3
299590.8
299530.1
299431.9
299556.2
299592.5
299199.7
298610.1
298086.5
299198.1
299642.5
300048.6
300367
300318.5
300126.9
300164.3
300198.6
300193.9
300116.8
299993
299844.2
299703.3
299653
299690.4
299742.4
299772.7
299754.7
299681.2
299578.4
299488.2
299654.3
299691.8
299360.5
298956
298516.9
299317.6
299757.1
300195.9
300466
300355.4
300132.5
300182.6
300219.5
300197
300115
299982.3
299859.4
299807.7
299827
299854.1
299836.3
299762.8
299647
299528.6
299705.2
299786.7
299481.9
299040.2
298613.8
298872
299287.4
299842.7
300235.1
300438.8
300289.8
300085.5
300126.2
300140.4
300115.2
300055.7
299994
299943.3
299904.4
299861.7
299787.3
299677.6
299558.9
299696.5
299801.5
299551.4
299132.6
298579.6
298170.9
298968.1
299325.4
299828.3
300151.6
300344
300315.2
300286.4
300040.4
300073.4
300095.4
300082.6
300035
299953.3
299836.8
299712.5
299872.5
299828.9
299797.1
299552.5
299197.7
298672.7
298320.4
298928.2
299397.4
299770.1
299991.7
300144.3
300317
300288
300413.7
300503.7
300527.9
300486.5
300380.1
300210.5
300009.8
299971
299730.5
299525
299281.4
298897
298415.9
299339.4
299412.4
299687.3
299934
300087.8
300252
300369.7
300409.7
300378.2
300273.2
300093.4
299873.3
299677.1
299392.2
299088
299074.4
298898.7
299115.6
299442.5
299529.6
299602.9
299722.8
299777
299759.4
299665.4
299505.3
299393.8
299301.2
298979.5
298816.7
299004.6
298996.2
299128.8
299209.2
299206.3
299116.2
298979.3
299029.8
294909.3
294800.9
294824.4
294804.4
294731.2
294791.3
294707
294955.2
295350.4
295626.9
295530.6
295491.5
295514.2
295490.1
295416.6
295398.8
295431.3
295129.5
294709.7
294442.3
294600.4
295093.7
295344.2
295561.8
295791.7
295936.9
295807.9
295836.1
295854.4
295826.7
295754.4
295670.5
295746.1
295566
295315.2
295079.9
294808.6
294321.9
295050.8
295312.6
295599.4
295804.6
295850.8
295983.3
295956.1
295689.9
295699.9
295708.4
295677.9
295610.4
295545.5
295763.7
295755.3
295594.3
295529.9
295303.7
295002.4
294725.3
295361.7
295569.4
295819.7
296033.9
295846.4
295624.9
295663.3
295705.9
295743.4
295784.7
295799.2
295766.9
295690.5
295592.9
295507.9
295428
295360.4
295556.2
295720.9
295489.2
295216.8
294993.5
295444.8
295644.8
295904.6
295991.9
295986
295666.6
295638.2
295640.7
295659.6
295703.7
295742.6
295751.9
295719.5
295648
295552.9
295461.3
295404.7
295371.8
295372.6
295661
295646.1
295535.5
295264.1
295062.3
295387.2
295661.5
295892.8
295848.4
295698.3
295695.6
295653.3
295631.2
295619.3
295608.8
295623.7
295635
295628.3
295598.5
295548.3
295484.6
295423.5
295393.8
295374.9
295369.6
295381.5
295355.2
295474.8
295503.2
295273.6
295007.7
295093.3
295611.9
295946.9
295871.9
295697.5
295710.5
295695.6
295645.1
295614.3
295611.1
295606.7
295595.1
295572.7
295547.1
295523.6
295503.7
295482.7
295453.5
295419.9
295390.3
295389.4
295409.5
295392.5
295346.5
295489.1
295560.2
295235
294732
294651.2
295373.2
295887.1
296053.2
295743.1
295735
295732.5
295689.3
295642.3
295629.3
295624.1
295605.4
295569.2
295520.8
295480.5
295467.1
295480.3
295499.4
295504.5
295489.9
295461.6
295440.4
295452.1
295462.1
295430
295408.4
295700.6
295538
295029.1
294314
295140
295671.6
296118.5
296064.9
295764.1
295745.2
295715.1
295671.8
295643.5
295624.7
295601.5
295563.7
295516.2
295468.4
295435.8
295437
295469.1
295508.1
295537.6
295548
295537.5
295519.8
295509.9
295513.2
295507.5
295497
295769.6
295818.1
295366.9
294833.4
294722.7
295409.4
295902.2
295950.2
295771.5
295748.9
295720.5
295693.7
295669.6
295628.4
295575.3
295526.6
295484.9
295454.3
295443
295448.3
295470
295501.7
295533.5
295562.7
295582.2
295593.8
295602.4
295600.1
295580.6
295564
295557.8
295551.8
295705.1
295647.6
295136.5
294467.1
294985.3
295643.5
295963.4
295751.5
295769.9
295751.6
295715.5
295706.7
295672
295588.8
295489.6
295420.8
295398.2
295416
295463.8
295520.1
295570.9
295605.7
295619.5
295622.3
295626
295646.2
295682.2
295702.6
295682.9
295640.2
295628.2
295602.2
295547.5
295733.1
295397
294743.4
295394.3
295882.6
296113
295813.6
295799.6
295767
295737.1
295718.8
295645.4
295509.8
295369.2
295290.1
295288.7
295354.4
295465.1
295582.8
295672
295719.3
295723.9
295705.4
295685.6
295688.3
295726.1
295759.3
295749.3
295702.5
295672.3
295649.5
295619.2
295882.2
295622.8
295131.8
295668.6
296040.6
296106.3
295884.6
295846.1
295780.6
295746.1
295690.9
295556.5
295361.1
295178.1
295077
295077.7
295174.6
295339
295517.2
295659.9
295743.1
295763
295736.4
295692.2
295667.6
295688.6
295729.4
295744.8
295718.8
295687.3
295692.3
295681.8
295860.3
295759.9
295388.9
294904.3
295596.2
295936.2
295869.1
295953.2
295919.8
295818.1
295738.6
295622.7
295424.6
295170.8
294944
294811.5
294804.7
294934.4
295155.5
295391.2
295579.1
295695
295735.7
295717.1
295666.6
295620.2
295615.8
295655.7
295695.9
295705.7
295710
295750.3
295737.5
295615
295647.2
295290.2
294556.2
294828.6
295586.8
295995.9
295910
296027.2
295992
295857.1
295727.4
295553.1
295309.4
295028.6
294786.4
294638.7
294627.8
294783.1
295045.8
295309.5
295521.1
295656.2
295710.6
295697.2
295641.1
295578.3
295549.8
295576.9
295632.2
295680.2
295728
295803.8
295799
295647.2
295697.7
295260.5
294469.7
294877.5
295633.6
296040.1
295948.8
296076.8
296040.6
295889.5
295734.7
295530.1
295270.7
294999.8
294772.5
294634
294635.5
294793.4
295049.3
295302
295504.3
295634.1
295686.1
295670.7
295610.7
295539.4
295497.1
295513.9
295580
295655.2
295730.4
295829.2
295834.4
295679.2
295740.2
295302.3
294514.1
294863.4
295622
296032.3
295948.8
296083.3
296054.6
295912.6
295768.5
295578.1
295337.6
295094
294898.6
294789.6
294809.3
294954.8
295164.2
295369.7
295533
295634
295667.3
295641.3
295576.9
295505.6
295465.5
295485.6
295554.8
295631.8
295708.4
295809.7
295817.8
295666
295732.1
295295.8
294508.5
294805.6
295565.3
295982
295912.8
296047.2
296033.4
295923.8
295823.1
295684.7
295489.8
295278.4
295114.9
295035.1
295060
295173.8
295325.6
295472
295584.1
295645.2
295651
295609.9
295542
295478.5
295455.1
295490.6
295552.4
295604.4
295655.7
295739.5
295742.9
295599.8
295664.6
295229.7
294443.3
294886.3
295577.2
295926.9
295878.4
295988.6
295987.9
295924.1
295884.3
295812.3
295673
295498.4
295359.7
295297.2
295312.4
295386
295482.3
295571.5
295632.5
295653.3
295631.6
295576.5
295508.8
295459.1
295458.6
295506
295551.2
295565.1
295574.5
295629
295627.9
295516.1
295569
295208
294490
295656.3
296036.7
296120.3
295937.1
295940.4
295922.8
295934.8
295923.4
295844.9
295714.9
295593
295529
295522.5
295555.5
295602.7
295642.5
295660.3
295648.3
295606.2
295543.8
295481.9
295450.6
295471.7
295515.2
295532.4
295508.4
295482.5
295506.8
295507.9
295696.3
295618.2
295226.8
295373
295878
296138.9
295886
295921.9
295946.3
295972.2
296003.1
295980.2
295895.1
295788.6
295712.8
295679.4
295674.1
295678.4
295677.6
295663.2
295630.9
295580.9
295521.9
295471.1
295454.2
295481.2
295505.7
295489.4
295439.6
295415.2
295407.6
295380.1
295649.2
295389.8
294888.7
294964.3
295642.7
296004.4
295844.9
295919.2
295966.3
295996.6
296047.2
296062.4
296019
295939.5
295863.1
295806.5
295762.5
295725.9
295690.4
295654.5
295616
295572.8
295529.9
295493.1
295477.7
295482.2
295471.9
295427.1
295368.9
295353.9
295322.8
295262.5
295447.2
295087.9
294409.8
294714
295425.7
295960.9
296065.9
295946.8
295991.6
296033.3
296069.7
296094.4
296085.4
296048.4
295996.3
295929.3
295851.4
295776.1
295708.7
295659.5
295627.2
295601.8
295579.1
295547.8
295511.5
295474.5
295427.6
295373.7
295335.3
295311.3
295280
295416.4
295336.5
294802.2
294092.2
295183.9
295750.8
296257.8
296265.4
296031.1
296078.2
296107.3
296110.9
296113.7
296110.7
296086.7
296028.9
295944.8
295847.6
295757.6
295700.9
295677.2
295661.4
295636.1
295589.5
295525.2
295454.7
295396.1
295363.1
295330.3
295293.5
295545.6
295554.7
295061.8
294507.3
294702.8
295471.3
296036.3
296269.1
296026.9
296081
296134.4
296131.8
296109.5
296108.6
296102.2
296066.8
296001.3
295913.7
295828.9
295769.7
295736.2
295705.7
295657.7
295586
295503.2
295428.4
295394.1
295365.6
295302.3
295259.9
295524.2
295304.6
294755.2
293996.4
295209.5
295783.2
296179.6
296167
296048.7
296108.8
296126
296092.5
296066.9
296058.8
296039.5
296004.8
295952.2
295893.5
295835.7
295779.2
295716.2
295639.8
295554.4
295474.3
295423.9
295402
295348.8
295278.4
295406
295433
295053.3
294485.4
295569.8
295902.7
296197.2
296198.8
296082.7
296101.8
296073.1
296051.4
296029.3
296004.4
296002
295992.1
295961.8
295907.4
295830
295733.9
295634.5
295562.1
295500.6
295454.3
295432
295377.1
295479.4
295473.3
295197
294878.9
295684
295936.6
296244.9
296361.2
296370.7
296053.1
296020.6
296015.9
296023.8
296057.4
296082.5
296075.5
296027.2
295938.8
295821
295700.7
295610.1
295545.8
295527.5
295808.1
295760.2
295621.3
295321.4
295080.6
295646
295889.3
296159.9
296398.1
296211.5
295978.9
296008.8
296043.1
296074.6
296108.4
296113.5
296074.8
295993.5
295886.8
295788.4
295692.5
295614.4
295817.2
295975
295719.4
295439.2
295206.7
295374
295650.9
295941.3
296156.8
296200.3
296326.9
296293.6
296016.7
296025.8
296036.3
296010.5
295948.7
295891.6
296128.9
296127.2
295973.4
295923.8
295719.7
295412.3
295182.9
294958.2
295434.9
295690.3
295914.7
296144.6
296286.6
296157.6
296198.1
296236.3
296226.1
296165.7
296104.9
296226.5
296084.6
295865
295665.3
295442.3
295002.3
295086.4
295327.5
295731
296005.6
295917.6
295901.1
295961
295966.5
295915.7
295938.7
296059.3
295835
295518.5
295375.7
295381.5
295290
295369
295392.1
295370.2
295547.2
290890.3
291140
291335.3
291400.7
291453.4
291439.8
291340.1
291221
291001.8
290735.4
290800.8
291197.3
291608
291773.3
291902.2
291988.1
291812.4
291811
291790.5
291741
291867.6
291755.3
291608.1
291403.7
290988.6
290612.2
291482.8
291501.6
291804.4
291915.7
292110.8
292189.7
292074.4
291704.4
291659
291633.8
291626.5
291944.6
292027.5
291927.2
291706
291584.4
291298.3
291277.2
291102.3
291674.4
291905
291860.3
291891.8
291732.9
291798.9
291804.3
291746.2
291685.2
291656.6
291627.9
291599.9
291608.3
291627.5
291595.6
291510.9
291656.8
291618.9
291659.2
291425.7
290860.2
291374.9
291750.1
292040
291934.9
291716.9
291689.9
291698.4
291740.3
291739.8
291702.7
291679.4
291661.1
291629
291585.9
291554.4
291549.2
291519.5
291456.7
291432.7
291446.6
291650.8
291750.4
291466.2
291078.8
291483.7
291927
292220.8
292081.2
291814.4
291754.2
291693.1
291662.1
291671.3
291679.9
291681
291681.2
291669.5
291634.8
291580.8
291523
291476.1
291433.7
291400.4
291411.8
291457.5
291502.7
291758.2
291895.2
291613.9
291171.2
291408.8
291944.8
292306.8
292163.2
291843
291787.8
291740.3
291671.5
291637
291628.5
291629.5
291636.4
291638.8
291625.4
291589.4
291535
291473.9
291419.9
291383.3
291365.4
291377.1
291426
291457.2
291500.6
291815.2
291967.9
291625.1
291089
291168.1
291802.1
292259.7
292184.4
291864.7
291773.5
291725.7
291687.1
291641.6
291611.8
291595.6
291584.7
291579.7
291570.8
291550.4
291515.6
291471
291424
291382.3
291356
291344.3
291350.1
291372.6
291391.4
291424.8
291510.8
291830.3
291919.5
291473.3
290831.6
291743.5
292106.9
292139.1
291887.5
291797.3
291734.5
291697
291660.9
291620.4
291591.3
291574
291558.2
291540.3
291517.2
291490
291460.5
291431.8
291405.2
291380.2
291359.7
291348.1
291351.6
291367.4
291380.9
291399.6
291452
291543.5
291797.7
291771.9
291407.9
291557.9
291988.9
292014.5
291889.7
291853
291772.4
291721.6
291685.7
291645.3
291607.2
291581.8
291562.4
291539.9
291511.9
291479.9
291450.8
291430.4
291420
291414.1
291407
291397
291387.7
291386
291396.6
291411.1
291425.1
291462.8
291540.4
291578
291692.3
291652.7
291204.5
290877.6
291585.7
291947.8
291806.7
291845
291823.8
291756.7
291711
291672.2
291632.8
291598.3
291568.9
291541.3
291512.1
291482.3
291455.2
291436
291429.6
291434.4
291443.1
291449.6
291451.2
291449.3
291449
291454.1
291464.8
291478.8
291508.2
291564.6
291577.6
291527.7
291646.7
291268.7
290537.2
291248
291868.9
291974
291788.5
291797.6
291775
291735.6
291697.7
291663.3
291627.2
291585.3
291539.9
291499.7
291469.4
291451.6
291447.4
291453.6
291467.6
291483.6
291496.9
291506.9
291513.9
291520.3
291528.9
291535.8
291539.1
291546.3
291561.9
291581.4
291584.7
291555.8
291714.9
291606.5
290962
291639
291980.5
291825.9
291811.3
291785.5
291764.2
291733.2
291699
291668.5
291626.2
291562.6
291490.9
291436.8
291412.9
291421.1
291455.1
291499.2
291542
291573
291586.2
291589.5
291591.4
291599.7
291615.5
291628.5
291629
291621.6
291621
291618.6
291607.4
291604.5
291594.9
291730
291381.5
290900.1
291814.8
292183.7
291898.8
291866.7
291816.1
291782.6
291747.3
291712.6
291676
291612
291511.5
291406.1
291333.1
291312.2
291347.2
291426.7
291522.7
291603
291652.2
291667.7
291665.5
291658.9
291658.4
291671.2
291684.8
291685.3
291672.4
291661.5
291652.8
291643.4
291657.8
291660.4
291918.5
291544.9
290640.2
291147.8
291939.6
292259.9
291911.2
291882.5
291850
291813.9
291767.4
291721.4
291661.4
291555.8
291402.7
291246.9
291136.2
291100.3
291149.6
291269.6
291416
291546
291633.6
291672.3
291673.4
291656.9
291645.9
291654
291671.9
291684
291682.8
291678.6
291679
291670.9
291664.7
291659.3
291981.7
291628.3
290817.9
291324.8
292014.8
292144.7
291867.3
291868.5
291880.6
291853.3
291792.8
291720.8
291619.6
291463.2
291251.9
291033.1
290870.3
290811
290876.4
291042.8
291248
291425.2
291549.6
291614.6
291631.3
291620
291603.5
291604
291624.1
291650
291669.1
291685.8
291702.5
291690.5
291641.3
291602.9
291849.4
291677.5
290955.7
291398.8
291856
291800.4
291833.9
291875.7
291914.9
291892.1
291817.7
291719
291579.8
291380.8
291129.3
290874.4
290676.9
290594.5
290679.8
290890.7
291128.6
291335.5
291483.7
291566.5
291593.1
291583.3
291562.1
291554.9
291573.4
291609.3
291648.4
291687.9
291722.8
291712.8
291640.3
291561.9
291492.4
291500.7
290999.5
291468.4
291876.1
291777.8
291831.9
291889.1
291940.6
291920.8
291840.2
291729.2
291573.4
291360
291102.9
290845.6
290643.2
290562.8
290649.8
290862.9
291097.2
291300
291446.6
291529.4
291556.2
291545.6
291522.1
291511.3
291529.4
291572.6
291625.4
291680.3
291728.2
291723.9
291647.1
291559
291468.8
291517.8
291055.5
291449.7
291862.8
291769.4
291827.5
291890.1
291947
291933.2
291859.5
291757.3
291613.3
291416.5
291183
290953.2
290778.5
290719.4
290799.5
290973.3
291163.7
291329.1
291447.4
291511.2
291526.6
291510.5
291485.7
291476.2
291496.7
291542.3
291597.1
291654.1
291705.2
291705.3
291633.5
291550.5
291463.1
291513.7
291045.6
291364
291830
291781.8
291824.7
291880.4
291934.7
291929
291874.3
291799.7
291690.8
291533.4
291341.7
291155.4
291019.3
290979.1
291038.4
291156.2
291286.5
291398.9
291475
291508.5
291505.1
291480.3
291455.1
291450
291473.4
291514.2
291557.9
291603.1
291647.3
291649.3
291590
291525.6
291463
291477.6
290961.8
291281.4
291986.9
292122.7
291859.9
291878.8
291914.6
291914.5
291884.7
291847.2
291783.7
291675.6
291532.8
291392
291292.5
291256.8
291285
291348.9
291420.7
291479.2
291511.3
291512.6
291489.3
291455.8
291430.7
291429.6
291452
291480.9
291504.6
291529
291560.2
291565.2
291533
291513.9
291763.2
291604.1
290860.9
291072.4
291887.3
292229.9
291904.6
291897.7
291896.9
291898.5
291894.3
291891
291870.3
291811.4
291717.3
291616.5
291537.9
291495.9
291491.9
291509.9
291532
291544.9
291539.9
291514.8
291475.9
291436.3
291411.6
291411.4
291425.3
291436.2
291437.7
291442.3
291459.8
291470.7
291481.7
291495.2
291820.5
291457.3
290617.8
290805.5
291746.8
292143.1
291890.6
291889.8
291878.7
291891.4
291907.7
291926.2
291939.2
291922.2
291868.7
291793.8
291720.9
291668.6
291638.5
291620.8
291605.2
291584.8
291554.5
291513.1
291466
291423.1
291396.6
291390.1
291388.6
291379.4
291364
291359.1
291362.8
291367.3
291395.2
291407.7
291668.8
291255.6
290293.6
291578.8
291943.6
291822.9
291847.4
291867.5
291897.1
291924.1
291950.7
291978
291984.3
291957.1
291902.3
291840
291783.7
291734.4
291689.5
291646.7
291604.6
291560.9
291513.6
291465.3
291420.3
291386.2
291363.7
291342.3
291316.9
291293.8
291286.9
291281.4
291271.3
291274.2
291264.9
291392.1
291008.8
291190
291848.2
291985.2
291842.3
291900.3
291931
291951.2
291974.3
291996.8
292007.2
291995.7
291964.4
291919.9
291864.6
291801.9
291736.8
291674.3
291619.1
291570.3
291523.3
291475.4
291425.4
291377.5
291334.7
291296.2
291264.3
291244.8
291238.7
291238.8
291229.7
291196.2
291353.1
291223.8
290559.1
290804.9
291559.1
291967.3
291876.2
291966.8
292001.3
291992.6
292005.6
292020.2
292022.9
292014.8
291996.7
291964.8
291914.5
291849.1
291774.6
291701.5
291639.5
291588.1
291539
291485.3
291425.2
291363.6
291306.9
291263.2
291235.8
291220.5
291221.8
291251
291241.1
291174.5
291287.2
290887.1
290135.9
291543.5
292023
292102.2
292028.1
292046.4
292022.1
292025.2
292036.2
292030.5
292012.1
291992.6
291966.5
291924.7
291867.7
291798.6
291728.1
291664.1
291606.6
291548.2
291483.2
291412.7
291344
291286.3
291250.7
291228.7
291212.4
291221.5
291267.8
291273.5
291368.1
291313
290840
291806.7
292216.9
292298.3
292096.7
292055.6
292037.4
292036.5
292023.4
291993.7
291963.8
291936.1
291901.8
291860.3
291808.3
291750.2
291688
291621.5
291549.6
291473.2
291399
291334.5
291288.4
291262.7
291242.9
291233.5
291258.8
291318.7
291540.1
291471.1
291082.7
291251.7
291931.4
292438
292408.5
292128
292069.9
292046.3
292018.4
291974.9
291937.8
291906.4
291876.8
291852.7
291821.7
291778.8
291720.2
291647.3
291564.9
291482.6
291413.5
291358.8
291326.5
291316.9
291307.9
291314
291371.7
291662.7
291696.7
291205.1
290532.4
291557
292135
292541.4
292430.9
292133.7
292091.7
292045.3
291970.1
291923.2
291896.8
291879.6
291871.2
291856.5
291826.4
291774.1
291701.4
291616.7
291533.6
291467.3
291422
291412.9
291439.1
291445.9
291463.6
291755.2
291852.6
291455.3
290877.9
291696.2
292172.1
292496.9
292377.6
292109.8
292046.3
291971.8
291924.9
291914.7
291906.2
291895.1
291882.2
291859
291815.5
291753.6
291686.1
291625
291570.2
291528.3
291536.9
291567.9
291600
291833.7
291919.7
291592.8
291103.2
291657
292046.5
292354.5
292250
292013.9
291971.1
291963.3
291986.1
291969.4
291921.5
291889.5
291867.9
291836.5
291797.5
291772.7
291770.4
291745.9
291690.9
291681.4
291698.6
291902.9
291967
291629.5
291214.7
291459.9
292019.8
292253.3
292191.2
292202
292024.7
292075.9
292067.2
292000.8
291937.7
291917.5
291901
291889.9
291922.8
291961.6
291961.3
291904.3
292094.9
292069.5
292117.6
291856.8
291230.3
291888.5
291893
292167.4
292265.5
292457.3
292522.6