/*--------------------------------*- C++ -*----------------------------------*\
  =========                 |
  \\      /  F ield         | OpenFOAM: The Open Source CFD Toolbox
   \\    /   O peration     | Website:  https://openfoam.org
    \\  /    A nd           | Version:  6
     \\/     M anipulation  |
\*---------------------------------------------------------------------------*/
FoamFile
{
    version     2.0;
    format      ascii;
    class       volScalarField;
    location    "50";
    object      p_rgh;
}
// * * * * * * * * * * * * * * * * * * * * * * * * * * * * * * * * * * * * * //

dimensions      [1 -1 -2 0 0 0 0];

internalField   nonuniform List<scalar> 
203709
(
122177
122209.1
122227.9
122226.9
122102.6
122132.4
122185
122228
122258.2
122273
122281.2
122258
122063.8
122050.1
122076.6
122106.5
122169.8
122236.3
122285
122313.4
122330
122319.1
122310.2
122274.2
122059.2
122001.2
121966.7
121978.9
122036.6
122138.8
122241.4
122316.2
122367.1
122395.6
122390.4
122371.3
122338.7
122305.9
121928.6
121821.9
121763.7
121770.9
121858.7
122006.8
122160.2
122280.8
122366
122409.3
122413.8
122398.4
122370.9
122337.6
121852.7
121725.3
121545.6
121432.4
121424.7
121544.9
121756.4
121976
122157
122284.8
122354.9
122380.8
122378.9
122360.4
122333.9
122296.9
121750.6
121533
121305
121134.1
121115.9
121276.2
121541.2
121812.2
122034.1
122186.4
122274.6
122315.6
122324.2
122311.8
122288.1
122259
121921.5
121739.5
121471.5
121218.3
121031.5
121012.2
121178.9
121440.4
121713.9
121950.3
122121.3
122223.1
122270
122281.5
122269.3
122245
122212.4
122190.7
121950.1
121766.3
121535
121310.1
121159.6
121152.7
121282.5
121494.9
121721.5
121930.9
122088.2
122193.4
122241.1
122255.1
122242.3
122216.1
122186.9
122166.7
122022.2
121868.2
121688.1
121516.2
121407.9
121404.6
121490
121645.9
121811.2
121971
122092.9
122179.9
122219.2
122232.7
122220.4
122194.2
122166.1
122147.9
122121.6
122018.2
121886.5
121767.5
121694.2
121691.4
121743.2
121838.6
121951.2
122054.9
122131.4
122183.1
122206.8
122210.8
122195.8
122170.5
122147.8
122140.2
122168.8
122094.8
122022.6
121975.3
121968
121994.4
122038.3
122091.3
122143.7
122180.6
122198.4
122200.7
122190.2
122169.5
122145.6
122140
122304.8
122294.7
122253.4
122222.2
122207.5
122208.5
122216.4
122225.4
122230.7
122227.7
122215.1
122195.8
122170.1
122141.9
122121.8
122128.6
122445.3
122438.9
122412.1
122385.6
122364.1
122339.9
122315.9
122285.8
122260.7
122227.5
122193.5
122157.4
122123.8
122114.8
122526.5
122549.5
122518
122488
122454.6
122414.3
122373.1
122324.4
122283.3
122239.5
122199.8
122153
122115.3
122103.4
122530.6
122527.4
122527.1
122488.1
122448.8
122399.5
122345.6
122300.2
122248.8
122203.2
122118.8
122068
122466.6
122459
122446.8
122399
122348.9
122295.5
122210.9
122152.4
122357.3
122338.8
122293
122237.9
122188.8
122205.2
122210.9
122212.1
122205.8
122192.1
122173.7
122153.3
122133.2
122103.4
122131.2
122166.8
122191
122202.9
122209.3
122213
122210.7
122202.6
122190.1
122172.8
122153.7
122124.3
122087.1
122047.5
122116.4
122146.3
122167.5
122179.5
122188.1
122197.1
122209.1
122216.8
122217.6
122213.1
122197.7
122180.2
122156.3
122126
122085.3
122047.3
122110.8
122140.4
122150.4
122154.2
122157.2
122167.3
122182.7
122205
122230
122244.8
122249.9
122234.6
122223.1
122197
122167.8
122130.8
122088.5
122060.7
122126.4
122153.9
122157.6
122147.6
122135.8
122131.7
122141.9
122166.4
122195.4
122231.4
122261.5
122284.7
122292.4
122286.6
122251.2
122227.6
122187.6
122145.3
122107.2
122086.2
122151.9
122181.1
122182.9
122159.5
122138.4
122106.8
122092.5
122100.2
122125.4
122177.8
122240.8
122289.5
122322.9
122341.7
122343.7
122331.4
122297.5
122248.4
122209.8
122169.3
122132.7
122117.3
122198.8
122211
122182.7
122138.7
122092.5
122031.5
121991.2
122000.2
122058.8
122152.8
122249.8
122323.5
122377.8
122406.3
122406.2
122390.2
122354.5
122313.8
122262.4
122216.4
122175.2
122150.1
122177.3
122223.5
122212.2
122147.3
122063.1
121962.8
121853.2
121797
121804.2
121888.1
122025.7
122172
122291.3
122378
122420.2
122430.6
122420.3
122387.5
122340.9
122295.1
122253.7
122213.3
122182.1
122147.1
122191.9
122208.9
122175.9
122080.3
121926.1
121778.3
121590.7
121481.3
121471.3
121581.8
121777.9
121988.7
122167
122295.1
122366.5
122395.4
122393.6
122371.9
122339.8
122298.7
122261.3
122224.3
122191.5
122162.9
122192.4
122183.9
122127.6
122010.5
121817.4
121572.5
121337.8
121176.6
121154.6
121296.8
121546.8
121805.7
122023.4
122178.9
122272.1
122317.3
122328.1
122315.5
122289.8
122255.4
122226.1
122196.6
122169.7
122149.7
122196.6
122173.5
122096.8
121948.1
121772.1
121491.6
121225.8
121038.2
121014.6
121168.9
121420
121687.5
121921.5
122095.5
122204.6
122259.2
122274.4
122264.3
122241.5
122211.7
122185.5
122156.7
122133.2
122118.7
122211.3
122184.6
122110
121972.5
121779.4
121535.9
121291.7
121126.3
121108.1
121234
121440.4
121669.4
121880.8
122046.8
122158.1
122216.7
122235.5
122226.4
122202
122172.3
122147.3
122118.9
122098
122084.7
122237.8
122218.6
122154.6
122036.6
121870.2
121675.1
121481
121352.8
121334.6
121422.4
121574.1
121746.6
121910.2
122041.9
122133.6
122183.5
122200.3
122191.7
122167.6
122139.1
122116.6
122085.5
122063.6
122050.9
122271.4
122267.8
122222.7
122133.3
122024.7
121867.6
121726.2
121634.4
121617.4
121669.5
121766.2
121880.2
121988.2
122073.9
122131.7
122161
122166.7
122153.7
122128.9
122106.6
122085.2
122047.3
122024
122014.5
122307.4
122322.2
122301.3
122254.7
122170.7
122072.9
121982.1
121919.7
121901.7
121923.9
121971.7
122029.3
122083.1
122122.5
122143.6
122147.1
122136.3
122114.4
122087.7
122074.9
122029.2
122000.6
121975.7
121969.2
122334.5
122371
122378.5
122362.1
122321
122290.7
122221.4
122176.3
122153.5
122149.5
122156.1
122165.6
122171.9
122170.1
122158.2
122137
122109.4
122078.2
122058.4
122043.9
121980
121942.6
121919.5
121916.1
122343.8
122407.3
122442.4
122458.6
122455.1
122442.4
122415.1
122377.9
122343.8
122315.6
122289.2
122263.1
122235.2
122204.9
122169.2
122129.1
122088.9
122050.8
122040
121976.2
121925.2
121885.9
121866.8
121868.2
122427
122486.2
122528
122550.6
122542.5
122541.6
122493.5
122452.9
122409.5
122365.2
122320.8
122274.7
122227.1
122178.4
122128.6
122084.1
122054.9
122029
121931.5
121870.1
121826.8
121806.2
122404.8
122479.6
122534.6
122562.7
122563.4
122550.9
122530.5
122509.8
122449.9
122401.3
122349.4
122297
122241.9
122191.5
122153.8
122101.4
122055.2
121968.8
121891.9
121830.6
121776.7
121747.2
122433.8
122496.9
122533.5
122547.7
122540.2
122525.2
122497.3
122465
122428.5
122361.4
122310.1
122264.5
122213.4
122166.6
122075
122008.6
121937.9
121861.7
121782.5
121696.8
122438.6
122491.5
122515.4
122514.4
122504.3
122475.2
122438.5
122401.2
122361.4
122316
122270.7
122192.9
122131.2
122058.1
121985.6
121911
121819.9
121718.9
122422.6
122459.6
122468.5
122461.2
122436.1
122407.4
122372.6
122332.1
122287.1
122241.7
122180.2
122114.7
122040.2
121962.9
121877.1
121781
122371.1
122389
122395.5
122381.6
122356.2
122327.1
122294.4
122255.3
122210
122156.4
122096
122015.8
121926.5
121873.7
122297.8
122299.4
122278.6
122251.2
122218.9
122183.8
122146.8
122106.8
122064.5
122019.2
122283.7
122281
122279.5
122268.9
122253.7
122239.5
122229.7
122231
122165.2
122202.3
122229.8
122239.8
122242.5
122237.6
122224.3
122207.8
122193.8
122184.7
122176
122155.7
122139.2
122118.3
122123.7
122141.6
122179.4
122208.6
122216.4
122217.1
122211
122197.2
122180.2
122164.6
122153.3
122145.9
122131.9
122107.4
122076.4
122023.2
122063.8
122087.8
122114.2
122133.7
122162
122186.5
122203.1
122206.7
122202.8
122191.7
122176.4
122160.5
122146.4
122134.4
122115.3
122084
122054.2
122002.4
121938.3
121890.9
122060
122070
122090.1
122109.3
122128.5
122160.1
122178.9
122185.1
122189.2
122189.4
122183.8
122173.2
122160.1
122145.7
122132
122113.5
122089.7
122056.9
122003.6
121947.1
121891
121841.2
122071.8
122075.5
122078.2
122094.2
122113.5
122133.2
122148.9
122160.7
122171.3
122179.3
122186
122188.8
122186.4
122179.5
122167.4
122152.8
122132.2
122108.7
122075.8
122039
121976.5
121926
121880.2
121876.3
122081.6
122088.2
122091.2
122107.8
122125
122129.7
122139.9
122146.3
122156.1
122167.8
122183.8
122199.2
122208.9
122211.1
122204.5
122195
122175.9
122151.5
122118.9
122079.9
122041.9
121984
121944
121920.1
122106.7
122110.3
122108.4
122115.8
122129.9
122129.9
122130.4
122130.1
122128.8
122137.8
122156
122181.9
122213
122238.3
122253.3
122258.7
122253.2
122234.9
122212
122179
122139.8
122096.2
122062.9
122016.9
121988.4
121982
122136.1
122133.5
122131.7
122139.3
122146.5
122144.8
122141.2
122129.7
122111
122098.4
122103.7
122130.6
122177.3
122231.7
122275.2
122303.8
122318.8
122317
122303.4
122278.9
122245.5
122207.7
122165.8
122121.8
122092.4
122053.6
122034.3
122042.2
122149.8
122153.2
122153
122162.2
122162.3
122159.6
122140
122101.7
122053.5
122024
122030.2
122078.6
122158.1
122243.4
122311.8
122362.1
122387.1
122386.4
122371.1
122342.1
122307.5
122266.7
122221.4
122176
122140.2
122094.5
122073.3
122067.9
122165.1
122168.9
122173.9
122181.8
122169.5
122148.6
122090.7
122005.5
121912.8
121855
121855.3
121924.2
122044.1
122174.7
122285.4
122366.8
122408.5
122422.5
122415.2
122384.8
122342
122298
122253.2
122209.4
122170.1
122128.1
122099.2
122085.6
122179.6
122190.2
122187.4
122184.7
122169.2
122148.8
122098.6
121985.4
121832.6
121667.6
121556.2
121536.1
121625.6
121797.4
121992.7
122162.3
122286.5
122358.4
122389.2
122388.8
122367.2
122333
122295.1
122257.3
122219.8
122184.6
122149
122120.3
122097.9
122070.7
122185.3
122200.6
122198.9
122190.7
122158.1
122115.4
122029.3
121870.1
121644.4
121406.6
121238.9
121201
121321.6
121551.2
121796.2
122007.2
122161.9
122257.7
122306.3
122320.2
122309.1
122283.3
122250.3
122220
122189.5
122161.4
122134.7
122109.3
122088.2
122071.9
122190.9
122209.2
122209.1
122198.9
122156.2
122095
121983.3
121803.8
121543.9
121270.3
121069.3
121023.5
121158.6
121402.7
121664.7
121896.4
122072.1
122185.5
122244.9
122263.7
122255.2
122231.5
122199.8
122171.6
122145.8
122122.2
122102.2
122080.6
122065.3
122058.5
122194.2
122217.4
122222.2
122214.6
122170.5
122105.4
121991
121810.3
121565.5
121308
121119.1
121081.2
121198.5
121404.3
121635.5
121849.6
122019.9
122135.6
122199.3
122221.3
122214.1
122190.1
122159.4
122130.7
122105.9
122083.7
122066.3
122045.2
122033.5
122033
122195.1
122225
122238.2
122238.5
122202.5
122145.3
122046.5
121891.8
121689.1
121479.2
121328
121294.4
121379.6
121532.3
121709
121877.1
122014.2
122109.9
122163.8
122182.5
122175.1
122151.4
122121.6
122094
122068.8
122045.9
122030
122006.3
121994.3
121995.7
122196.3
122231.3
122254.6
122267.5
122247.3
122207.2
122135.6
122023.8
121871.8
121716.4
121606.2
121577.2
121627.9
121726.4
121843.5
121955.7
122046.2
122107.2
122138.5
122144.4
122131.2
122106
122078.5
122052.7
122025.7
122001.2
121988.2
121960.6
121946.3
121947.7
122199
122235.2
122269.4
122297
122297.5
122280.6
122240.5
122169.4
122071.2
121968.2
121894.1
121868.1
121888.1
121937.3
121997.5
122053.4
122094.8
122117
122120.3
122108
122084
122054.5
122028.3
121998.8
121969.2
121942.7
121935.1
121902.7
121887.1
121889.7
122197.4
122231.5
122279.3
122320.7
122344.2
122352.4
122342.4
122311.9
122264.5
122204.1
122153.6
122124.9
122118.1
122124.6
122135
122141.6
122139.7
122126.9
122104
122073.3
122037.7
122005.2
121976.3
121939.7
121902.4
121873.5
121871.8
121830
121814.6
121825
122234.8
122289
122340.4
122384.7
122410.9
122428.7
122432
122420.6
122391
122350.6
122313.7
122283.4
122256.6
122230
122200.9
122167.8
122129.5
122086.4
122040.9
121995
121959.6
121917.2
121872.2
121829.2
121809.6
121800.1
121745.4
121731.3
122230.2
122281.8
122330.3
122398.5
122448.7
122488.6
122512.2
122513.8
122494.1
122455.6
122413.7
122369.2
122324
122277.4
122229
122177.6
122124.1
122068.8
122014.2
121963.9
121918.8
121860
121803
121755.8
121744.1
121689.2
121662
121657.4
122218.5
122266.1
122326.2
122388.9
122447.4
122487.6
122513.8
122519.7
122509
122482.8
122446.5
122396.2
122343.5
122288.5
122232.1
122172.5
122113.7
122055.9
121995
121936.2
121869.9
121803.3
121746.2
121711.2
121683.9
121613.7
121586.1
121580.8
122255.2
122315.5
122367.9
122422.8
122465.8
122488.4
122499.1
122493.6
122473.1
122439.2
122392.8
122339.2
122278.4
122220.1
122161.5
122103.6
122042.8
121969.3
121901.7
121830
121764.1
121716.9
121666.5
121599.6
121558.4
121520.3
122301.8
122353.4
122394.7
122439.1
122466.3
122468.7
122460.6
122441.1
122407.2
122362.4
122312.8
122260
122205.8
122149.7
122086.8
122022.8
121949
121878.1
121807.5
121753.9
121694.8
121613.7
121567.2
121532.9
122286.9
122332.1
122374.4
122401.9
122429.6
122432.9
122416.1
122394.6
122362.6
122323.6
122280.5
122235.2
122186.7
122134.8
122076
122011.4
121939
121872.5
121811.9
121756.1
121674
121615
121570.7
121528.7
122298.5
122334.5
122364.4
122374.5
122384.8
122379.6
122360.7
122322.9
122290.1
122256.8
122220.7
122178.4
122130
122075.3
122017.5
121963.1
121903.4
121839.8
121767.6
121711.6
121655.5
121614.5
122278.5
122296.7
122325
122329.5
122318.6
122320
122303.3
122282.3
122258.4
122229.7
122195.1
122155.4
122110.1
122060.2
122004.6
121931.5
121881.8
121845.9
121794.7
121756.3
122267.4
122290.4
122294.2
122290.3
122274.3
122257.3
122239.5
122216.4
122190.5
122161.2
122126.8
122092.3
122065
122024.8
121989.9
122019.5
122274.2
122278.1
122271.1
122277.7
122271.7
122262.4
122250.3
122236
122216.5
122193
122165.2
122155.4
122165.5
122212.1
122324.7
122309.5
122306.2
122305.7
122304.4
122300.1
122306.2
122367.7
122359
122352.2
122346.9
122339.2
122336.8
122353.1
122210.7
122244.3
122269.4
122299.2
122294.7
122293.1
122285.9
122275.5
122268.6
122268.1
122272.2
122272.4
122276
122279
122116.6
122144.9
122161.9
122197
122224.8
122248.7
122252.9
122247.4
122236
122222.7
122214.1
122213.8
122218.1
122213.7
122210.4
122201.9
122184.1
122188.4
122085.3
122090.9
122113.5
122126.9
122164.1
122192.9
122214
122214.9
122207.6
122193.6
122177.9
122166.5
122162.1
122165.1
122159.8
122148.9
122131.6
122112.5
122092.2
122068.2
122065.2
122068.1
122069.1
122086.3
122109.1
122135.1
122161.2
122181.5
122190
122184.6
122170.5
122153.3
122138.2
122127
122117.7
122106.4
122089.7
122071.3
122038.7
122007.4
121968.9
121932.1
122068.2
122060.6
122053.5
122060.6
122078
122090.6
122117.8
122143.5
122164.3
122175.1
122173.6
122162.2
122145.4
122127.9
122111.2
122094.7
122076.2
122051.2
122021.6
121988.9
121946.9
121900.8
121869.1
121861.3
122087.2
122073.4
122057.7
122052.5
122051.5
122063.9
122083.6
122111.9
122134.7
122152.8
122164.1
122167.1
122161.4
122148.8
122132.4
122113.8
122093.2
122069.5
122042
122006.3
121962.8
121917.1
121872.1
121838.5
121843.8
121873.1
122116.8
122094.9
122077.4
122062.2
122049.2
122051.7
122065.2
122085.2
122109
122127.4
122143.6
122156.3
122164.6
122166.8
122162
122151.3
122135.9
122116.9
122092.3
122063.4
122025.2
121981.2
121932.5
121882.8
121844.1
121837.5
121872.1
121922.9
122146.4
122126.1
122102.6
122083
122062.6
122055.4
122061.3
122074.4
122090.6
122108.3
122121.3
122135.2
122150.3
122165.8
122178.5
122185.1
122184.3
122175.5
122160.2
122137.5
122109
122072.4
122029.3
121985.2
121939.8
121904.9
121891.9
121896.3
121931.5
121962.7
122146.6
122131.6
122111.8
122095.2
122073.9
122070.6
122077.7
122088.9
122100.1
122107.5
122112.1
122123
122141.9
122167.2
122194
122214.8
122225.8
122226.4
122216.7
122197.5
122171.3
122137.7
122097.8
122055.1
122016.6
121985.8
121963.7
121960.5
121963.6
121976.8
122171.7
122158.8
122144.2
122125
122102.5
122091.5
122091.5
122101.3
122110.9
122109.5
122099.1
122091.4
122097.7
122122.6
122163.8
122210.2
122248.2
122273.2
122284.3
122280.1
122264.5
122240
122208.7
122172.6
122132.9
122092.5
122061.2
122040.9
122025.8
122026.6
122014.8
122043.2
122172.5
122166.6
122156
122133
122117
122109.7
122114.7
122130
122125.8
122098.4
122061.3
122035.7
122038.5
122076.7
122143.1
122217.5
122280.1
122326.6
122348.6
122347.8
122332.9
122306.7
122274.3
122236.4
122194.7
122153.2
122117.2
122088.7
122068.3
122059.1
122054.7
122068.9
122169.7
122171.6
122167.8
122145.8
122133.4
122126.9
122131.9
122139.8
122102.3
122031.2
121950.5
121892.5
121883.7
121935.7
122037.5
122152.9
122254
122329.7
122369.9
122384.8
122378.4
122351.2
122312.9
122271.2
122229.3
122188.8
122151.1
122117.4
122090.5
122074.2
122057.8
122066.1
122169.7
122179.1
122177.2
122158.9
122145.7
122132.6
122126.4
122108.2
122023.3
121884.4
121732
121618.3
121584.8
121649.3
121793.9
121970.2
122128.7
122247.8
122319.1
122350.9
122352.6
122334.4
122304.7
122270.4
122235.6
122201.6
122168.6
122135.7
122107.4
122085.2
122056.5
122056.8
122170.9
122168.1
122179.9
122177.4
122169.6
122156
122133.5
122105.9
122049.5
121918.7
121712.1
121478.6
121301.6
121241.4
121333.6
121535.9
121764.3
121966.9
122119.6
122217.2
122269
122286.5
122279.2
122257.3
122228.9
122200.8
122173.6
122147.5
122121.2
122098.7
122079.4
122060.7
122049.2
122029.1
122166.9
122165.6
122178.6
122180.5
122179
122167.4
122138.6
122093.7
122008.2
121847.4
121602.6
121327.4
121110.6
121032.9
121137.8
121366.8
121620.1
121848.5
122025.2
122142.5
122206.7
122230.1
122225.5
122205.2
122178.1
122152.6
122129.4
122107.9
122086.9
122069.4
122055.4
122047
122033
122023.9
122166.1
122164.6
122177.8
122184.7
122189.6
122183.4
122155.4
122105.1
122010.7
121846.4
121607.2
121340
121126.7
121055.8
121149.2
121348.9
121578.9
121794.6
121968.6
122089.3
122158.2
122184.8
122181.6
122161.1
122134.1
122108.4
122086.2
122066.3
122047.2
122031.7
122020.8
122020.5
122011.8
122014.4
122166.5
122163.4
122176.8
122189.3
122201.7
122204.5
122185.2
122142.4
122058.9
121916.1
121713.8
121490.2
121313.5
121254.8
121324.4
121472.1
121649
121820
121961.4
122061.5
122119.6
122141.8
122137.5
122117.1
122090.4
122064.9
122042.7
122023
122004.4
121988.7
121977.8
121981.5
121977.4
121992.1
122170.7
122162.9
122177.1
122194.6
122214.5
122228.6
122224
122198.5
122139.3
122034
121883.4
121716.7
121585.6
121537.2
121576.9
121670.9
121787.3
121901.1
121994.2
122057.8
122091.2
122098.9
122087.5
122064.6
122038.1
122013.1
121990.5
121970
121952.4
121936.2
121924.2
121929.6
121925.1
121944.3
122179
122164.6
122181
122200.8
122226.9
122252.4
122265.6
122262.6
122233.7
122170.4
122073.4
121963.3
121875.5
121835.5
121846.5
121890.6
121948.1
122003.1
122044.2
122066.2
122069.2
122056.7
122033.2
122004.3
121975.6
121948.4
121923.6
121901.3
121885.4
121869.2
121857.8
121864.5
121855.9
121875.9
122173.4
122185.1
122207.2
122236.1
122271
122302
122322.6
122324.6
122301.7
122254.3
122194.3
122137.5
122098.9
122083.6
122083.8
122089.4
122092.5
122087.6
122072.4
122047.4
122015.1
121978.3
121941.6
121907.2
121874.4
121843.7
121817.9
121804.2
121787.6
121781.2
121783.7
121770.3
122172.1
122178.6
122207.1
122240.4
122283.1
122328.6
122368.9
122398.4
122410.2
122402
122372.3
122327.9
122284.6
122247.2
122213.9
122181.4
122147.4
122110
122068.2
122022.5
121973.9
121924.7
121879.1
121834.5
121792.6
121754.6
121728.3
121713.4
121695.5
121700.5
121684.9
121689.9
122173.9
122180
122206.9
122240.8
122283.2
122335.4
122388.6
122435.4
122466.1
122472
122451.7
122415
122371
122322.7
122272.1
122219.7
122166
122110.6
122053.2
121994.1
121933.4
121873.9
121817.4
121760.8
121708.7
121665.5
121641.3
121618.5
121605.9
121617.9
121601
121609.5
122178.6
122186.9
122210.2
122243.1
122279.5
122325.7
122374.8
122417.9
122447.9
122458
122448.6
122422.7
122383.3
122333.5
122277.7
122218.1
122156.8
122093.6
122028.5
121961.9
121891.9
121823.5
121755.7
121689.9
121633.7
121593.3
121568.4
121544.8
121539.5
121540.3
121526
121542.4
122192.7
122211.6
122245.9
122284.1
122317.3
122356.5
122391.1
122413.9
122423
122416.5
122393.6
122355.6
122306.6
122250.4
122190.2
122128
122063.7
121996.2
121925.2
121848.6
121775.1
121701.4
121633.7
121580.3
121541.7
121513.5
121504.5
121491.9
121474.6
121475.6
122196.4
122217.2
122243
122281.1
122309.6
122337.1
122362.3
122374.9
122374.3
122363.5
122339.5
122302.5
122256.2
122203.5
122147.6
122089
122027.2
121960.3
121888.7
121811.4
121738.3
121665.9
121604.5
121555.3
121514.9
121492.9
121486.5
121463.3
121457.2
121450.1
122216.3
122246.3
122281.4
122304.1
122316.1
122325.7
122327.9
122318.9
122301.4
122274.5
122239.9
122199.1
122152.9
122104
122051
121993.8
121930.9
121862.6
121790.4
121724.5
121659.8
121605.1
121557.2
121526.6
121513.1
121497.5
121479
121457.5
122235.1
122263.7
122289.1
122296.5
122291.7
122282.6
122270.1
122251.9
122222.9
122190.1
122155.6
122117
122075
122027.6
121975.9
121920.2
121860.4
121798.8
121742.1
121687.3
121638.7
121600.6
121578.6
121554.3
121541.2
121520.2
122238
122257.8
122274.9
122273.2
122267.2
122239.4
122217.3
122194.1
122168.3
122141.4
122109.2
122073.3
122032.5
121988.6
121941.7
121890.8
121838.5
121790.6
121756.4
121735.6
121694.7
121664.7
121647
121630.6
122239.3
122256.6
122250
122255.8
122242.6
122216
122193.8
122172.2
122148.5
122120.3
122090.3
122057.9
122024.7
121991.6
121955.4
121919.4
121890.9
121881.3
121858.8
121827.7
121822.8
121808.6
122267
122269.8
122266.9
122260.2
122252.6
122240
122227.7
122192.6
122168
122146.7
122124.7
122103.5
122088.5
122086
122067.1
122050.8
122045.1
122055.6
122037.3
122081.9
122315.4
122309.1
122309.7
122305.8
122297.2
122295.3
122279.3
122266.4
122258.7
122249.5
122239.9
122239.4
122251.3
122256.7
122265.2
122278.5
122306.7
122348.2
122414.2
122395.7
122381.7
122387.3
122380.5
122379.3
122385.9
122390.4
122394.9
122409.2
122455.5
122496.4
122574.7
122673.5
122549.8
122535.9
122554.3
122574.8
122612.8
122715.2
122319.5
122343.2
122366.5
122372.1
122374.9
122370
122364.2
122363.9
122372.5
122387
122182.7
122201.4
122242.9
122260.7
122286.3
122305.9
122312.1
122309.2
122301.7
122297.9
122302.8
122314.9
122329.3
122332.1
122333.9
122350.4
122132.1
122132
122151.9
122192
122217.8
122244.6
122265.6
122266
122259.1
122249.2
122243.8
122249.7
122255.3
122266.1
122269.9
122270.2
122283.6
122287
122084.6
122082.5
122091.1
122097.9
122118.2
122145.6
122176.1
122208.5
122229.7
122233.3
122224
122211.6
122202.6
122199.6
122199.2
122201.1
122200.8
122203.3
122196
122189.3
122175.8
122190.8
122083.5
122066.5
122059.4
122065.6
122068.9
122085.1
122113.6
122146.6
122182.4
122202.1
122204.2
122193
122177.8
122164.7
122155.6
122149.3
122142.3
122132.7
122120.4
122104.2
122090.3
122070.3
122059.9
122042.4
122098.1
122074.5
122053
122045.7
122040.7
122046.6
122063.3
122089.9
122122.2
122157.7
122179.1
122181
122168.8
122151.2
122133.5
122116.9
122101.2
122084.7
122064.9
122041.5
122013.3
121984.6
121964.2
121950.4
121956.5
121977.5
122126
122095.5
122067.7
122048.5
122031
122026.5
122032
122047
122073.4
122105.4
122139.1
122161.1
122165.5
122154.5
122136.1
122114.9
122092.2
122068.6
122042.9
122013.2
121978.8
121941.3
121904.4
121878.9
121880.6
121908.6
121966.3
122012.7
122154.1
122123.3
122091.9
122067.8
122040.2
122024.9
122018.3
122022.3
122038.7
122066.3
122096.7
122126.6
122147.3
122154.5
122148.2
122132.7
122111.9
122087.7
122061.2
122029.3
121992.4
121950.1
121904.9
121863.9
121838.8
121844.8
121889.1
121946.2
122003.7
122035.9
122143.4
122119.1
122092.6
122062.3
122038.4
122022.1
122015.8
122021.4
122039.9
122066.5
122093
122118.7
122138.4
122149.1
122149.7
122141.5
122127.2
122106.5
122079.3
122045.4
122006.5
121961.9
121913.9
121869.2
121837.7
121837.5
121876.1
121933.9
121979.1
122012.7
122173.4
122150.1
122122.7
122090
122063.6
122040
122024.9
122021.2
122029.7
122048.8
122071.5
122091.8
122112.2
122131.3
122147.3
122157.3
122159.6
122154.1
122140.1
122117.6
122087.7
122052.1
122010.6
121964.3
121920.2
121885.1
121870.7
121887.6
121927.3
121967.2
121989.8
122006.3
122199.3
122168.4
122146.4
122118.2
122093
122069.4
122047.2
122035.1
122036.6
122048.3
122063.9
122077.1
122087.4
122101.3
122120.7
122144
122166.4
122182.1
122188.5
122184.6
122170
122146.5
122116.3
122080.5
122040.5
122000.8
121968.4
121951
121943.7
121952.4
121974.3
121996.6
122021.8
122051.3
122184.7
122160.7
122144.1
122120
122099.1
122077.3
122060
122055
122062.7
122075.2
122081.3
122077.8
122073.2
122079
122100.4
122135.5
122174.9
122207.5
122228.6
122236.3
122229.7
122212.4
122187
122156.3
122122.4
122087.4
122055.8
122034.6
122022
122013
122011.1
122015.8
122041.7
122065.9
122181.6
122163
122141.6
122126
122107.6
122089.6
122078.8
122080.9
122095.5
122103.7
122086
122055.3
122030.3
122027.7
122056.2
122111.2
122175.4
122232.5
122275.5
122295.1
122294
122279.5
122255.1
122224.7
122189.6
122154.3
122121.7
122094.1
122073.3
122056.5
122045.7
122044.4
122058.8
122083.7
122205.2
122170
122154.7
122138.8
122130.9
122117.6
122104.8
122098.3
122103.2
122118.8
122103.8
122043.7
121969.7
121909.8
121890.6
121925.9
122009.9
122111.9
122203.9
122273.9
122311.3
122325.7
122320.1
122295.9
122262.6
122226.6
122191.5
122158.2
122126.6
122098.3
122073.5
122056.2
122048.8
122057.8
122088.7
122151.2
122195
122158.5
122143.8
122134.1
122132.5
122126.1
122118.2
122111.6
122109.1
122105.8
122050
121925.9
121781.6
121663.5
121613.5
121653.1
121772
121928
122074.8
122188.2
122257.9
122290
122293.9
122280.4
122257.2
122229.1
122200.5
122172
122143.1
122113.8
122086.6
122065.2
122048.6
122049.4
122057.1
122085.9
122190
122152.3
122139.6
122132.7
122133.5
122133.1
122128.8
122118.8
122100.8
122063
121960.1
121772.9
121545.5
121358.2
121274.8
121333.1
121504.3
121715.6
121909.6
122059.8
122158.5
122212.8
122234
122231.5
122215.4
122193.2
122170.5
122148
122125
122101.2
122079.6
122062.2
122046.7
122041.3
122027.6
122038.9
122187
122150.9
122133
122131.4
122135.1
122139.5
122138.7
122126.3
122095.5
122029.4
121890.8
121662.4
121389.3
121155.9
121043.3
121112.9
121319.4
121561.6
121786.2
121964
122084.8
122153.5
122181.5
122181.7
122166.6
122145.5
122125
122106
122087.3
122068.3
122052.2
122040.4
122032.1
122026.2
122017.4
122011
122186.3
122151.2
122132.9
122131.9
122137.9
122146.9
122151.2
122141
122106.9
122030.8
121883.8
121654.7
121382.9
121146.8
121036.5
121096.7
121284.8
121511.6
121728.2
121905.8
122031.2
122105
122136.2
122137.6
122121.8
122100
122079.4
122061.7
122044.9
122028.1
122014.4
122006.6
122005.3
122005.2
122005.7
121996.2
122185.3
122152.8
122136.1
122135.5
122143
122156.2
122167.4
122165.1
122138.8
122071.9
121942.9
121745.8
121513.2
121311.9
121221.6
121267.6
121406.7
121581.6
121754.2
121899.1
122003.1
122064.9
122090.6
122090
122073.5
122051.3
122030.6
122013.3
121997.4
121981.4
121968.1
121961.2
121963.6
121969.7
121982.5
121982.8
122185.3
122156.2
122142
122142.6
122151.4
122167.5
122186.1
122195.9
122185.8
122141.6
122047.9
121901.1
121726.3
121575.1
121504.3
121527.6
121612.8
121725.7
121839.1
121933.6
121998.8
122033.7
122043
122033.9
122013.9
121990.9
121970.1
121952.6
121936.9
121921.7
121908.7
121901.6
121905
121913.8
121933.8
121944.8
122183.6
122160.3
122151.1
122152
122161.8
122180.5
122205.3
122228.2
122238.1
122222.6
122170.4
122078.6
121964.1
121863.5
121806.9
121805
121840.1
121892.1
121944.1
121983.6
122004.3
122006.4
121993.8
121971.2
121944
121917.4
121894.4
121875.2
121858.2
121843.8
121831.8
121826.2
121831.6
121842.5
121858.1
121873.2
122183.3
122163
122155.8
122158.9
122171.3
122191.8
122221.3
122256.8
122286.1
122298.8
122286.2
122245.4
122184.9
122120.2
122069.3
122042.6
122033.6
122032.2
122030.2
122021.5
122003.1
121975.6
121941.8
121904.8
121868.3
121835
121806.5
121782.8
121763.4
121749.7
121739.6
121738.1
121746.5
121764.2
121768.5
121789.9
122192.7
122168
122158.8
122161.7
122177.5
122200.3
122232
122273.7
122318
122355.6
122375.9
122371.5
122340.8
122290.5
122239.2
122193.9
122152.9
122113.9
122074.7
122032.9
121987.1
121938.2
121887.5
121837.5
121790.7
121747.9
121711.7
121682.5
121661.4
121647.9
121640.3
121645.2
121654.8
121679.8
121685
121710.5
122167.2
122159.2
122163.3
122180.6
122204.4
122234.2
122274.7
122322
122367.4
122398.8
122406.5
122387.4
122350
122303.1
122250.6
122194.7
122137.2
122079
122019.5
121958.2
121895.5
121832.3
121771.3
121714.1
121661.9
121618.8
121586.4
121565.4
121551.9
121547.7
121557.2
121569.4
121595.2
121598.9
122170
122164.9
122171.4
122183.5
122204.9
122231.1
122264.3
122302.4
122339.3
122365.9
122375.3
122365.2
122337.7
122296
122243.6
122184.2
122121
122056
121989.2
121920.2
121849.2
121777.2
121708.3
121643.4
121585.7
121539.9
121508.6
121488.3
121477.3
121476.4
121485.4
121499.9
121520.8
121529.6
122183.8
122174.6
122177.6
122187.1
122205.3
122227.6
122251.2
122278.4
122304.3
122322
122326.7
122316.3
122290.5
122250.6
122200.4
122142.9
122081.1
122016.4
121948.4
121876.7
121801.9
121725.9
121654.3
121587.3
121529.6
121485.7
121456.9
121438.2
121432.6
121433.4
121439.8
121456.9
121466.9
121482.2
122185.4
122187.8
122197.6
122206.5
122221.9
122235.7
122250.4
122263.2
122268.8
122264.8
122250
122222.8
122184.3
122138.2
122085.8
122029.5
121969
121903.8
121833.6
121759.8
121686.1
121617.3
121553.4
121499.6
121461.3
121436.7
121422.5
121421
121422
121430.9
121437
121438
122192.6
122204.5
122215.6
122219
122220.1
122220.6
122218.9
122211.3
122198.9
122179.6
122150.4
122114.3
122073.9
122028.2
121978.7
121923.9
121863.6
121798.5
121730.7
121664.7
121604
121548.7
121502.7
121469.6
121449.5
121438.3
121439.8
121444.8
121437.5
121436.7
122207.1
122210.1
122218.8
122220.1
122206
122195.6
122182.6
122164.7
122145.9
122123.4
122092.8
122059.5
122024.6
121985
121941.4
121892.2
121838.6
121782
121725.1
121671.2
121621.9
121577.7
121540.3
121512.2
121494.3
121483.4
121490.4
121480.1
121478.3
121475.7
122210.6
122213.9
122215.1
122203.3
122184.5
122166
122145
122122.2
122097.5
122066.4
122036
122005.7
121970.4
121931.4
121888.5
121843.9
121798.6
121753.2
121712.3
121676.9
121647.2
121617.2
121589.6
121572.1
121565.7
121553.5
121552.8
121543.2
122220.1
122216.9
122206.7
122198.8
122171.9
122151.9
122130.6
122107
122077
122050.1
122023.5
121991.4
121957.6
121922.1
121887.5
121855.1
121822.8
121796.2
121776.1
121760
121733.9
121713.4
121697.6
121663.8
121670.2
121656.5
122249.7
122234.7
122230.6
122218
122188.4
122169.3
122148.9
122123
122101.7
122078.6
122050.7
122024.3
121998.6
121976.6
121959.8
121941.6
121927.3
121917.8
121913.5
121902.4
121893.5
121866
121838
121833.6
122307.2
122285.7
122281.5
122260.4
122248.6
122221.6
122198.4
122183
122169.8
122148.4
122131.5
122117.9
122110.7
122109.8
122101.3
122107.8
122113
122135.5
122133