/*--------------------------------*- C++ -*----------------------------------*\
  =========                 |
  \\      /  F ield         | OpenFOAM: The Open Source CFD Toolbox
   \\    /   O peration     | Website:  https://openfoam.org
    \\  /    A nd           | Version:  6
     \\/     M anipulation  |
\*---------------------------------------------------------------------------*/
FoamFile
{
    version     2.0;
    format      ascii;
    class       volScalarField;
    location    "50";
    object      p_rgh;
}
// * * * * * * * * * * * * * * * * * * * * * * * * * * * * * * * * * * * * * //

dimensions      [1 -1 -2 0 0 0 0];

internalField   nonuniform List<scalar> 
203709
(
122194.5
122222.2
122238.1
122234.8
122130.1
122156.4
122202.4
122240.9
122268.3
122280.8
122286.3
122260.4
122099.6
122090.4
122111.5
122131.1
122186.7
122248.2
122293.1
122319.5
122332.2
122320.8
122313.2
122280.2
122112.3
122060.6
122026.3
122030
122070.7
122160
122254.7
122325.3
122369.9
122393.4
122390.5
122373
122343.7
122313.5
122017.9
121922.9
121865.5
121859.2
121920.1
122045.6
122183.6
122294.2
122370.3
122409.2
122413
122398.3
122372.7
122341.3
121958.5
121846.9
121683.5
121570.3
121537.2
121617.9
121794.1
121997.1
122167.3
122286.2
122352.2
122376.6
122374.8
122357
122331
122293.7
121857.6
121658.5
121440.9
121266.7
121204.9
121312.2
121550.2
121808
122024.5
122175.6
122264.6
122307.1
122317
122305.4
122282.5
122254.1
121988.2
121831
121573.9
121320.1
121111.6
121046.6
121170
121418.4
121688.2
121925.2
122100
122206.9
122258.4
122273.2
122263
122240.1
122208.5
122189.2
122002.9
121834.3
121605.3
121367.8
121183
121139.7
121247.4
121453.4
121682.5
121897.7
122062.3
122174.4
122228.1
122246.9
122237.3
122213.2
122185.4
122167.2
122058.7
121911.9
121729
121542
121405.5
121375.5
121449.6
121603.1
121772.5
121939.3
122069.1
122163
122208
122226
122216.9
122193
122166.6
122151.2
122147.1
122043.2
121907.3
121775.5
121682.7
121662.6
121707.8
121803.4
121920.7
122031.3
122114.7
122172.3
122200.4
122207.6
122194.8
122171.2
122150.4
122145.4
122183.2
122103.6
122021.7
121962.9
121946.8
121970.2
122016.1
122073.9
122132.1
122174.2
122195.9
122200.8
122191.9
122172
122148.8
122145
122315
122299
122251.8
122216
122198.8
122200.2
122210.8
122223.6
122232.5
122232.2
122221.2
122202.7
122177
122148.4
122128.5
122135.9
122452.6
122445.8
122419.5
122393.7
122373.6
122351.1
122328.5
122299.3
122274.7
122241.3
122206.7
122169.4
122134.5
122125.3
122547.2
122572.8
122542.2
122512.5
122479
122438.2
122396.2
122346.3
122304.1
122258.9
122217.8
122168.8
122128.8
122115.9
122567.2
122563.2
122561.6
122520.1
122479
122427.9
122372
122324.9
122271.6
122223.9
122136.3
122082.3
122501.9
122493
122479.3
122429.3
122377.2
122322.1
122235.4
122174.8
122389.8
122369.7
122322.3
122266
122208.1
122223
122226.8
122225.4
122216.2
122200.3
122180.9
122160.3
122139.7
122108
122146.7
122184.6
122208.7
122220.2
122224.7
122225.9
122221
122211.1
122198
122180.3
122160.7
122130.1
122091.9
122052
122128.1
122160.7
122185.8
122199.5
122207.6
122214.6
122223.4
122227.8
122226.6
122221.1
122205
122187
122162.3
122131.7
122091.2
122056.6
122115.4
122149.7
122165.5
122175
122180.7
122190.5
122203.6
122221.7
122242.3
122254.7
122258.1
122241.3
122229.5
122203.4
122174.6
122138.6
122098.8
122074.3
122121.5
122153.8
122166.3
122164.8
122160.7
122160.4
122169.8
122190.6
122213.4
122244
122271.4
122293.1
122299
122292.3
122257.3
122235
122196.9
122157.5
122123.4
122105.2
122139.2
122171.4
122185.3
122175.5
122163.3
122141.3
122130.4
122134.4
122150.8
122194.9
122251.9
122297.9
122329.9
122346.1
122347.7
122336.6
122302.8
122256.6
122222
122183.1
122148.9
122136
122182.1
122209.3
122198
122170.3
122141.1
122088.1
122049.1
122050.2
122093.2
122172
122260
122331.2
122381.5
122406.7
122408.7
122394.6
122360.6
122319.7
122271.2
122228.1
122189.7
122165.9
122169.2
122215.2
122226.3
122184.2
122123.6
122046.5
121948.6
121893.4
121887.7
121948.4
122065.9
122196.9
122306.4
122383.8
122422.3
122431.3
122420.5
122388.2
122344.2
122302.1
122263.6
122226.4
122198.2
122163.6
122189
122214.9
122206
122138.8
122019.9
121893.1
121724.9
121614.8
121583.9
121658.1
121820.1
122012.2
122177.4
122295.7
122362.9
122389.6
122387.9
122367.3
122337.3
122297.5
122262.4
122228
122198.1
122172
122194.9
122199
122167
122078.9
121917.7
121696.1
121477.1
121307.6
121246.4
121344.5
121563.6
121806.5
122016
122168.2
122261.3
122307.3
122319.3
122307.7
122283.3
122250.1
122222.9
122195.1
122170.3
122152.8
122201
122191.1
122135.9
122015.4
121862.7
121596.6
121336.9
121131.7
121059.9
121169.3
121406.8
121667.6
121899.4
122074.8
122187.4
122245.9
122264.3
122256.5
122235.4
122206.8
122182.7
122154.7
122132.7
122120.1
122215.2
122199.8
122141.6
122024.1
121848.3
121610.4
121358.8
121163.4
121107.8
121207.5
121406
121635
121849.7
122020.8
122137.7
122201.7
122225
122219.3
122197.1
122169.1
122146.2
122118.6
122098.5
122086.6
122239.8
122229.1
122176.8
122072.1
121915.8
121720.4
121513.6
121359
121314.1
121387.1
121534.8
121709.7
121878.7
122017.1
122115.1
122170.2
122191.2
122185.8
122163.9
122137.1
122117
122086.3
122065
122053.6
122271.7
122273.7
122236.4
122155.3
122049.3
121890.8
121738.1
121626.9
121591.8
121635.7
121731.5
121849.3
121963.5
122055.7
122119.2
122152.7
122161.3
122150.2
122126.9
122106.4
122086.6
122048.3
122025.3
122017.2
122307.2
122325.3
122308.8
122266.7
122184.3
122083
121983.6
121909.4
121881.5
121899.9
121948.8
122010.8
122070.1
122114.6
122139.6
122145.6
122136.1
122114.6
122088.1
122076.7
122030.5
122001.5
121976.5
121971.1
122335.3
122373.6
122383.5
122369.4
122329.4
122295.5
122221
122170.8
122144.7
122140.5
122149.5
122162.8
122172.6
122173.6
122163.3
122142.6
122114.6
122082.7
122062.7
122047.8
121982
121943.6
121919.9
121917.2
122347.8
122412.6
122448.8
122466.1
122463.6
122449.2
122421.7
122385.6
122352.2
122325.1
122300.2
122275.6
122248.4
122218.2
122182
122140.7
122099.1
122059.2
122047.7
121981.3
121928.6
121887.9
121867.7
121868.5
122436.9
122497.5
122540.8
122565.6
122562.8
122566.8
122519.7
122478.8
122434.8
122389.5
122343.9
122296.5
122247.3
122196.7
122144.8
122098.3
122067.1
122039.3
121938.8
121875.4
121830.2
121807.3
122421.4
122500.9
122561.6
122595.9
122600.5
122587.5
122566.1
122544.4
122482.4
122431.8
122377.7
122323.2
122265.8
122213.1
122173.2
122118.5
122070
121980.7
121901.4
121838.1
121781
121746.1
122460.2
122527.7
122567.5
122583.6
122576.4
122561.4
122532.2
122498.6
122460.8
122391.5
122338.1
122290.2
122237
122188.4
122094.2
122025
121951.8
121873.1
121791.6
121703
122466.9
122522.1
122548.3
122548.9
122539.4
122509.9
122472.2
122433.2
122391.6
122344.4
122297.5
122217.7
122153.9
122078.7
122004
121926.9
121833.9
121731.9
122452.7
122491
122501.3
122494.6
122469.4
122439.9
122403.7
122361.8
122315.2
122268.4
122205.4
122138.3
122062
121982.9
121895.3
121798.7
122401.2
122420.3
122426.6
122412.5
122386.4
122356.3
122322.6
122282.5
122236.2
122181.5
122119.9
122038.2
121947.8
121894.7
122325.7
122327.2
122306.1
122278.2
122245.5
122209.7
122172
122131.1
122088.2
122041.8
122305.1
122299.8
122296.6
122284.7
122268.8
122254.8
122245.2
122244.4
122185
122222.6
122250.3
122257.8
122258.5
122252.2
122237.7
122221.2
122207.8
122199.2
122189.6
122165.6
122146.1
122123.7
122141.1
122158.1
122196.3
122226.1
122232.4
122231.2
122223.5
122208.6
122191.3
122176.3
122165.6
122157.6
122140.6
122112.9
122079.6
122024.6
122077.8
122101.2
122127.9
122147.4
122176.3
122201.6
122217.8
122219.9
122214.1
122201.5
122185.7
122169.9
122156.2
122143.7
122122.4
122088.6
122056.7
122003.3
121938.8
121890.6
122071.2
122081.1
122099.8
122119.5
122139.6
122173.1
122193.6
122199.5
122202.3
122200.3
122192.7
122181
122167.8
122153.6
122139.8
122120.2
122094.9
122060.6
122006.5
121950.6
121894.9
121847.3
122080.5
122083.6
122085.5
122100.2
122120.6
122143.7
122162.3
122176.7
122187.5
122193.9
122198
122198.2
122194.2
122186.6
122174.3
122159.8
122139.4
122115.5
122082.1
122046
121984.7
121935.7
121895.7
121899.7
122086.8
122092.1
122094
122109.5
122131.2
122140.9
122155.6
122165.1
122175.3
122185.1
122197.8
122209.9
122217.3
122218.7
122211.8
122202.4
122183.7
122159.8
122127.7
122089.7
122054.7
122000.6
121965.7
121946.3
122109.2
122111.7
122107.5
122112.5
122129.4
122135.4
122142.6
122148.7
122151.2
122160.5
122175.9
122197.4
122224.3
122247.4
122261.6
122266.2
122260.8
122243.2
122221.3
122189.7
122152.4
122111.5
122081.2
122039
122019.1
122018.6
122136.4
122132.7
122128.5
122132
122139.1
122142.7
122148.1
122146.3
122136.7
122129
122133.3
122155.2
122194.5
122242.3
122283.6
122311.5
122325.1
122323.8
122311.2
122287.9
122256.6
122221.4
122181.7
122139.6
122113.9
122079.5
122064.9
122079.6
122147.2
122149.1
122146.8
122151.8
122155.1
122163.4
122158.7
122135.3
122098.5
122073.4
122074.8
122111.4
122177.5
122253
122319.2
122366.9
122390
122391.7
122378.4
122351.3
122317.5
122276.9
122232.8
122189.9
122156.8
122114.1
122094.6
122092
122160.3
122163.7
122167.8
122174
122170.4
122170.5
122136.1
122073.1
121995.9
121942.2
121933
121982.5
122083.5
122200.6
122301.5
122374.1
122411.8
122423.9
122415.5
122385.5
122343.5
122303
122261.8
122221.7
122186.2
122144.4
122117.3
122102.5
122173.2
122184.2
122182.3
122181.7
122170.5
122164
122142.2
122062.2
121938
121793.7
121684.3
121647.3
121705.4
121845
122018.2
122172.8
122286.6
122353.6
122382.1
122381.8
122361.1
122328.5
122292.9
122257.9
122223.1
122190.9
122157.8
122130.9
122109.2
122082.6
122178.3
122194.4
122194.6
122191.1
122166.7
122141.9
122086.4
121962.4
121765.1
121545.6
121371.1
121300.9
121379.9
121574.8
121801.2
122001.7
122151.5
122246.2
122295.4
122310.3
122300.1
122275.6
122244
122215.4
122186.9
122160.9
122136.9
122113.2
122094
122079.3
122183.7
122203.1
122205.5
122201.1
122168
122124.7
122040.5
121890.5
121652.6
121388.5
121171.3
121079.4
121171.3
121396.8
121649.2
121876.7
122052.2
122168.1
122231
122252.9
122246.7
122224.7
122194.2
122167.4
122143
122120.7
122102.6
122082
122068.2
122063.2
122187.4
122211.6
122218.9
122216.9
122181.6
122131.3
122037.8
121878.5
121646.3
121385.9
121170.7
121089.8
121175
121373.6
121604
121820.1
121994.4
122115.3
122184.1
122210.4
122206.6
122184.9
122155.8
122128.4
122104.8
122083.3
122067.2
122046.4
122035.3
122036.2
122189.3
122219.8
122235
122239.9
122210.7
122164.5
122079.8
121938.2
121740
121520.6
121343.1
121280
121346.8
121494.9
121673.5
121846.4
121989.6
122091.3
122150.4
122173.2
122168.8
122147.3
122119.1
122093
122068.6
122046.1
122031.3
122007.4
121995.5
121998
122192
122227.1
122251.8
122267.8
122252.5
122219.6
122156.7
122051.5
121900
121734.9
121604.4
121555.3
121595.9
121692.7
121813.2
121931.2
122028
122094.7
122130.1
122138.9
122127.5
122103.4
122077
122051.9
122025.2
122000.8
121989
121960.8
121946.6
121948.9
122196.7
122232.8
122267.7
122297.3
122300.7
122288.1
122253.1
122185.4
122085.9
121975.3
121888
121850.3
121865.4
121915.2
121979.3
122040.6
122087
122113.2
122118.9
122107.7
122084
122054.2
122027.9
121998
121968
121941.1
121934.8
121901.5
121885.9
121889.6
122196.8
122231.5
122279.9
122322.3
122347.8
122358.3
122351
122322.3
122273.6
122207.9
122152.1
122119
122110.8
122119.1
122132.8
122142.9
122143.6
122132.3
122109.7
122078.5
122041.6
122007.8
121977.4
121939.3
121900.8
121871.2
121870.4
121827.5
121812
121823.5
122237.1
122292.3
122345.7
122391.2
122418.7
122438.1
122442.5
122430.9
122402.1
122362.3
122325.1
122294.9
122269.1
122243.5
122215
122181.8
122142.6
122098.1
122050.5
122002.3
121964.6
121919.7
121872.7
121828.3
121808.2
121798.3
121742.6
121728.6
122235.1
122288.7
122340
122409.5
122461.5
122503.7
122531.9
122539.1
122523.8
122485.5
122442.4
122396.4
122349.8
122301.8
122251.6
122198.2
122142.4
122084.6
122027.3
121974.1
121926.1
121864.5
121805.3
121756.6
121743.7
121688.2
121660.9
121655.6
122225
122275
122338.2
122404.9
122468.8
122515.2
122546.9
122556.7
122546.9
122520
122482.4
122430.2
122375.3
122317.8
122258.9
122196.6
122135
122074.5
122010.7
121948.9
121879.6
121810.4
121751.2
121714.7
121685.5
121616
121587.5
121579.5
122265.6
122328.8
122385.3
122445.4
122493.5
122520.3
122534
122530.1
122510.2
122475.7
122428
122372.6
122309.4
122248.4
122187.3
122126.8
122063.5
121987.4
121917
121842.7
121774.5
121725.6
121673.6
121606.1
121564.4
121524.7
122316.7
122371.2
122416.4
122464.9
122495.6
122501.5
122495.6
122477
122442.8
122396.9
122345.7
122290.7
122234.4
122176.2
122111.2
122045.1
121969
121895.9
121823.1
121767.6
121707.4
121625.2
121577.8
121543.3
122302.8
122350.4
122396
122426.8
122457.8
122463.6
122448.8
122428.1
122396
122356.1
122311.6
122264.8
122214.8
122161.3
122101
122034.8
121960.6
121892.3
121830.2
121773.2
121690.3
121630.1
121585.6
121543.7
122317.9
122356.1
122388.7
122401
122413.4
122409.3
122390.9
122353.1
122319.8
122285.7
122248.8
122205.6
122156.2
122100.4
122041.4
121985.8
121925
121860.7
121787.8
121731.4
121675.1
121634.9
122299.4
122319.5
122349.2
122355
122344.9
122347
122330.2
122309.1
122284.9
122255.9
122220.8
122180.6
122134.7
122084.2
122028
121954.4
121904.4
121868.4
121818.2
121782.4
122288.3
122312.3
122317.1
122313.7
122298.1
122281.2
122263.5
122240.4
122214.5
122185
122150.4
122115.6
122088.1
122048
122013.3
122044.6
122292.1
122297
122291
122298.3
122292.8
122283.8
122272
122257.8
122238.3
122214.9
122187
122176.7
122187.8
122235.9
122341.8
122327.6
122324.9
122324.7
122323.5
122319.4
122325.5
122385.9
122381.1
122373
122367.1
122359.5
122357.7
122374
122233.4
122267.4
122291.9
122321.2
122314.2
122311.5
122304
122294.1
122288.6
122289
122291.4
122289.9
122291.2
122293.4
122137.2
122165.2
122181.6
122217.1
122244.8
122267.5
122270.2
122263.5
122251.6
122239
122231.8
122232.6
122235.6
122229.3
122223
122212.3
122193.1
122197.3
122104
122109.2
122131.2
122144
122181.5
122210.6
122231.1
122230.3
122221.4
122206.6
122191.4
122181.1
122177.7
122180.2
122172.6
122158.3
122138.4
122117.7
122095.8
122070
122082.2
122084.7
122084.9
122101.2
122124.1
122150.2
122177
122197
122204
122196.6
122181.2
122164
122149.6
122138.9
122129
122115.5
122095.8
122075
122040.5
122007.7
121967.7
121930.5
122083.8
122075.7
122067.6
122073.7
122090.5
122103
122130.9
122157.9
122179.1
122188.4
122184.7
122171.3
122153.7
122136.2
122119.6
122102.6
122082.5
122055.2
122023.6
121989.4
121946.4
121898.9
121865.7
121858.4
122101.1
122087
122070.2
122064
122061.5
122073.4
122093.8
122123.8
122148.8
122167.7
122177.9
122178.4
122170
122155.5
122138.4
122119.7
122098.9
122074.6
122045.8
122008.7
121964.6
121919.2
121873.7
121838.9
121841.2
121869.7
122128.9
122106.7
122087.9
122071.7
122057.1
122058.4
122072.1
122094.1
122120.9
122142.3
122159.8
122171.4
122177.1
122176.1
122168.7
122156.7
122141.6
122122.6
122097.6
122068.5
122030
121986.9
121940.4
121893.2
121856.4
121850.9
121874.4
121926.5
122155.4
122135.4
122111.1
122090.2
122068.2
122059.5
122064.6
122079.2
122098.9
122121
122137.7
122153.2
122167.1
122179.6
122188.9
122193
122190.7
122181.6
122166.4
122144.2
122116.3
122080.7
122039.6
121998.9
121958.2
121928.6
121921.9
121926.7
121954.3
121989.9
122152.4
122137.4
122116.5
122098.7
122075.2
122070.4
122077.5
122091.4
122107.9
122122
122131.6
122144.1
122161.3
122182.9
122205.5
122223.6
122233.3
122233.1
122223.6
122205.5
122180.7
122149.1
122112
122073.1
122039.1
122014.5
122000.4
122002.4
122005.5
122014.2
122174.7
122161.1
122145.9
122126
122101.7
122088.7
122086.9
122096.8
122111.4
122119.9
122119.6
122117.9
122125.4
122147
122181.7
122221.6
122257
122280.8
122290.6
122287.1
122272.9
122250.2
122221.5
122188
122151
122113.9
122086.8
122070.3
122060.1
122065.4
122058.1
122088.2
122172.9
122165.8
122154.5
122130.6
122113.3
122104.1
122107.1
122124
122134.5
122122.6
122098
122078.6
122079.5
122108.9
122163.7
122227.7
122287.8
122331.7
122352.2
122353.7
122341.1
122317.2
122286
122248.2
122208.1
122168.9
122135.5
122109.3
122090.3
122082.4
122082.1
122099.3
122167
122168.1
122163.8
122141.4
122128.7
122121.9
122127.2
122145.4
122134.4
122085.2
122021.4
121969.9
121955.1
121991.8
122075.7
122179.1
122270.9
122337.7
122373.2
122385.8
122378.4
122351.6
122314.2
122275.9
122238
122201.3
122166.7
122134.5
122108.1
122090.5
122072.6
122077.8
122165.2
122173.3
122171.5
122153.9
122142.2
122132.4
122132.7
122134.9
122085.8
121977
121846.7
121738
121691
121729.7
121845.9
121997.9
122139.8
122247.6
122313.4
122343
122344.9
122327.7
122299.8
122268.2
122236.4
122205.4
122175.4
122144.9
122118.1
122097
122068
122064.8
122169.3
122162.8
122173
122170.9
122164.7
122154.4
122138.5
122123.3
122093.2
121999.8
121825.6
121612.9
121433.2
121348.8
121399.9
121564.5
121772.9
121963.3
122109.8
122205.4
122257.5
122276.1
122269.6
122249.1
122222.2
122195.9
122170.9
122147.1
122123.1
122102.4
122084.7
122067.1
122053.7
122032.9
122165.4
122160.7
122171.7
122174
122174.5
122167.1
122146.3
122115.7
122055.9
121927.6
121710.3
121448.9
121219.1
121100.2
121164.2
121368.8
121609.1
121831.1
122006.3
122125.2
122192.4
122218.7
122216.4
122197.8
122172
122147.8
122126.1
122106.1
122086.5
122070.3
122057.7
122051
122036.9
122027.6
122165.1
122160.5
122171.8
122178.8
122185.5
122183.3
122162.7
122125.6
122052.1
121912.2
121690.9
121426.3
121191
121076
121133.3
121323
121550.5
121766.7
121943.8
122068.9
122142.5
122173.4
122173.5
122155.4
122129.9
122105.4
122084.2
122065.3
122047
122032.1
122021.9
122023.3
122015.2
122018.2
122166.3
122160.5
122172.1
122184.4
122198.2
122204.2
122190.6
122158
122089.6
121962.6
121769
121539.9
121339.1
121247.5
121294.3
121437
121615.1
121790.1
121937
122042.8
122105.9
122132.1
122130.9
122112.5
122087.2
122062.7
122041.3
122022.1
122004.1
121988.8
121978.3
121983.6
121980.4
121996.5
122171.4
122161.5
122174.1
122191.1
122211.9
122228.2
122227.6
122209
122159.4
122063.3
121915.8
121741.5
121590.5
121520.5
121547.6
121638.6
121757.9
121877
121976.2
122045.3
122082.8
122093.2
122083.5
122061.6
122035.6
122011
121988.6
121968.2
121951.1
121935.2
121923.7
121930.6
121927.2
121948.7
122180.5
122164.9
122180
122199.3
122225.8
122252.7
122268.6
122269.8
122246.5
122188.1
122091.8
121975.2
121873.9
121820.9
121825.7
121869.6
121930.7
121990.8
122036.9
122062.7
122068.1
122056.6
122033.1
122003.6
121974.2
121946.3
121920.9
121898.2
121882.7
121866.7
121855.8
121864.1
121856.7
121879
122174.7
122185.8
122208
122237.2
122273.2
122306.2
122329.3
122334.4
122314.2
122266.7
122202
122139.5
122096
122078.6
122079.9
122088.5
122094.8
122092.4
122078.5
122053.7
122020.5
121982.1
121943.5
121907.1
121872.6
121840.7
121814.1
121800.6
121784.1
121778.4
121782
121769.9
122174.9
122181.3
122210.1
122244.2
122288.6
122335.7
122377.8
122409.4
122423.2
122416
122387.8
122344.1
122299.6
122261.6
122228.6
122196.7
122162.9
122125.1
122082.2
122034.7
121983.9
121932
121883.6
121836.1
121792
121752.4
121725.1
121709.8
121692
121697.7
121683.2
121689.3
122178.3
122184.4
122211.9
122247.3
122292.1
122347.2
122404
122454.9
122490.5
122502.1
122485.6
122448.6
122402.6
122352.4
122300
122245.6
122189.8
122132.1
122072.2
122010.4
121946.7
121884.1
121824.3
121764.7
121710.4
121665.5
121640
121616.5
121604.1
121616.5
121600.6
121609.6
122184.3
122193.1
122217
122251.6
122290.6
122340.8
122395.2
122444.3
122480.4
122495.1
122487.5
122461.3
122420.7
122369
122310.8
122248.6
122184.4
122118.4
122050.5
121980.9
121907.8
121836.3
121765.2
121696.8
121638.6
121596.5
121570.1
121546.1
121541
121541.7
121528.4
121543.6
122200.5
122220.3
122256.1
122296.6
122333.6
122377.5
122417.1
122444.8
122457.8
122453.7
122431.7
122393.4
122342.9
122284.6
122221.8
122157
122090
122019.8
121946.1
121866.7
121790.4
121714
121644
121588.8
121548.9
121519.5
121510.4
121497.1
121480.1
121481.1
122205.6
122227.4
122254.7
122295.2
122327
122358.5
122388
122404.8
122407.8
122399.2
122376.2
122338.9
122291.2
122236.8
122178.7
122117.9
122054
121985
121911.1
121831.5
121756.2
121681.6
121618.2
121567.5
121525.7
121502.6
121495.9
121472.9
121467
121459.3
122227.6
122259.4
122296.6
122322.2
122337.7
122350.9
122356.4
122350.2
122334.6
122308.3
122273.4
122231.6
122184.2
122133.7
122079.3
122020.6
121956.1
121886.1
121812
121744.5
121678.2
121621.8
121572.6
121540.6
121526.4
121510.8
121492.8
121470.9
122249.2
122279.6
122307.6
122317.6
122315.5
122308.8
122298.4
122281.5
122253.1
122220.1
122185.1
122145.9
122103.2
122054.9
122002.2
121945.4
121884.4
121821.5
121763.6
121707.7
121658.1
121619.1
121596
121571.4
121558.9
121538.1
122254
122275.5
122294.9
122294.9
122290.4
122264.2
122243.2
122220.6
122195.1
122168.2
122135.9
122099.7
122058.5
122014.1
121966.5
121914.9
121861.7
121813.3
121778.6
121757.8
121716.8
121686.2
121669.4
121653.8
122255.1
122273.7
122268.7
122276.2
122264
122238.5
122217.1
122196
122172.6
122144.6
122114.7
122082.2
122048.9
122015.5
121979
121942.7
121914.2
121905.2
121883.6
121854
121850.2
121838.7
122280.9
122285.4
122283.6
122278.5
122271.8
122260
122248.3
122214
122189.8
122168.8
122146.9
122125.9
122110.9
122108.6
122089.9
122074.4
122070.1
122083.3
122068.2
122119.6
122327.8
122322.8
122324.6
122321.7
122313.8
122313.1
122297.8
122285.4
122278.1
122269.2
122259.9
122259.8
122272
122277.8
122287.9
122303.4
122336.4
122386
122425.9
122408.5
122395.5
122402
122395.9
122395.4
122402.5
122407.4
122412.2
122426.8
122473.1
122515
122595.4
122697.1
122562.1
122549.1
122568
122588.9
122627.1
122728.7
122343.4
122366.6
122389.3
122393.9
122396.2
122391.3
122386.4
122387.1
122396.4
122410.3
122206.1
122224.3
122266.1
122283
122308
122326.3
122331.9
122328.7
122322
122319.7
122326.2
122339
122352.6
122351.9
122352.2
122368.6
122154.5
122153.6
122172.6
122213.1
122238.6
122264.8
122284.9
122284.1
122276.8
122267.9
122264.2
122271.9
122277.8
122287.2
122287.7
122286
122298.5
122301.4
122105.7
122102.9
122111.4
122117.3
122137.3
122164.8
122195.8
122227.7
122247.6
122249.7
122239.9
122228.2
122220.6
122218.6
122218
122218.2
122215
122215.2
122206.1
122197.7
122182.3
122195.8
122103.5
122086.2
122078.2
122084
122086.6
122102.5
122131.2
122165
122200.9
122218.8
122218.8
122206.7
122191.7
122179.3
122170.4
122163.4
122154.6
122142.3
122127.6
122109.1
122093.1
122071
122058.9
122042.7
122117.1
122093.1
122071
122062.8
122057.1
122062.4
122078.9
122105.9
122139.3
122175.3
122194.8
122194
122180.1
122162
122144.2
122127.3
122110.4
122091.9
122069.8
122044.2
122013.9
121983.4
121961.8
121947.8
121957.6
121981.4
122143.7
122113
122084.5
122064.7
122046.1
122040.8
122045.7
122060.3
122087.3
122120.9
122155.7
122176.2
122177.4
122163.8
122144
122122.1
122098.7
122073.8
122046.4
122015
121979.2
121940.4
121901.9
121874.9
121875.7
121904.9
121967.1
122017.7
122169.3
122138.7
122107
122082.5
122053.9
122037.7
122030
122033.3
122049.5
122078.4
122111.2
122142.8
122162.5
122166.4
122156.6
122138.7
122116.8
122092.4
122064.6
122031.3
121993.3
121950.7
121905
121863.1
121836
121839.5
121882.5
121943.9
122010.8
122049
122156
122131.7
122105
122073.9
122049.3
122031.8
122024.4
122029.3
122048.3
122077.4
122107.2
122134.7
122153.7
122161.5
122158.4
122147.7
122132.1
122110
122082.1
122047.8
122009.1
121965.2
121918.4
121875.3
121843.7
121840.3
121875.6
121934.9
121990.4
122032.8
122182.6
122159.1
122132
122098.9
122071.9
122047.3
122031
122026.3
122034.4
122055.1
122082
122106.9
122129.7
122148.5
122161.5
122167.7
122167
122159.5
122144.2
122121.6
122092.1
122057.9
122018.3
121975.4
121935.7
121904.9
121892.8
121906.1
121942.5
121987.2
122019.3
122043.1
122207.9
122174.5
122151.6
122123.4
122098
122073.8
122050.6
122037.2
122037
122049.1
122069.1
122088.9
122105.2
122122
122140.6
122160.4
122178.3
122190.7
122195.2
122190.1
122175.6
122153.3
122125.2
122092.4
122056.4
122022.1
121995.4
121983.7
121982.1
121989.9
122007.8
122031
122061.1
122092.8
122190.6
122163.5
122145.9
122121.3
122100.2
122077.8
122059.1
122052.2
122058.2
122072.7
122087
122093.7
122096.8
122105.5
122124.7
122154.1
122187.2
122216.6
122235.8
122242
122236
122220.4
122197.5
122170.1
122139.2
122107.7
122081.6
122064.7
122056
122051.2
122051.2
122055.7
122079.9
122103.6
122185.1
122163.1
122140.2
122124
122105.2
122086.7
122074.8
122074.4
122087
122102.5
122102.4
122085
122068
122065.9
122087.8
122132.5
122186.9
122240.5
122280.4
122298.4
122299.4
122287.4
122265.7
122236.3
122202.8
122169.7
122139.4
122114.3
122095.5
122080.8
122071.9
122072.4
122086.3
122113.3
122211.1
122171.4
122152.2
122134.6
122126.1
122112.8
122100.1
122093.6
122097.6
122114.6
122121.5
122086.3
122029.6
121978.3
121956.3
121979.6
122047
122137.2
122220.7
122281.9
122314.1
122325.9
122319.4
122295.9
122264.6
122232.3
122201.4
122171.4
122142.3
122115.2
122090.4
122072.3
122063.9
122070.7
122101.7
122160.3
122199.9
122159.3
122140.4
122128.4
122125.9
122120
122113.7
122109.7
122111.2
122118.9
122096.5
122005.6
121883.9
121773.9
121715.1
121732.9
121825.5
121956.6
122086.2
122187.8
122251.6
122281.7
122286.1
122273.9
122253.2
122228.1
122202.7
122177.1
122150.9
122123.7
122097.8
122076.9
122059.5
122057.2
122062.1
122086.5
122194.1
122152.2
122136.1
122126.7
122126.4
122126.8
122125.7
122121.2
122112.7
122094.1
122028.2
121876.8
121672.4
121487.3
121385.4
121405.5
121538.1
121727.9
121907.6
122050.5
122146.7
122201.3
122223.7
122222.4
122207.8
122187.4
122166.7
122146.4
122125.7
122103.9
122084.1
122068
122052.8
122046
122031
122038.6
122191
122151.2
122130.1
122126
122128.6
122133.9
122137
122131.8
122113
122068.2
121962.9
121766.1
121510.7
121269.3
121121.1
121150.2
121327.8
121554.4
121770.9
121946
122067.8
122139.2
122170.2
122172.8
122159.5
122139.9
122120.8
122103.4
122086.1
122068.5
122053.6
122043.2
122035.9
122029.7
122019.6
122011.1
122190
122152
122131
122127.8
122132.6
122142.2
122150.3
122147.3
122124.8
122067.5
121946.1
121739.1
121474.8
121220.7
121068.9
121092.1
121264.7
121486.1
121701.9
121881.7
122011.1
122089.4
122124.9
122129.5
122116.2
122095.9
122076.5
122059.9
122044
122027.8
122014.7
122007.9
122008
122008.5
122008.2
121996.7
122189
122154.2
122135.4
122132.9
122139.2
122152.6
122166.8
122170.5
122153.6
122100.9
121989.1
121804.2
121570.4
121348.9
121223.8
121242
121374.1
121549.4
121725.3
121875.3
121984.8
122051.4
122081.1
122083.4
122068.9
122048
122028.2
122011.6
121996.3
121980.7
121967.8
121961.6
121965.5
121973
121986.5
121985.7
122189.2
122158.3
122142.5
122141.5
122149.1
122165.2
122185.8
122199.9
122196.5
122161.8
122078.5
121937.3
121757.7
121588.3
121494.4
121501.9
121583.1
121697.9
121816.1
121916.3
121986.8
122025.7
122037.8
122030.2
122010.9
121988.1
121967.5
121950.2
121934.6
121919.8
121907.2
121900.9
121905.9
121916.7
121939
121951.5
122187.7
122163.1
122152.7
122152.5
122161.4
122179.9
122206
122231.6
122245.8
122236.3
122190
122100.5
121981.4
121867.9
121797.7
121788
121821.8
121876.6
121933.1
121977.3
122001.7
122006
121994.2
121971.4
121943.4
121915.7
121891.7
121871.9
121854.6
121840.4
121829
121824.2
121831.3
121844.4
121862.6
121881.2
122188.1
122166.9
122158.6
122160.9
122172.9
122193.4
122224.1
122261.2
122293.2
122309.4
122300.3
122260.4
122197
122127.2
122071
122041.5
122032.7
122033.5
122034.3
122027.7
122010.3
121982.7
121947.8
121909
121870.4
121834.8
121804.5
121779.5
121759.4
121745.7
121736
121735.4
121745.2
121764.9
121771.6
121796.1
122198.5
122172.9
122162.8
122165.3
122181.1
122204.3
122237.4
122281.3
122328.5
122369
122392.1
122390.8
122362.5
122313
122259.3
122212.1
122170.5
122131.4
122091.9
122049.3
122002.2
121951.2
121898
121845.2
121795.3
121749.7
121711.3
121680.5
121658.4
121644.6
121637.3
121642.9
121653.5
121680
121687.2
121714.7
122172.8
122164.4
122168.5
122186.2
122211
122242.7
122286.5
122338
122388.3
122425.8
122439.4
122423.8
122386.1
122337.1
122282.4
122224.3
122164.6
122104.1
122042.1
121978.1
121912.5
121846.2
121781.9
121721.5
121666.4
121621.1
121587.2
121564.9
121551
121546.8
121556.6
121569.4
121596.1
121601.3
122176.9
122171.5
122178.3
122191.1
122213.8
122242.1
122279
122321.7
122364.3
122396.9
122410.9
122403.4
122376.6
122334.1
122280
122218.2
122152.3
122084.5
122014.8
121942.8
121868.9
121793.8
121721.8
121653.9
121593.5
121545.8
121513.2
121491.4
121479.9
121478.7
121487.5
121502.3
121523.6
121533.5
122191.9
122182.7
122185.8
122196.3
122216.1
122240.7
122267.9
122299.4
122330.2
122352.5
122361.2
122353.5
122328.9
122288.7
122237.1
122177.4
122113.1
122045.8
121975.2
121901
121823.5
121744.9
121670.5
121601.1
121540.9
121495.2
121464.8
121445.2
121439.2
121439.4
121445.8
121462.6
121472.9
121488
122194.3
122197.5
122208.3
122218.8
122236.6
122253.7
122272.5
122289.4
122299
122298.2
122285.5
122259.2
122220.4
122173.1
122119
122060.7
121998.2
121931
121858.8
121782.9
121706.9
121635.8
121569.8
121514.2
121474.2
121447.8
121432.8
121430.9
121431.5
121440.6
121446.5
121447.1
122203.5
122216.4
122229
122234.7
122238.6
122242.5
122244.3
122240
122230
122212.2
122183.7
122147.4
122106.2
122059.3
122008.5
121952.4
121890.8
121824.2
121754.6
121686.8
121624.3
121567.4
121519.8
121485.2
121463.6
121451.6
121452.6
121457.7
121450.3
121449.6
122218.7
122222.7
122233
122236.1
122224.4
122216.6
122206.1
122190.5
122173.7
122152.4
122122.3
122089.1
122053.9
122013.8
121969.6
121919.8
121865.3
121807.6
121749.3
121694.1
121643.5
121598.1
121559.6
121530.4
121511.1
121499.4
121506.3
121496
121494.8
121491.9
122223.3
122227.9
122230.7
122220.7
122203.9
122187.1
122167.7
122146.4
122122.8
122092.3
122062.3
122032.2
121996.9
121957.9
121914.7
121869.6
121823.6
121777.4
121735.5
121699.3
121669
121638.6
121610.5
121591.6
121584.9
121572.7
121572.7
121563.1
122233.1
122231
122222.4
122215.8
122190.2
122171.7
122151.5
122129.1
122099.8
122073.6
122047.5
122015.8
121982.2
121946.7
121911.8
121879.1
121846.4
121819.3
121799.1
121783.1
121757.7
121737.4
121720.8
121687.3
121695
121681.4
122261.7
122247.8
122245.1
122233.5
122205.3
122187.3
122168.1
122143
122122.4
122100
122072.7
122046.7
122021.1
121999.2
121982.3
121964.1
121950
121941.2
121938
121929
121921.5
121895.7
121869.7
121866.5
122317.9
122297.4
122294.4
122274.6
122263.7
122238
122215.6
122201
122188.4
122167.7
122151.3
122138
122131.1
122130.4
122122.3
122129.5
122136.4
122161.5
122162.5
122174.4
122159.2
122122.5
122396.9
122369.4
122355