/*--------------------------------*- C++ -*----------------------------------*\
  =========                 |
  \\      /  F ield         | OpenFOAM: The Open Source CFD Toolbox
   \\    /   O peration     | Website:  https://openfoam.org
    \\  /    A nd           | Version:  6
     \\/     M anipulation  |
\*---------------------------------------------------------------------------*/
FoamFile
{
    version     2.0;
    format      ascii;
    class       volScalarField;
    location    "50";
    object      rhok;
}
// * * * * * * * * * * * * * * * * * * * * * * * * * * * * * * * * * * * * * //

dimensions      [0 0 0 0 0 0 0];

internalField   nonuniform List<scalar> 
203709
(
0.9928793
0.9928231
0.9927808
0.9927728
0.993191
0.9931314
0.9930026
0.9929449
0.9928964
0.9928678
0.9928689
0.9929096
0.9935451
0.9934965
0.9933734
0.9933131
0.9932092
0.993136
0.9930797
0.9930458
0.9930362
0.9930605
0.9930938
0.9931816
0.9936147
0.9935993
0.9935793
0.9935207
0.993477
0.993405
0.993338
0.9932836
0.9932503
0.9932394
0.9932607
0.9932984
0.9933512
0.9934206
0.9936167
0.9936139
0.9936083
0.9935893
0.9935702
0.9935333
0.9934915
0.9934557
0.9934355
0.9934336
0.9934564
0.9934954
0.9935459
0.9935861
0.9936475
0.9936404
0.9936414
0.9936387
0.9936321
0.9936213
0.9936053
0.9935899
0.9935788
0.9935777
0.9935906
0.9936199
0.99366
0.9937018
0.9937163
0.9937301
0.9936813
0.9936782
0.9936739
0.993669
0.9936621
0.9936547
0.9936482
0.9936467
0.9936545
0.9936764
0.9937034
0.9937195
0.99371
0.9936716
0.9936262
0.9936001
0.993768
0.9937378
0.9937362
0.9937266
0.9937141
0.9936954
0.9936779
0.9936593
0.9936379
0.9936178
0.9936019
0.9935871
0.9935751
0.9935651
0.9935539
0.9935407
0.9935266
0.9935306
0.9938276
0.9938401
0.9938412
0.9938173
0.9937827
0.9937427
0.9937302
0.9937374
0.9937415
0.9937346
0.9937196
0.993702
0.9936838
0.9936651
0.993645
0.9936233
0.9936015
0.9935797
0.993878
0.9939072
0.9939371
0.99394
0.9938649
0.9937589
0.9937006
0.9937181
0.9937678
0.9938113
0.9938318
0.9938309
0.9938155
0.9937918
0.9937635
0.9937335
0.9937042
0.9936706
0.9939274
0.9939489
0.9939657
0.993942
0.9938665
0.9937616
0.9936695
0.9936359
0.9936781
0.9937657
0.9938492
0.9939001
0.9939146
0.9939015
0.9938723
0.9938375
0.993806
0.993756
0.9939681
0.9939552
0.9939009
0.993812
0.9937097
0.9936232
0.9935803
0.9935972
0.993671
0.9937767
0.9938782
0.9939462
0.9939704
0.993957
0.9939221
0.9938845
0.9939425
0.9938978
0.9938213
0.9937271
0.9936367
0.9935707
0.9935444
0.9935643
0.9936278
0.9937234
0.9938313
0.9939268
0.9939891
0.9940077
0.9939884
0.9939412
0.9937896
0.9937065
0.9936279
0.9935672
0.9935358
0.993539
0.9935763
0.9936425
0.9937286
0.9938241
0.9939148
0.9939881
0.9940288
0.9940349
0.9936626
0.9936084
0.9935676
0.9935453
0.9935509
0.9935828
0.993637
0.9937069
0.9937835
0.9938622
0.9939337
0.9939991
0.9940406
0.9940504
0.9936083
0.9935906
0.9935924
0.9936308
0.9936813
0.9937436
0.9938104
0.9938714
0.99393
0.9939758
0.9940327
0.9940525
0.9937674
0.9937754
0.9938222
0.9938836
0.9939373
0.993974
0.994015
0.9940182
0.994023
0.9940382
0.9940646
0.9940568
0.9930578
0.9929348
0.9928431
0.9927698
0.992725
0.9927114
0.9927339
0.9927958
0.9928939
0.9930015
0.9933437
0.9931491
0.9930471
0.9929358
0.9928447
0.9927684
0.9927186
0.9926997
0.9927171
0.9927761
0.9928762
0.9929903
0.9931463
0.9932685
0.9934654
0.993346
0.9931712
0.9930656
0.9929601
0.9928699
0.9927875
0.992728
0.9927009
0.992708
0.9927521
0.9928406
0.9929576
0.9931074
0.9932475
0.9934005
0.9936153
0.9934925
0.9933747
0.9932245
0.9931207
0.9930155
0.9929147
0.9928407
0.9927653
0.9927261
0.9927227
0.9927473
0.9928102
0.9929048
0.9930308
0.993171
0.993313
0.9933788
0.9937761
0.9936583
0.9935475
0.993451
0.9933241
0.9932087
0.9931214
0.9930152
0.9929244
0.9928501
0.9927981
0.9927707
0.99278
0.9928222
0.9928939
0.9929844
0.9930951
0.9932117
0.9932978
0.9933488
0.9939077
0.9938153
0.993721
0.9936339
0.9935481
0.9934625
0.993361
0.9932691
0.9931781
0.9930877
0.9930039
0.9929357
0.9928881
0.9928738
0.992887
0.9929341
0.9930195
0.9931059
0.9931989
0.9932969
0.9933971
0.9934919
0.9939096
0.9938295
0.9937469
0.9936725
0.9936074
0.9935485
0.9934854
0.9934205
0.9933485
0.9932703
0.9931917
0.9931218
0.9930675
0.9930399
0.9930391
0.9930716
0.9931527
0.9932624
0.9933259
0.9934133
0.9935133
0.9935838
0.993971
0.9938824
0.9937798
0.993691
0.9936331
0.9935912
0.9935552
0.9935246
0.9934937
0.9934557
0.9934076
0.9933528
0.993301
0.9932602
0.9932398
0.9932438
0.9932778
0.9933519
0.9934714
0.9935448
0.9936066
0.99366
0.9937045
0.9937414
0.9939335
0.9938168
0.993712
0.9936435
0.9936066
0.9935862
0.9935609
0.993546
0.9935323
0.9935143
0.9934898
0.993462
0.9934402
0.9934259
0.9934274
0.9934485
0.9934911
0.9935566
0.9936315
0.9936685
0.9936752
0.9936838
0.9937066
0.9937397
0.9939375
0.9937807
0.993687
0.9936471
0.9936341
0.9936115
0.9935965
0.9935867
0.9935777
0.9935656
0.9935521
0.9935407
0.993539
0.9935481
0.9935729
0.9935938
0.9936032
0.9935907
0.993572
0.9935577
0.9935395
0.9935384
0.9935587
0.9936004
0.9939899
0.9938238
0.9937167
0.9936975
0.993685
0.9936739
0.9936626
0.9936505
0.9936319
0.9936127
0.9935949
0.9935768
0.9935598
0.9935466
0.9935373
0.9935313
0.9935267
0.9935217
0.9935149
0.9935034
0.9935007
0.9934945
0.9934919
0.9935019
0.9940461
0.9939071
0.993796
0.9937661
0.993767
0.9937778
0.993762
0.9937368
0.9936969
0.993673
0.9936712
0.9936754
0.9936751
0.9936689
0.9936596
0.9936492
0.9936379
0.9936251
0.9936103
0.993593
0.9935728
0.9935488
0.9935176
0.9934871
0.9940883
0.9939884
0.9938926
0.9938509
0.9938482
0.9938715
0.993889
0.99384
0.9937417
0.9936684
0.9936583
0.9936905
0.9937329
0.993765
0.9937806
0.9937816
0.9937714
0.9937542
0.9937345
0.9937139
0.9936868
0.9936633
0.9936285
0.993586
0.9941053
0.9940431
0.993975
0.9939349
0.9939287
0.993934
0.9939283
0.9938722
0.993773
0.9936683
0.9936059
0.993613
0.9936754
0.9937556
0.9938224
0.9938626
0.9938747
0.9938649
0.9938446
0.9938247
0.9938
0.993795
0.9937809
0.993758
0.9940915
0.9940583
0.9940167
0.993991
0.9939668
0.9939516
0.9939157
0.9938389
0.9937356
0.9936336
0.993564
0.9935495
0.9935945
0.9936827
0.993785
0.9938728
0.9939273
0.9939439
0.9939307
0.9938992
0.9938814
0.9938768
0.9938881
0.9938921
0.9940495
0.9940317
0.994007
0.9939813
0.9939512
0.9939143
0.9938474
0.9937571
0.9936596
0.9935772
0.9935286
0.9935248
0.9935672
0.9936487
0.9937531
0.9938599
0.993945
0.9939927
0.9939981
0.9939626
0.9939314
0.9939209
0.9939334
0.9939504
0.9940015
0.9939731
0.9939493
0.9939188
0.99387
0.9938192
0.993737
0.9936525
0.9935814
0.9935359
0.9935237
0.9935467
0.9936018
0.9936836
0.9937815
0.9938848
0.993973
0.9940333
0.9940472
0.9940261
0.993986
0.9939605
0.9939606
0.9939717
0.9939068
0.9938713
0.9938268
0.9937696
0.9936965
0.9936345
0.9935841
0.9935545
0.9935528
0.9935774
0.9936255
0.9936932
0.9937776
0.9938672
0.9939601
0.9940323
0.9940866
0.994094
0.9940792
0.994044
0.9940145
0.9940011
0.9938665
0.993814
0.9937589
0.9937006
0.9936565
0.9936338
0.993625
0.9936249
0.9936542
0.9936983
0.9937584
0.9938291
0.9939124
0.9939862
0.994066
0.9941086
0.9941383
0.9941512
0.9941337
0.9941053
0.9940813
0.9940573
0.9938231
0.9937786
0.9937453
0.9937277
0.9937295
0.9937467
0.9937868
0.9938253
0.9938651
0.9939229
0.9939856
0.9940633
0.9941073
0.9941489
0.9941923
0.994206
0.9942065
0.9941943
0.994176
0.9941547
0.9938928
0.9938775
0.9938817
0.9938953
0.9939186
0.9939517
0.9939941
0.9940439
0.9940908
0.9941356
0.9941732
0.9942222
0.9942472
0.9942638
0.9942738
0.99428
0.9942757
0.994256
0.9940741
0.9940633
0.994075
0.994094
0.9941209
0.994152
0.9941866
0.9942249
0.9942596
0.9942884
0.9943126
0.9943355
0.99435
0.9943607
0.9943858
0.9943726
0.9942385
0.9942248
0.9942409
0.9942666
0.9942918
0.9943183
0.9943457
0.994372
0.9943953
0.9944165
0.9944374
0.9944571
0.9944763
0.9945097
0.9943995
0.9943987
0.9944122
0.9944327
0.9944556
0.9944783
0.9945008
0.9945256
0.9945546
0.994573
0.9931051
0.9930139
0.9929285
0.9928701
0.9928384
0.9928322
0.9928504
0.9928875
0.993485
0.9933149
0.9931487
0.993045
0.9929535
0.9928741
0.9928216
0.9927968
0.9928
0.9928293
0.992876
0.9929638
0.9930316
0.9930771
0.9935657
0.9934383
0.993255
0.9930981
0.9929878
0.9928953
0.9928204
0.9927737
0.9927562
0.9927699
0.9928142
0.9928855
0.9929846
0.993067
0.9931336
0.9931996
0.9938885
0.9936976
0.9935462
0.9933898
0.993218
0.993067
0.9929366
0.9928422
0.9927697
0.9927274
0.9927165
0.99274
0.9927992
0.9928923
0.9930119
0.9931125
0.9932145
0.9933191
0.9934438
0.9935069
0.9939913
0.9938676
0.9936738
0.9935227
0.9933661
0.9931679
0.9930316
0.9928924
0.9927948
0.9927218
0.9926817
0.9926752
0.9927056
0.9927753
0.9928833
0.9930171
0.9931494
0.9932816
0.993416
0.9935499
0.9936654
0.9937431
0.9941123
0.993985
0.9938417
0.9936565
0.9935047
0.9933425
0.993147
0.9930115
0.9928778
0.9927766
0.9926991
0.9926545
0.9926453
0.992674
0.9927424
0.9928524
0.9929951
0.9931442
0.9932956
0.9934503
0.9935834
0.9936838
0.9937433
0.9937483
0.994105
0.9939706
0.9938222
0.9936505
0.9934931
0.993336
0.993159
0.9930273
0.9928999
0.9927957
0.9927123
0.9926585
0.9926391
0.992656
0.9927076
0.9928016
0.9929376
0.9930889
0.9932477
0.9934019
0.9935407
0.9936454
0.9936963
0.9937334
0.9942202
0.9940927
0.9939558
0.9938101
0.9936484
0.9935041
0.993366
0.9932137
0.9930908
0.9929726
0.9928673
0.9927787
0.9927136
0.9926746
0.9926686
0.9926956
0.9927613
0.9928689
0.993002
0.9931499
0.9932961
0.9934315
0.9935067
0.9936286
0.9937149
0.9937114
0.9943447
0.9942119
0.9940844
0.9939445
0.9938091
0.9936687
0.9935446
0.9934308
0.9933093
0.9932024
0.9930977
0.992997
0.9929031
0.9928274
0.9927721
0.9927424
0.9927429
0.9927779
0.9928503
0.9929575
0.9930804
0.9932068
0.9933296
0.9934524
0.9935688
0.9936756
0.9937028
0.9936541
0.9943314
0.9942028
0.9940723
0.9939402
0.9938161
0.9936966
0.9935893
0.9934976
0.9934087
0.993329
0.9932486
0.9931651
0.9930798
0.9930018
0.9929377
0.9928937
0.9928758
0.9928882
0.9929348
0.9930199
0.9931328
0.9932434
0.9933581
0.9934811
0.9936009
0.9936823
0.9937139
0.9936711
0.9943163
0.9941955
0.9940559
0.9939321
0.9938015
0.9936827
0.9935854
0.9935134
0.9934557
0.9934069
0.9933583
0.9933032
0.9932414
0.9931787
0.9931245
0.993086
0.9930697
0.9930802
0.9931215
0.9931979
0.993308
0.9934163
0.9935113
0.9935888
0.9936699
0.9937173
0.9937264
0.993692
0.9943874
0.9943008
0.9941926
0.9940532
0.9939017
0.9937486
0.9936284
0.9935498
0.9935027
0.9934695
0.9934451
0.9934212
0.9933915
0.9933533
0.9933144
0.9932872
0.9932719
0.9932757
0.9933025
0.9933531
0.9934295
0.9935101
0.9935636
0.9935957
0.9936248
0.9936661
0.9937162
0.9937095
0.9936624
0.9935974
0.9943605
0.9942937
0.9941959
0.9940661
0.9938733
0.9936993
0.9935997
0.9935529
0.9935258
0.9935081
0.993495
0.9934825
0.9934658
0.9934449
0.9934248
0.9934165
0.9934218
0.9934483
0.9934792
0.9935023
0.9935025
0.9934966
0.9934926
0.9934869
0.9934982
0.9935342
0.9936006
0.9936275
0.9936142
0.9935849
0.9943298
0.9942821
0.9942023
0.9940904
0.9939034
0.9936989
0.993622
0.9936023
0.9935918
0.9935819
0.9935696
0.9935541
0.993534
0.9935158
0.9934991
0.9934844
0.993474
0.9934687
0.9934662
0.9934647
0.9934618
0.9934568
0.99345
0.9934428
0.9934419
0.9934523
0.9934862
0.9935101
0.9935193
0.9935246
0.9942937
0.9942626
0.9942044
0.9941163
0.9939582
0.9937698
0.993678
0.9936754
0.9936923
0.9936868
0.9936679
0.9936322
0.9936024
0.9935931
0.9935947
0.9935971
0.9935961
0.9935924
0.9935868
0.9935786
0.9935671
0.9935525
0.9935364
0.9935197
0.9935001
0.9934779
0.9934605
0.9934509
0.9934481
0.9934498
0.994252
0.994232
0.9941942
0.9941319
0.9940141
0.9938652
0.9937687
0.9937488
0.9937744
0.9938032
0.9937798
0.9936904
0.9936112
0.9935842
0.9936017
0.9936395
0.9936767
0.9937025
0.9937143
0.9937122
0.9936986
0.9936783
0.9936597
0.9936472
0.9936313
0.9936002
0.9935537
0.9935049
0.9934536
0.9934082
0.9942084
0.994191
0.9941672
0.9941276
0.9940496
0.9939468
0.9938665
0.9938333
0.9938359
0.9938447
0.9938121
0.9937269
0.9936223
0.993546
0.9935307
0.9935738
0.9936474
0.9937215
0.9937774
0.9938063
0.9938074
0.993788
0.993766
0.9937618
0.9937701
0.9937702
0.9937468
0.9937117
0.9936644
0.9936172
0.9941696
0.9941447
0.9941245
0.9940992
0.9940518
0.9939883
0.9939309
0.9938951
0.9938778
0.9938535
0.9937916
0.9936956
0.99359
0.9935068
0.9934729
0.9934982
0.9935731
0.9936734
0.9937716
0.9938445
0.9938787
0.9938738
0.9938485
0.9938384
0.9938568
0.993889
0.993906
0.9939113
0.9938922
0.9938335
0.9941403
0.9940998
0.9940733
0.9940506
0.9940185
0.9939786
0.9939372
0.9939001
0.9938632
0.9938067
0.9937203
0.9936204
0.9935286
0.9934659
0.9934466
0.9934756
0.993548
0.9936502
0.9937624
0.9938605
0.9939237
0.9939403
0.9939214
0.9939039
0.9939141
0.9939506
0.9939835
0.9940168
0.9940268
0.9939847
0.9940713
0.9940275
0.9939932
0.99396
0.9939245
0.9938852
0.9938397
0.9937827
0.9937024
0.9936154
0.9935357
0.9934791
0.9934554
0.9934689
0.9935183
0.9935981
0.9936982
0.993806
0.993903
0.9939723
0.9939999
0.9939924
0.9939775
0.9939824
0.9940116
0.9940357
0.9940743
0.9940929
0.9940743
0.9940083
0.9939554
0.9939107
0.9938617
0.9938098
0.99375
0.9936768
0.9936035
0.9935445
0.9935077
0.9934977
0.9935154
0.9935603
0.9936288
0.9937151
0.9938099
0.9939044
0.9939842
0.9940409
0.9940659
0.9940676
0.9940638
0.9940739
0.9940873
0.9941222
0.9941344
0.9941412
0.9941057
0.9940328
0.9939584
0.9938922
0.993833
0.9937678
0.9937014
0.9936446
0.9936056
0.9935874
0.99359
0.9936151
0.9936592
0.9937195
0.9937936
0.9938761
0.9939567
0.9940309
0.9940875
0.9941256
0.9941472
0.994158
0.9941693
0.9941904
0.9941974
0.9942227
0.9942264
0.9942064
0.9940682
0.9940037
0.9939447
0.9938776
0.993818
0.9937717
0.9937437
0.9937342
0.9937421
0.993766
0.9938043
0.9938539
0.9939138
0.99398
0.9940478
0.9941077
0.994158
0.9941966
0.9942228
0.9942474
0.994272
0.9942974
0.9943133
0.9943512
0.9943485
0.9943247
0.9940917
0.9940342
0.9939949
0.9939662
0.9939327
0.9939206
0.9939235
0.9939394
0.9939674
0.9940053
0.9940512
0.9941025
0.9941547
0.9942032
0.9942454
0.9942795
0.9943071
0.9943316
0.9943713
0.9944106
0.994429
0.9944798
0.9944881
0.9944753
0.9942542
0.9942006
0.9941621
0.9941367
0.9941265
0.9941116
0.9941156
0.9941292
0.9941541
0.9941877
0.9942268
0.9942672
0.9943058
0.9943401
0.99437
0.9943966
0.9944256
0.9944589
0.9945188
0.9945492
0.9945946
0.9946132
0.9946267
0.9946006
0.9943234
0.9942903
0.9942725
0.9942651
0.9942727
0.9942827
0.9942931
0.9943172
0.9943474
0.9943796
0.9944107
0.9944394
0.9944658
0.9944926
0.9945218
0.9945592
0.9946017
0.9946581
0.9947053
0.9947079
0.9947293
0.9947189
0.9944212
0.9943943
0.9943878
0.9944012
0.9944202
0.9944371
0.9944631
0.9944907
0.9945177
0.9945429
0.9945671
0.9945925
0.9946227
0.9946564
0.9946814
0.9947432
0.9947882
0.9947921
0.9947853
0.9947911
0.9945233
0.9945338
0.9945424
0.9945546
0.9945872
0.9946149
0.9946398
0.9946626
0.9946857
0.9947124
0.994744
0.9947741
0.9947906
0.994818
0.9948645
0.994846
0.9946612
0.9946581
0.9946669
0.9947135
0.9947387
0.9947595
0.9947783
0.9947987
0.9948226
0.9948463
0.9948592
0.9948584
0.9948676
0.9948958
0.9948395
0.9948544
0.9948677
0.9948786
0.9948914
0.9949049
0.9949108
0.9949062
0.9932448
0.9931584
0.9930822
0.9930309
0.9930022
0.9929969
0.9937077
0.993555
0.9933983
0.9932397
0.9931511
0.9930571
0.9929874
0.9929425
0.9929183
0.9929073
0.9929286
0.9929702
0.9930166
0.9930539
0.9939336
0.9937625
0.9936295
0.9934666
0.9933305
0.9931479
0.993046
0.9929544
0.9928921
0.9928566
0.9928449
0.9928561
0.9928982
0.9929506
0.9930056
0.9930535
0.9931089
0.9931434
0.9939976
0.9938814
0.9937256
0.993549
0.9933696
0.9932069
0.9930513
0.9929236
0.9928362
0.9927845
0.9927625
0.9927682
0.9928019
0.9928658
0.992936
0.9930058
0.9930718
0.9931345
0.9931854
0.9932343
0.9940987
0.9939738
0.9938414
0.9936565
0.9934754
0.9932712
0.9930922
0.9929321
0.9928082
0.9927292
0.9926898
0.9926829
0.9927071
0.992761
0.9928395
0.9929266
0.9930159
0.9931063
0.9931873
0.9932654
0.9933428
0.9934054
0.9942052
0.9940915
0.9939383
0.9937708
0.9936007
0.9933988
0.9931832
0.9929911
0.992826
0.9927063
0.992636
0.9926087
0.9926175
0.9926608
0.9927356
0.9928341
0.9929428
0.9930543
0.9931674
0.9932836
0.9933896
0.9935039
0.9936307
0.9936991
0.9943137
0.99419
0.9940592
0.9938975
0.9937241
0.9935463
0.9933352
0.9931114
0.992913
0.992745
0.9926276
0.9925626
0.9925439
0.9925651
0.9926246
0.992719
0.9928395
0.992973
0.9931111
0.9932519
0.9933948
0.9935344
0.9936635
0.9937383
0.9937635
0.9937197
0.9944395
0.994297
0.9941739
0.9940219
0.9938608
0.9936863
0.9935023
0.9932883
0.9930661
0.9928702
0.9927024
0.9925833
0.9925161
0.9924975
0.992522
0.9925882
0.992692
0.9928268
0.9929806
0.9931411
0.9933015
0.993455
0.9935908
0.9936895
0.9937244
0.9937091
0.9936617
0.9936117
0.9945169
0.9944115
0.9942857
0.9941559
0.9939957
0.9938315
0.993655
0.993469
0.993262
0.9930528
0.9928694
0.9927087
0.9925876
0.9925115
0.9924801
0.9924882
0.9925423
0.9926412
0.9927772
0.9929377
0.9931083
0.9932782
0.9934335
0.9935588
0.9936394
0.9936731
0.9936768
0.9936233
0.9935762
0.9935484
0.9944974
0.9943992
0.9942762
0.9941252
0.9939722
0.993807
0.9936311
0.9934534
0.9932659
0.9930804
0.9929162
0.9927671
0.9926436
0.992553
0.992501
0.9924892
0.9925194
0.9925926
0.9927069
0.9928524
0.9930141
0.9931792
0.9933309
0.9934561
0.9935399
0.9936321
0.9936667
0.9936118
0.9935463
0.9935128
0.9945474
0.9944733
0.9943864
0.9942512
0.9941053
0.9939527
0.9937883
0.9936208
0.9934639
0.9933079
0.9931559
0.993018
0.9928877
0.9927706
0.9926734
0.9926043
0.9925678
0.9925671
0.9926047
0.9926806
0.9927884
0.9929211
0.9930641
0.9932028
0.9933299
0.9934564
0.9935812
0.9936552
0.9936069
0.9935338
0.9934897
0.9934519
0.9945224
0.9944591
0.9943718
0.9942349
0.9940902
0.9939364
0.9937779
0.9936285
0.9934973
0.9933774
0.9932664
0.9931646
0.9930633
0.9929625
0.9928674
0.9927879
0.9927322
0.992706
0.992713
0.992754
0.9928263
0.9929277
0.9930494
0.9931752
0.9933058
0.9934391
0.9935634
0.9936409
0.9936255
0.9935314
0.9934792
0.9934281
0.9944878
0.9944363
0.9943545
0.9942224
0.994078
0.9939209
0.9937647
0.9936252
0.9935105
0.9934179
0.993343
0.9932787
0.993213
0.9931408
0.9930651
0.9929941
0.9929393
0.992908
0.992905
0.9929323
0.9929893
0.9930748
0.9931878
0.9933085
0.9934153
0.9935074
0.9935915
0.993645
0.9936342
0.9935594
0.9934888
0.9934473
0.9944513
0.9944072
0.9943289
0.9942112
0.99407
0.9939032
0.9937273
0.9935854
0.9934833
0.993417
0.993373
0.9933394
0.9933053
0.9932637
0.9932118
0.9931632
0.9931314
0.9931182
0.9931294
0.9931671
0.9932311
0.9933174
0.993398
0.9934571
0.9935022
0.9935474
0.9935995
0.9936382
0.9936192
0.993561
0.9935084
0.9934813
0.9944604
0.9944059
0.9943709
0.994305
0.9942036
0.9940701
0.9938926
0.9936828
0.993547
0.9934733
0.9934355
0.9934136
0.9933968
0.9933794
0.9933577
0.9933305
0.9933041
0.993292
0.9932974
0.9933285
0.9933705
0.9934014
0.9934083
0.9934091
0.9934113
0.9934164
0.9934394
0.9934874
0.9935457
0.9935569
0.9935281
0.9935047
0.9934788
0.9934702
0.9944258
0.9943739
0.9943353
0.9942799
0.9941966
0.9940782
0.9939077
0.9936836
0.9935517
0.993512
0.9934991
0.9934905
0.9934792
0.9934653
0.9934465
0.9934279
0.993412
0.9933994
0.9933924
0.9933905
0.9933911
0.9933914
0.9933889
0.9933837
0.9933776
0.9933719
0.9933738
0.9933894
0.9934227
0.9934437
0.993449
0.9934636
0.9934551
0.99344
0.994395
0.9943387
0.9942971
0.9942498
0.994185
0.9940889
0.9939412
0.9937393
0.993602
0.9935759
0.9935943
0.9935973
0.9935834
0.9935548
0.9935217
0.9935062
0.9935045
0.9935081
0.9935114
0.9935128
0.9935113
0.9935053
0.9934936
0.993478
0.9934627
0.9934487
0.9934314
0.9934093
0.9933887
0.9933767
0.9933731
0.993384
0.9933833
0.9933176
0.9943723
0.9943063
0.994258
0.9942133
0.9941635
0.9940917
0.9939782
0.9938153
0.9936857
0.993646
0.9936687
0.9937037
0.9937019
0.9936225
0.9935392
0.9934991
0.9935029
0.9935344
0.9935742
0.9936082
0.9936295
0.9936346
0.9936237
0.993603
0.9935859
0.9935801
0.9935757
0.9935582
0.993525
0.9934842
0.9934412
0.9934012
0.993384
0.993401
0.994361
0.9942825
0.9942227
0.994173
0.9941302
0.9940786
0.9939998
0.9938849
0.9937781
0.9937265
0.9937273
0.9937444
0.9937304
0.9936585
0.9935558
0.9934692
0.9934357
0.9934616
0.9935275
0.9936059
0.9936742
0.9937174
0.9937286
0.9937124
0.9936923
0.9936953
0.9937198
0.9937432
0.9937481
0.9937345
0.9937078
0.9936653
0.993643
0.9936166
0.994351
0.9942694
0.9941964
0.9941356
0.9940892
0.9940472
0.9939945
0.9939209
0.9938462
0.9937958
0.9937731
0.9937583
0.9937132
0.9936276
0.9935221
0.9934295
0.99338
0.993389
0.9934524
0.9935506
0.9936567
0.9937443
0.9937933
0.993798
0.9937789
0.993776
0.9938093
0.9938634
0.9939101
0.9939373
0.993948
0.9939203
0.9938973
0.9938034
0.9942624
0.9941789
0.9941115
0.9940514
0.9940046
0.9939616
0.9939125
0.9938609
0.993817
0.9937795
0.9937315
0.9936528
0.9935543
0.9934568
0.9933833
0.9933516
0.9933697
0.9934354
0.9935366
0.9936537
0.9937623
0.993838
0.9938663
0.9938593
0.9938549
0.9938828
0.9939409
0.9940037
0.9940512
0.9940834
0.9940766
0.9940773
0.9942865
0.9942028
0.9941109
0.9940318
0.9939679
0.9939161
0.9938689
0.993822
0.9937738
0.9937192
0.9936429
0.993553
0.9934676
0.9934023
0.9933696
0.9933758
0.9934211
0.9935002
0.993603
0.9937155
0.9938198
0.9938972
0.9939353
0.9939427
0.9939483
0.9939778
0.9940323
0.9940935
0.9941398
0.9941601
0.9941791
0.9941687
0.9943265
0.9942326
0.9941343
0.9940404
0.9939574
0.993886
0.9938228
0.9937623
0.9936987
0.9936253
0.9935487
0.9934854
0.9934421
0.9934254
0.9934389
0.9934822
0.9935513
0.9936397
0.9937379
0.993836
0.9939213
0.9939839
0.9940201
0.99404
0.9940628
0.9941024
0.9941551
0.9942113
0.9942455
0.9942457
0.9942557
0.9942386
0.9943861
0.9942884
0.9941845
0.994092
0.9939932
0.9939022
0.9938196
0.993742
0.9936688
0.9936077
0.993565
0.9935433
0.9935433
0.9935646
0.9936063
0.9936668
0.9937418
0.9938248
0.9939078
0.9939839
0.9940463
0.9940923
0.9941278
0.9941623
0.9942034
0.994253
0.9943049
0.9943503
0.9943701
0.9943563
0.9943466
0.9943054
0.994335
0.9942655
0.9941638
0.9940747
0.993979
0.9938929
0.9938234
0.9937726
0.9937386
0.9937224
0.9937243
0.9937432
0.9937775
0.993825
0.9938837
0.9939495
0.9940167
0.9940791
0.9941335
0.9941794
0.9942178
0.9942614
0.9943122
0.9943647
0.9944148
0.9944614
0.994491
0.9944844
0.9944836
0.994447
0.9944318
0.9943501
0.9942817
0.9941806
0.9941013
0.9940387
0.9939891
0.9939527
0.9939315
0.9939262
0.9939358
0.9939592
0.9939943
0.9940387
0.9940892
0.9941417
0.994192
0.9942378
0.9942787
0.9943192
0.9943601
0.9944175
0.9944765
0.9945245
0.9945651
0.9945982
0.9946012
0.9946075
0.9945841
0.9945422
0.9944266
0.9943643
0.9943111
0.9942478
0.994195
0.9941563
0.9941304
0.9941174
0.9941183
0.9941314
0.9941557
0.9941893
0.994229
0.9942709
0.994312
0.9943504
0.9943871
0.9944241
0.9944683
0.9945133
0.9945766
0.9946241
0.9946547
0.9946796
0.9947032
0.9946989
0.9946934
0.9946668
0.9944588
0.9944123
0.9943763
0.9943371
0.9943096
0.9942917
0.9942857
0.9942914
0.9943071
0.994332
0.9943638
0.9943987
0.9944335
0.9944668
0.9944992
0.9945335
0.9945707
0.9946158
0.9946525
0.994704
0.9947288
0.99474
0.9947554
0.9947649
0.9947679
0.9947522
0.9945048
0.9944743
0.9944593
0.9944494
0.9944392
0.9944393
0.9944488
0.9944677
0.9944929
0.9945231
0.9945537
0.9945828
0.9946108
0.9946399
0.9946713
0.9947021
0.9947347
0.9947505
0.9947863
0.9947928
0.9947931
0.994793
0.9948038
0.9948009
0.9945747
0.9945655
0.9945723
0.9945735
0.9945835
0.9945955
0.9946179
0.9946423
0.9946706
0.9946966
0.9947193
0.9947414
0.9947644
0.994785
0.9947992
0.9948131
0.9948088
0.9948394
0.9948244
0.9948207
0.9948083
0.9948202
0.9946731
0.9946818
0.9946941
0.9947141
0.9947323
0.9947595
0.9947816
0.9948061
0.994824
0.9948369
0.9948495
0.9948609
0.9948637
0.9948619
0.9948645
0.9948524
0.9948688
0.9948436
0.9948316
0.9948182
0.9947982
0.9947996
0.9948377
0.9948516
0.9948877
0.9948971
0.9949235
0.9949302
0.9949305
0.9949319
0.9949301
0.9949162
0.9948957
0.9948967
0.9948803
0.9948903
0.994857
0.9948368
0.9949565
0.9949568
0.9949844
0.9949921
0.9950071
0.9950022
0.9949908
0.9949823
0.9949711
0.9949454
0.9949153
0.9949223
0.9949082
0.9949274
0.9950705
0.9950522
0.9950307
0.9950165
0.9950036
0.99499
0.9937206
0.9935801
0.9934431
0.9933378
0.9932483
0.9931855
0.9931427
0.9931164
0.9931105
0.9931262
0.994032
0.9939011
0.9937359
0.9936231
0.9934822
0.9933145
0.9932083
0.9931247
0.9930685
0.9930341
0.9930193
0.9930223
0.9930328
0.9930669
0.9931048
0.9931431
0.9940699
0.993991
0.9937978
0.9936315
0.9934861
0.9933195
0.9931749
0.9930388
0.9929594
0.9929149
0.9928992
0.9929123
0.9929392
0.9929746
0.9930222
0.9930719
0.9931209
0.9931731
0.9942973
0.9941619
0.9940175
0.9938773
0.993701
0.993503
0.9933234
0.9931352
0.9929809
0.9928569
0.9927891
0.9927598
0.992762
0.9927912
0.9928381
0.9928971
0.9929647
0.9930355
0.9930969
0.9931551
0.9932235
0.9932698
0.9943464
0.9942636
0.9940986
0.9939497
0.9937814
0.9935858
0.9933677
0.993158
0.9929554
0.9927984
0.9926908
0.9926395
0.9926273
0.9926465
0.9926904
0.9927517
0.9928243
0.9929033
0.9929861
0.9930715
0.9931609
0.9932374
0.9933088
0.9933782
0.9944272
0.9943197
0.9942003
0.9940364
0.993874
0.9936919
0.9934791
0.9932398
0.993005
0.9927931
0.9926424
0.9925537
0.9925211
0.9925275
0.9925646
0.992624
0.9926979
0.9927808
0.9928699
0.9929667
0.9930732
0.9931881
0.9933046
0.9933935
0.9934818
0.9935653
0.9945122
0.9943986
0.994279
0.9941363
0.9939671
0.9938026
0.9936143
0.9933856
0.9931294
0.9928734
0.9926563
0.9925157
0.9924455
0.9924319
0.9924589
0.9925176
0.9925981
0.9926917
0.9927928
0.9929009
0.9930195
0.9931513
0.9932935
0.9934403
0.9935758
0.9936485
0.9936843
0.9937089
0.9945836
0.9944833
0.9943707
0.9942212
0.9940706
0.9939066
0.9937422
0.9935496
0.9933128
0.9930436
0.9927714
0.9925512
0.9924193
0.9923634
0.9923663
0.9924137
0.9924965
0.9926042
0.9927272
0.9928598
0.9930018
0.9931556
0.9933188
0.9934798
0.9936191
0.9937088
0.9937397
0.993737
0.9937333
0.9937143
0.9945613
0.9944629
0.9943239
0.9941671
0.9940177
0.9938606
0.9936958
0.9934979
0.9932544
0.9929847
0.9927128
0.992488
0.9923572
0.9923055
0.9923152
0.9923715
0.9924706
0.9926011
0.9927513
0.9929134
0.9930843
0.9932601
0.9934293
0.9935693
0.9936544
0.9936779
0.9936742
0.9936628
0.9936523
0.9936657
0.9946033
0.9945254
0.9944219
0.9942769
0.9941257
0.9939804
0.9938277
0.9936596
0.9934561
0.9932119
0.9929518
0.9926983
0.9924798
0.9923369
0.9922685
0.992267
0.9923236
0.9924281
0.9925676
0.9927299
0.9929063
0.9930891
0.9932677
0.9934237
0.9935351
0.9935892
0.9936125
0.9935965
0.9935606
0.9935605
0.9935803
0.9936017
0.9946382
0.994577
0.9945024
0.9943812
0.9942395
0.9940954
0.9939551
0.9938027
0.993629
0.9934239
0.9931909
0.9929534
0.9927277
0.9925266
0.9923796
0.9922937
0.9922684
0.9923002
0.9923846
0.9925091
0.9926605
0.9928293
0.9930061
0.9931783
0.9933282
0.9934406
0.9935201
0.9935777
0.9935564
0.9934864
0.9934585
0.993479
0.9935341
0.9935386
0.9946141
0.9945556
0.9944706
0.9943466
0.9942116
0.9940758
0.9939377
0.9937803
0.9936042
0.9934117
0.9932094
0.9930124
0.9928281
0.9926578
0.9925172
0.9924165
0.9923621
0.9923564
0.9923987
0.9924826
0.992598
0.9927349
0.9928861
0.9930396
0.9931818
0.9933073
0.9934463
0.9935505
0.9935437
0.9934476
0.9933944
0.9933972
0.9934096
0.9934333
0.9945808
0.9945233
0.9944321
0.9943169
0.9941924
0.9940637
0.9939218
0.9937608
0.9935913
0.9934242
0.9932659
0.9931217
0.9929886
0.9928593
0.9927381
0.9926338
0.9925575
0.9925181
0.9925194
0.9925595
0.9926325
0.9927307
0.9928488
0.9929793
0.9931143
0.993255
0.9933951
0.9935143
0.993546
0.9934429
0.99336
0.9933326
0.9933229
0.993323
0.9946308
0.9945475
0.9944863
0.9943951
0.9942903
0.9941781
0.9940528
0.9939069
0.9937427
0.9935797
0.9934355
0.9933162
0.9932205
0.993137
0.9930524
0.9929631
0.9928748
0.9927988
0.9927482
0.9927302
0.9927465
0.9927949
0.9928702
0.9929684
0.993092
0.9932162
0.9933276
0.9934279
0.9935133
0.9935462
0.9934689
0.9933658
0.9933231
0.9932895
0.9932661
0.9932756
0.9946034
0.9945257
0.9944518
0.994359
0.9942639
0.9941651
0.9940436
0.9938938
0.9937158
0.9935416
0.9934136
0.9933273
0.9932703
0.9932263
0.9931812
0.9931273
0.9930634
0.9930075
0.9929741
0.9929667
0.9929891
0.9930408
0.9931228
0.9932174
0.993294
0.9933547
0.9934079
0.9934645
0.9935206
0.9935391
0.9934815
0.9933923
0.9933389
0.9932977
0.9932401
0.9932355
0.9945748
0.9944944
0.9944127
0.9943222
0.9942373
0.9941508
0.9940374
0.9938869
0.9936821
0.9934972
0.9933957
0.9933435
0.993315
0.9932937
0.9932713
0.9932439
0.993211
0.993181
0.993168
0.9931773
0.9932157
0.993269
0.9933007
0.9933114
0.9933163
0.9933236
0.9933382
0.9933726
0.9934278
0.9934682
0.9934471
0.9933947
0.9933549
0.9933239
0.993264
0.9932203
0.9945544
0.9944658
0.9943745
0.9942864
0.994209
0.9941341
0.9940336
0.9938925
0.993685
0.9934894
0.993422
0.9934017
0.9933923
0.9933815
0.9933676
0.9933516
0.9933338
0.9933187
0.993309
0.993306
0.9933071
0.9933105
0.9933117
0.9933088
0.9933031
0.9932981
0.9932955
0.9933005
0.9933194
0.9933463
0.99335
0.9933371
0.9933214
0.9932868
0.9932438
0.9932562
0.9945373
0.9944431
0.9943443
0.9942537
0.9941787
0.9941133
0.9940285
0.9939072
0.9937216
0.99354
0.9934769
0.99349
0.9934985
0.9934904
0.9934679
0.9934337
0.993413
0.9934077
0.9934118
0.9934189
0.9934252
0.9934279
0.9934238
0.9934117
0.9933954
0.9933818
0.9933715
0.9933566
0.9933342
0.9933102
0.9932896
0.9932703
0.9932508
0.9932425
0.993277
0.9933842
0.9945276
0.9944293
0.9943235
0.9942268
0.9941482
0.9940871
0.9940182
0.9939213
0.9937729
0.993618
0.9935472
0.9935591
0.9935962
0.9936107
0.9935446
0.9934582
0.9934071
0.9933978
0.9934218
0.9934625
0.9935036
0.9935341
0.9935465
0.9935383
0.9935175
0.9935029
0.9935049
0.9935106
0.9935027
0.9934795
0.9934526
0.9934338
0.9934321
0.9934524
0.9934967
0.9935752
0.9945257
0.9944251
0.9943143
0.9942099
0.9941225
0.9940568
0.9939986
0.9939256
0.993817
0.9936975
0.9936261
0.9936172
0.9936366
0.993637
0.9935785
0.9934787
0.9933839
0.9933346
0.9933447
0.9934024
0.9934831
0.9935619
0.9936182
0.9936386
0.9936258
0.9936078
0.993619
0.9936584
0.9936992
0.9937226
0.9937309
0.9937348
0.993741
0.9937509
0.9937495
0.9937682
0.9945213
0.9944219
0.9943215
0.9942074
0.994108
0.9940302
0.9939709
0.9939131
0.993838
0.9937527
0.9936899
0.993663
0.9936525
0.993621
0.9935464
0.9934434
0.9933445
0.9932826
0.9932778
0.993331
0.9934267
0.9935389
0.9936384
0.9936995
0.9937121
0.9936978
0.9937024
0.9937502
0.9938223
0.9938855
0.9939281
0.9939566
0.9939738
0.9939842
0.993956
0.9939392
0.9945302