/*--------------------------------*- C++ -*----------------------------------*\
  =========                 |
  \\      /  F ield         | OpenFOAM: The Open Source CFD Toolbox
   \\    /   O peration     | Website:  https://openfoam.org
    \\  /    A nd           | Version:  6
     \\/     M anipulation  |
\*---------------------------------------------------------------------------*/
FoamFile
{
    version     2.0;
    format      ascii;
    class       volScalarField;
    location    "50";
    object      rhok;
}
// * * * * * * * * * * * * * * * * * * * * * * * * * * * * * * * * * * * * * //

dimensions      [0 0 0 0 0 0 0];

internalField   nonuniform List<scalar> 
203709
(
0.9927723
0.9927093
0.9926368
0.9926101
0.9930036
0.9929705
0.9928902
0.9928453
0.9927889
0.9927457
0.9927051
0.9927608
0.9930554
0.993044
0.9930414
0.9930276
0.9929914
0.9929596
0.9929241
0.9928985
0.9928759
0.9928964
0.9928908
0.9929278
0.9930736
0.9930687
0.9930679
0.9930669
0.9930634
0.9930551
0.9930435
0.993027
0.9930146
0.9930103
0.9930263
0.9930354
0.9930491
0.9930782
0.9930818
0.9930776
0.9930747
0.9930725
0.9930719
0.9930727
0.9930783
0.9930868
0.9930903
0.9930923
0.9931014
0.9931062
0.9931041
0.9931089
0.9931034
0.9931061
0.9931016
0.9930959
0.9930884
0.9930782
0.9930583
0.9930545
0.9930746
0.9931023
0.9931183
0.9931179
0.993107
0.9930924
0.9930763
0.9930888
0.9931276
0.9931476
0.9931773
0.9932221
0.9932205
0.9931644
0.9930871
0.9930289
0.9930266
0.9930755
0.9931379
0.9931815
0.993197
0.9931921
0.9931791
0.9931626
0.9932173
0.9931605
0.993184
0.9932293
0.9932871
0.9933188
0.9932791
0.9931806
0.9930689
0.9930032
0.9930142
0.993084
0.9931712
0.9932403
0.9932771
0.9932857
0.993274
0.9932807
0.9932663
0.993225
0.9932325
0.993268
0.9933092
0.9933254
0.9932919
0.9932089
0.9931054
0.9930257
0.9930033
0.9930439
0.9931279
0.9932233
0.9933018
0.9933482
0.9933625
0.9933485
0.9933274
0.9932922
0.9932896
0.9933099
0.9933305
0.993322
0.9932707
0.9931862
0.9930971
0.9930358
0.9930224
0.9930585
0.9931315
0.9932222
0.99331
0.9933774
0.9934147
0.9934162
0.9933636
0.993345
0.9933376
0.9933423
0.9933348
0.9932928
0.9932201
0.9931375
0.9930723
0.9930449
0.9930608
0.9931132
0.9931882
0.9932717
0.9933508
0.9934147
0.9934565
0.9934551
0.9933613
0.9933482
0.9933321
0.9932878
0.9932188
0.9931442
0.9930873
0.9930653
0.9930833
0.9931353
0.9932085
0.9932887
0.993366
0.9934318
0.9934813
0.9935064
0.9933361
0.993301
0.9932506
0.9931856
0.9931251
0.993087
0.9930837
0.9931175
0.9931809
0.9932618
0.9933467
0.9934253
0.9934921
0.9935413
0.993574
0.9935619
0.9932104
0.9931519
0.9931128
0.9931025
0.9931255
0.9931804
0.9932586
0.9933489
0.9934385
0.9935191
0.9935842
0.9936349
0.9936647
0.9936723
0.9931936
0.9931588
0.9931829
0.9932304
0.9932981
0.9933834
0.9934752
0.993564
0.9936406
0.9937025
0.9937466
0.9937808
0.9937892
0.9937544
0.9934251
0.9934229
0.9934782
0.9935507
0.9936358
0.9937149
0.9937841
0.9938367
0.9938759
0.9939027
0.99393
0.9939118
0.993779
0.9937906
0.9938738
0.9939335
0.99398
0.9940114
0.9940315
0.9940297
0.9940996
0.9941138
0.9941387
0.9941415
0.9927878
0.9926435
0.9925384
0.9924502
0.9923783
0.992311
0.9922352
0.9921491
0.9920595
0.9920091
0.9931515
0.9929381
0.9927977
0.9926887
0.992591
0.9925001
0.99242
0.9923482
0.9922763
0.9922019
0.9921269
0.992071
0.9920634
0.9920996
0.993265
0.9931346
0.9929848
0.9928654
0.9927718
0.9926835
0.9925878
0.9924934
0.9924148
0.9923473
0.9922837
0.9922178
0.9921707
0.9921549
0.9921698
0.9922269
0.9933718
0.993249
0.9931432
0.9930397
0.9929506
0.9928752
0.9927854
0.9927054
0.9926031
0.992518
0.992453
0.9923704
0.9923302
0.9922994
0.9922795
0.9922875
0.9923286
0.9923904
0.9934514
0.9933119
0.9931983
0.993116
0.9930492
0.9929945
0.9929524
0.9928888
0.9928171
0.9927369
0.9926573
0.9925759
0.9925233
0.9924848
0.9924343
0.9924299
0.9924419
0.9924717
0.9925149
0.9925717
0.9935368
0.9933635
0.9932096
0.99312
0.9930662
0.9930218
0.9929974
0.9929804
0.9929462
0.9929053
0.9928478
0.9927901
0.9927241
0.9926746
0.9926302
0.992615
0.9926486
0.9926338
0.9926588
0.9926953
0.9927324
0.9927744
0.993434
0.993252
0.9931339
0.9930702
0.9930322
0.9930122
0.9929941
0.9929853
0.9929726
0.9929569
0.9929325
0.9929019
0.9928585
0.9928347
0.9928142
0.9928109
0.9928428
0.9929094
0.992913
0.9929397
0.9929674
0.9929804
0.993671
0.9934146
0.9931938
0.9930978
0.9930542
0.9930333
0.9930079
0.9929951
0.99299
0.9929876
0.9929868
0.9929871
0.9929864
0.9929778
0.9929702
0.9929654
0.9929735
0.9929983
0.9930412
0.9930366
0.9930375
0.9930384
0.9930383
0.9930315
0.9936668
0.9934236
0.993201
0.9931002
0.9930613
0.9930421
0.9930245
0.9930152
0.9930084
0.9930013
0.9929846
0.9929784
0.9929913
0.9930132
0.9930297
0.9930351
0.9930332
0.9930295
0.9930282
0.993029
0.9930246
0.9930182
0.9930074
0.9929946
0.9936633
0.9934611
0.9932562
0.9931318
0.9930871
0.9930749
0.9930912
0.9931219
0.9931237
0.9930869
0.9930202
0.9929658
0.992956
0.9929909
0.9930444
0.9930898
0.9931149
0.9931232
0.9931225
0.9931175
0.9931174
0.9931005
0.9930782
0.9930482
0.9936573
0.9935053
0.9933285
0.993207
0.9931287
0.9931175
0.9931498
0.99321
0.9932509
0.9932125
0.9931189
0.9930134
0.9929461
0.9929442
0.9929982
0.9930772
0.9931509
0.9932034
0.9932322
0.9932318
0.9932385
0.9932235
0.9932015
0.9931659
0.9936421
0.9935391
0.9934034
0.9932877
0.9932017
0.9931773
0.9932005
0.9932439
0.9932674
0.9932418
0.9931661
0.9930657
0.9929813
0.9929464
0.9929717
0.9930444
0.993138
0.9932271
0.9932953
0.9933367
0.9933448
0.9933419
0.9933238
0.9932937
0.9936131
0.9935502
0.9934561
0.9933623
0.993285
0.9932511
0.993257
0.9932761
0.9932753
0.9932345
0.9931579
0.9930696
0.9930009
0.9929752
0.9929993
0.9930654
0.9931564
0.9932532
0.9933396
0.9934049
0.9934277
0.9934363
0.9934253
0.9934031
0.9935716
0.9935344
0.9934754
0.9934097
0.9933602
0.9933208
0.9933089
0.9933012
0.9932663
0.993201
0.993121
0.9930515
0.9930149
0.9930217
0.9930692
0.9931459
0.9932372
0.9933298
0.9934136
0.9934833
0.9935008
0.9935192
0.9935114
0.9934919
0.9935268
0.993497
0.99346
0.9934204
0.9933762
0.9933413
0.9933145
0.9932743
0.9932103
0.9931368
0.993076
0.9930472
0.9930592
0.9931096
0.9931877
0.99328
0.9933734
0.9934582
0.9935285
0.9935676
0.9936024
0.9936064
0.9935943
0.9935708
0.9934937
0.993453
0.9934177
0.9933822
0.9933444
0.9933059
0.9932569
0.993191
0.9931272
0.9930843
0.9930764
0.9931076
0.9931728
0.9932619
0.9933613
0.9934605
0.9935484
0.993619
0.9936712
0.993679
0.9937067
0.9937037
0.9936818
0.9936478
0.9934843
0.9934242
0.9933731
0.993327
0.9932742
0.9932274
0.9931648
0.9931217
0.9931095
0.9931328
0.9931895
0.9932722
0.9933707
0.993476
0.9935765
0.9936675
0.9937385
0.9937888
0.9937982
0.9938302
0.9938284
0.9938111
0.9937767
0.9937215
0.9934426
0.9933708
0.993306
0.9932454
0.9932277
0.9932023
0.9932227
0.9932683
0.9933387
0.9934259
0.9935224
0.9936208
0.9937174
0.9937997
0.9938717
0.9939185
0.9939524
0.9939468
0.9939653
0.9939569
0.9939291
0.9938815
0.9935867
0.9935137
0.9934594
0.9934338
0.9934343
0.9934729
0.9935129
0.993557
0.993628
0.9937064
0.993788
0.993867
0.9939434
0.9939969
0.9940463
0.9940671
0.9940753
0.9941022
0.9940979
0.9940871
0.994058
0.9939771
0.9936888
0.9936689
0.9936682
0.993681
0.9937109
0.9937635
0.9938276
0.9938924
0.9939556
0.9940184
0.9940738
0.9941275
0.9941504
0.9941648
0.9941961
0.9941975
0.9942161
0.9942221
0.9942134
0.9941801
0.9938566
0.9938634
0.9938941
0.9939265
0.993976
0.9940351
0.9941047
0.9941549
0.9942015
0.9942323
0.9942452
0.9942674
0.994268
0.9942785
0.9942892
0.9943148
0.9943098
0.9942921
0.9940277
0.9940812
0.9941105
0.9941743
0.9942265
0.9942688
0.9943029
0.9943261
0.9943343
0.9943315
0.9943272
0.9943293
0.9943387
0.9943439
0.9943593
0.9943431
0.9942537
0.9942686
0.9943482
0.9943795
0.9944019
0.9944084
0.9944016
0.9943891
0.9943735
0.9943591
0.9943531
0.9943561
0.994358
0.9943651
0.9944647
0.9944759
0.9944736
0.994455
0.9944278
0.9944016
0.994377
0.9943571
0.9943478
0.9943531
0.9927274
0.9925954
0.992509
0.9924433
0.9923684
0.9922604
0.9921192
0.991967
0.9933306
0.9930544
0.9928142
0.9926709
0.9925546
0.9924736
0.9924111
0.9923402
0.9922392
0.9921064
0.9919641
0.9918819
0.9918669
0.9918941
0.9934197
0.9932586
0.9930075
0.992787
0.9926365
0.9925231
0.9924401
0.9923766
0.9923091
0.9922183
0.9921028
0.9919814
0.9919192
0.9919191
0.9919706
0.9920958
0.993748
0.9935581
0.993379
0.9932018
0.9929731
0.9927909
0.9926234
0.992508
0.9924179
0.992348
0.9922805
0.9921999
0.9921046
0.9920053
0.9919557
0.9919565
0.9920294
0.9921647
0.9923914
0.9925774
0.993816
0.993708
0.9935291
0.993345
0.9931752
0.9929483
0.9927776
0.9926325
0.9925184
0.9924203
0.9923391
0.9922665
0.9921924
0.9921154
0.992039
0.9919964
0.9919974
0.9920675
0.9921891
0.9923804
0.9925996
0.9928339
0.9938778
0.9937924
0.9936791
0.9934957
0.9933216
0.9931358
0.9929485
0.9928053
0.9926804
0.9925718
0.9924689
0.9923766
0.9922959
0.9922226
0.992156
0.9920958
0.9920578
0.9920517
0.9920982
0.9921899
0.9923463
0.9925107
0.9927039
0.9927912
0.9938637
0.9937728
0.9936445
0.9934614
0.9932765
0.9931213
0.9929713
0.9928582
0.9927563
0.9926604
0.9925617
0.9924643
0.9923767
0.9923006
0.9922312
0.9921725
0.9921343
0.9921256
0.9921547
0.9922245
0.9923277
0.9924648
0.9925988
0.9927143
0.9938958
0.9938362
0.9937418
0.9935928
0.9933946
0.993231
0.9930974
0.9929794
0.9928968
0.9928224
0.9927476
0.9926654
0.9925772
0.9924902
0.9924091
0.9923381
0.9922854
0.9922466
0.9922362
0.9922588
0.9923115
0.9923977
0.9924927
0.9925943
0.9926969
0.9927738
0.9939033
0.9938789
0.9938176
0.9936974
0.9935093
0.9933087
0.9931529
0.993038
0.9929544
0.9929031
0.9928618
0.9928169
0.9927602
0.9926942
0.9926262
0.9925546
0.9924909
0.9924409
0.992409
0.9924113
0.9924307
0.9924739
0.9925371
0.9926235
0.992713
0.992781
0.9928506
0.9929104
0.9938871
0.9938626
0.9937945
0.9936482
0.993419
0.9932067
0.9930653
0.992977
0.9929264
0.9928989
0.9928803
0.9928604
0.992835
0.9928008
0.9927584
0.9927041
0.9926663
0.992635
0.99262
0.9926337
0.9926769
0.9927226
0.9927774
0.9928401
0.9929104
0.9929464
0.9929761
0.9930046
0.9938615
0.9938405
0.9937709
0.9935895
0.9933442
0.9931291
0.9930092
0.9929489
0.9929175
0.9929033
0.9928969
0.9928931
0.9928897
0.9928847
0.9928759
0.992858
0.9928407
0.9928265
0.9928311
0.9928566
0.9929024
0.9929306
0.9929492
0.9929647
0.9929918
0.9930029
0.9930109
0.9930347
0.9938484
0.9938232
0.9938097
0.9937479
0.9935665
0.9933217
0.9930962
0.9929882
0.9929486
0.9929303
0.9929226
0.9929169
0.9929107
0.9928975
0.9928906
0.9928998
0.9929186
0.9929354
0.9929442
0.9929472
0.9929495
0.9929544
0.9929543
0.9929566
0.9929573
0.9929577
0.992959
0.9929489
0.992943
0.9929298
0.9938244
0.9937944
0.9937772
0.9937257
0.993566
0.9933384
0.9931205
0.9930019
0.9929705
0.9929828
0.9930069
0.9930116
0.9929891
0.9929311
0.9928808
0.992868
0.9928958
0.9929447
0.9929916
0.9930226
0.9930383
0.9930446
0.9930434
0.9930433
0.9930376
0.9930276
0.9930097
0.9929784
0.9929385
0.9928959
0.9938023
0.9937618
0.9937406
0.9937003
0.9935746
0.9933807
0.9931797
0.9930512
0.9930096
0.9930323
0.9930941
0.9931475
0.993114
0.9930256
0.9929265
0.9928609
0.9928538
0.9929002
0.9929755
0.9930526
0.9931141
0.9931542
0.9931713
0.9931762
0.993171
0.9931596
0.9931349
0.9930963
0.9930342
0.9929515
0.9937832
0.9937296
0.9937002
0.9936676
0.9935777
0.993428
0.9932576
0.9931298
0.9930755
0.9930837
0.9931295
0.9931632
0.9931467
0.9930784
0.992983
0.9928994
0.9928607
0.9928798
0.9929477
0.9930419
0.9931382
0.9932181
0.9932714
0.9932927
0.9932958
0.9932897
0.9932717
0.9932423
0.9931814
0.9930805
0.9937708
0.9937034
0.9936602
0.9936274
0.9935654
0.9934607
0.9933312
0.9932202
0.9931595
0.9931485
0.993166
0.9931733
0.993143
0.9930753
0.9929918
0.9929231
0.9928939
0.992914
0.9929782
0.9930717
0.9931757
0.9932727
0.9933473
0.9933861
0.9933998
0.9933997
0.9933897
0.9933757
0.9933342
0.9932456
0.9937669
0.9936888
0.9936276
0.993585
0.9935363
0.9934666
0.9933776
0.9932939
0.9932374
0.9932138
0.9932045
0.9931768
0.9931202
0.9930466
0.9929797
0.9929422
0.9929469
0.9929938
0.9930732
0.9931711
0.9932734
0.9933676
0.993441
0.9934811
0.9934987
0.9935005
0.9934906
0.9934868
0.9934649
0.9934031
0.9937664
0.993687
0.9936099
0.99355
0.993498
0.9934449
0.9933841
0.9933232
0.9932743
0.9932393
0.993199
0.9931394
0.9930705
0.9930123
0.9929839
0.9929958
0.9930476
0.9931302
0.99323
0.9933336
0.9934298
0.9935106
0.993566
0.9935987
0.9936113
0.9936093
0.9935911
0.9935906
0.9935756
0.9935272
0.9937683
0.9936954
0.9936113
0.9935338
0.9934662
0.9934091
0.9933558
0.9933035
0.9932535
0.9932017
0.9931367
0.9930748
0.9930336
0.9930266
0.9930594
0.9931283
0.9932237
0.9933321
0.993441
0.9935396
0.993621
0.9936814
0.9937169
0.9937377
0.9937447
0.9937372
0.9937077
0.9937058
0.9936862
0.9936214
0.9937061
0.9936276
0.9935422
0.9934643
0.9933886
0.9933224
0.9932603
0.9931978
0.9931356
0.9930934
0.9930814
0.9931053
0.993164
0.9932514
0.9933576
0.9934713
0.993581
0.9936787
0.9937578
0.9938166
0.9938546
0.9938815
0.9938946
0.9938977
0.9938847
0.993851
0.9938399
0.9938095
0.9937731
0.993698
0.9936284
0.9935186
0.9934253
0.9933415
0.993275
0.9932317
0.9932153
0.9932301
0.9932739
0.9933441
0.9934347
0.9935375
0.9936435
0.9937444
0.993832
0.9939031
0.9939561
0.9939936
0.9940225
0.9940427
0.994053
0.9940556
0.9940237
0.994022
0.9939802
0.9939252
0.9938423
0.9937941
0.9937379
0.9936781
0.9935992
0.9935379
0.9934985
0.9934838
0.9934947
0.9935302
0.9935862
0.9936609
0.9937462
0.9938336
0.9939158
0.9939873
0.9940424
0.9940834
0.9941149
0.994139
0.9941699
0.9941849
0.9941912
0.9941937
0.9941701
0.9941498
0.9941034
0.9940292
0.9938556
0.9938193
0.9937979
0.9937763
0.9937469
0.9937333
0.9937398
0.9937666
0.9938123
0.9938734
0.9939443
0.9940149
0.9940787
0.9941306
0.9941687
0.994193
0.9942097
0.994229
0.9942485
0.9942752
0.99428
0.9942794
0.9942718
0.9942674
0.9942374
0.9941929
0.9939184
0.9939066
0.9939085
0.9939139
0.9939273
0.9939566
0.9939982
0.9940525
0.9941134
0.9941724
0.9942207
0.9942545
0.9942744
0.994283
0.9942856
0.9942888
0.9943007
0.9943138
0.9943298
0.9943219
0.9943136
0.9943098
0.9942993
0.994281
0.9939885
0.994008
0.9940318
0.9940627
0.9941044
0.9941586
0.9942051
0.9942574
0.9943047
0.994341
0.9943593
0.9943614
0.9943551
0.9943437
0.9943316
0.9943259
0.9943322
0.9943383
0.9943464
0.9943306
0.9943211
0.9943113
0.994296
0.994275
0.9941148
0.994175
0.9942081
0.9942816
0.9943305
0.994376
0.9944152
0.9944374
0.994444
0.9944317
0.9944088
0.9943848
0.9943612
0.9943415
0.9943315
0.9943375
0.9943444
0.9943505
0.9943323
0.9943204
0.9943009
0.9942886
0.994311
0.9943597
0.9944225
0.9944681
0.9944924
0.9945009
0.9945045
0.9944863
0.9944531
0.9944168
0.9943856
0.994358
0.9943368
0.9943274
0.9943376
0.9943524
0.9943643
0.994341
0.9943229
0.9943067
0.9945279
0.9945524
0.9945435
0.9945405
0.9945206
0.9944891
0.9944473
0.9944071
0.9943753
0.9943496
0.9943317
0.9943251
0.99434
0.9943709
0.9943926
0.9943781
0.9945916
0.994565
0.9945436
0.9945135
0.994478
0.9944333
0.9943932
0.9943648
0.9943448
0.9943335
0.9943303
0.9943507
0.994398
0.9944495
0.9945077
0.9944658
0.9944205
0.9943825
0.9943593
0.9943468
0.9943453
0.9943665
0.9928117
0.9926981
0.9926177
0.9925413
0.9924347
0.9923015
0.9935275
0.9932798
0.9930545
0.9928209
0.9927042
0.9926052
0.9925311
0.9924528
0.9923398
0.9921909
0.9919919
0.9918689
0.9917825
0.9917489
0.9937624
0.9935725
0.9934383
0.9931945
0.9929778
0.9927574
0.9926069
0.9925078
0.9924362
0.992358
0.9922467
0.9921026
0.9919363
0.9918396
0.9917883
0.9917861
0.9918285
0.9918477
0.993818
0.9937104
0.9935336
0.9933778
0.9931097
0.9928762
0.9926676
0.9924965
0.9923912
0.9923185
0.9922414
0.9921382
0.9920146
0.9919002
0.9918296
0.991817
0.9918614
0.9919401
0.9920357
0.9921534
0.9938743
0.9937832
0.9936678
0.9934973
0.9932949
0.9930327
0.9927994
0.9925827
0.992408
0.992295
0.9922182
0.9921424
0.9920504
0.9919501
0.9918665
0.9918287
0.9918542
0.991942
0.9920735
0.9922249
0.9924319
0.9926194
0.9939017
0.9938464
0.993759
0.9936127
0.9934292
0.9932213
0.9929685
0.9927427
0.9925306
0.9923569
0.9922325
0.9921454
0.9920679
0.9919864
0.9919084
0.9918523
0.9918404
0.9918905
0.9920056
0.9921685
0.9923664
0.9926039
0.9928484
0.9929607
0.9939167
0.993882
0.9938283
0.9937168
0.9935572
0.9933694
0.9931595
0.9929201
0.9927113
0.9925179
0.9923534
0.992222
0.9921219
0.9920374
0.9919605
0.9918974
0.9918582
0.9918573
0.9919124
0.9920335
0.9922059
0.99242
0.9926755
0.992909
0.9930245
0.9929964
0.9939242
0.9939086
0.9938758
0.9938009
0.9936751
0.993508
0.9933166
0.9931102
0.9928946
0.9927144
0.9925495
0.9924018
0.9922709
0.9921602
0.992066
0.9919867
0.9919241
0.9918824
0.9918762
0.9919197
0.992026
0.9921862
0.9923862
0.9926289
0.9928774
0.993038
0.9930067
0.992887
0.993933
0.9939176
0.9939029
0.9938624
0.9937717
0.9936369
0.9934602
0.993267
0.9930743
0.9928912
0.9927447
0.9926105
0.9924829
0.9923605
0.992247
0.9921444
0.9920546
0.9919869
0.9919436
0.9919319
0.9919604
0.992037
0.9921602
0.9923179
0.9925077
0.9927044
0.9928697
0.9929904
0.992918
0.9928622
0.9939319
0.9939131
0.9938914
0.9938404
0.9937416
0.9935954
0.9934051
0.9932116
0.9930389
0.9928931
0.9927842
0.9926857
0.9925867
0.9924834
0.9923797
0.9922796
0.9921874
0.992113
0.992064
0.9920426
0.9920556
0.9921069
0.9921938
0.992311
0.9924498
0.9925958
0.9927545
0.9928666
0.9929481
0.9929356
0.9939922
0.9939246
0.9938991
0.9938712
0.9938137
0.9937093
0.993544
0.9933292
0.9931313
0.99298
0.9928715
0.9928004
0.9927414
0.99268
0.9926066
0.9925271
0.9924463
0.992365
0.992295
0.9922446
0.9922185
0.9922247
0.9922601
0.992322
0.9924061
0.9925105
0.9926288
0.9927396
0.9928494
0.99293
0.9929871
0.9930174
0.9939666
0.99391
0.9938774
0.9938439
0.9937868
0.9936753
0.9934805
0.9932257
0.9930323
0.9929101
0.9928383
0.9927987
0.9927706
0.9927423
0.9927069
0.9926629
0.9926091
0.9925456
0.9924995
0.9924647
0.9924491
0.99246
0.9924984
0.9925561
0.9926293
0.9927096
0.9927912
0.9928585
0.992919
0.9929837
0.9930143
0.9930423
0.9939608
0.9938959
0.9938519
0.9938146
0.9937587
0.9936409
0.9934216
0.9931322
0.9929562
0.992866
0.9928235
0.9928055
0.9927967
0.9927907
0.9927839
0.9927743
0.9927592
0.9927347
0.9927113
0.9926931
0.9926969
0.9927225
0.9927683
0.99281
0.9928414
0.992869
0.9929
0.9929275
0.9929557
0.9930016
0.9930077
0.9930371
0.9939507
0.9938771
0.9938228
0.9937825
0.9937299
0.9936138
0.9933891
0.9930944
0.9929189
0.9928545
0.9928314
0.9928235
0.992818
0.9928114
0.9928013
0.9927944
0.9928012
0.992818
0.9928352
0.9928468
0.9928534
0.9928596
0.992867
0.9928711
0.9928767
0.9928831
0.9928903
0.9928964
0.9928989
0.9929144
0.9929208
0.992957
0.994053
0.9939563
0.9938656
0.9937939
0.9937483
0.9936996
0.9935949
0.9933862
0.9931116
0.9929285
0.9928675
0.9928717
0.9928894
0.9928939
0.9928792
0.9928291
0.9927832
0.9927694
0.9927932
0.9928398
0.9928884
0.9929244
0.9929454
0.9929561
0.9929593
0.9929611
0.9929612
0.9929586
0.9929465
0.9929209
0.9928869
0.9928536
0.9928335
0.9928153
0.9940182
0.9939436
0.9938526
0.9937689
0.9937136
0.9936663
0.9935791
0.9934027
0.9931628
0.9929781
0.9929033
0.9929126
0.992968
0.9930265
0.9929998
0.9929165
0.9928237
0.992761
0.9927519
0.9927945
0.9928686
0.9929487
0.9930162
0.9930628
0.9930872
0.9930958
0.9930965
0.9930937
0.9930784
0.9930425
0.9929814
0.992897
0.9928256
0.9927634
0.9939772
0.9939219
0.9938383
0.9937474
0.9936804
0.9936299
0.9935595
0.9934232
0.9932297
0.9930592
0.9929691
0.9929609
0.9930022
0.9930418
0.993033
0.9929716
0.9928816
0.9928005
0.9927611
0.9927775
0.9928438
0.9929397
0.9930412
0.993128
0.9931874
0.9932162
0.9932264
0.9932307
0.9932262
0.9932025
0.9931428
0.9930316
0.9929213
0.9927913
0.9939372
0.9938993
0.9938263
0.9937324
0.9936527
0.9935931
0.9935324
0.9934333
0.9932902
0.9931498
0.9930584
0.9930289
0.99304
0.9930515
0.9930305
0.9929718
0.9928944
0.9928282
0.9927987
0.9928177
0.9928821
0.9929784
0.9930877
0.9931908
0.9932709
0.9933176
0.9933391
0.9933507
0.9933576
0.9933536
0.9933169
0.9932151
0.9930934
0.9929077
0.9938978
0.9938732
0.993815
0.9937248
0.9936353
0.9935618
0.9935001
0.9934258
0.9933262
0.9932224
0.9931436
0.9931021
0.9930874
0.9930656
0.9930179
0.992952
0.9928897
0.992854
0.9928593
0.9929074
0.9929897
0.9930925
0.9932007
0.9933004
0.9933783
0.9934266
0.9934517
0.9934661
0.9934769
0.9934849
0.9934711
0.9934002
0.9933029
0.993112
0.9938611
0.9938349
0.9937965
0.9937201
0.9936296
0.993543
0.9934704
0.9934036
0.9933304
0.9932553
0.9931916
0.9931446
0.9931036
0.9930483
0.9929848
0.9929309
0.9929051
0.992919
0.9929735
0.9930599
0.9931648
0.9932741
0.9933758
0.9934612
0.9935232
0.9935614
0.9935823
0.9935952
0.9936033
0.9936122
0.9936063
0.9935591
0.9934999
0.9933366
0.9938041
0.99378
0.9937235
0.9936378
0.9935443
0.9934568
0.9933805
0.9933114
0.9932464
0.9931866
0.9931287
0.9930638
0.9930048
0.9929666
0.9929623
0.9929979
0.9930705
0.9931702
0.9932836
0.9933971
0.9934997
0.9935844
0.9936489
0.9936921
0.9937188
0.9937351
0.9937461
0.9937497
0.9937522
0.9937392
0.9936992
0.993666
0.9938175
0.9937959
0.9937444
0.9936656
0.9935721
0.9934749
0.9933825
0.9932995
0.9932245
0.9931536
0.993091
0.9930493
0.9930387
0.993064
0.9931248
0.9932151
0.9933247
0.9934415
0.9935533
0.9936516
0.9937311
0.9937907
0.9938346
0.9938653
0.9938855
0.9939
0.9939102
0.9939122
0.993904
0.9938632
0.9938408
0.9937907
0.9938524
0.9938286
0.9937893
0.9937237
0.9936454
0.9935513
0.9934515
0.9933594
0.9932848
0.9932361
0.9932143
0.9932231
0.9932629
0.9933313
0.9934218
0.9935252
0.9936312
0.9937301
0.9938143
0.9938812
0.9939311
0.9939672
0.9939986
0.9940218
0.9940383
0.9940521
0.9940619
0.9940657
0.9940482
0.993992
0.993958
0.9938993
0.9938839
0.9938646
0.9938475
0.9938067
0.9937502
0.9936891
0.9936247
0.9935662
0.9935225
0.9935006
0.9935044
0.9935354
0.9935905
0.9936645
0.9937485
0.9938329
0.9939097
0.9939731
0.9940203
0.9940545
0.9940801
0.9941002
0.9941241
0.9941389
0.9941495
0.994161
0.9941747
0.9941737
0.9941531
0.9941074
0.9940594
0.9939894
0.9939141
0.993901
0.9938794
0.9938459
0.9938105
0.9937792
0.9937566
0.993748
0.9937566
0.9937841
0.9938313
0.993892
0.9939586
0.994022
0.9940751
0.994115
0.9941411
0.9941555
0.9941651
0.9941746
0.9941832
0.9941964
0.9941988
0.9942021
0.9942109
0.9942266
0.994223
0.9942001
0.9941698
0.9941366
0.9939495
0.99395
0.9939463
0.9939363
0.9939296
0.9939292
0.9939403
0.9939629
0.9939953
0.9940359
0.9940879
0.9941401
0.9941852
0.9942171
0.994234
0.9942391
0.9942351
0.9942263
0.9942205
0.9942184
0.9942155
0.9942171
0.9942088
0.9942056
0.9942132
0.9942342
0.9942305
0.9942115
0.994193
0.9941688
0.9940079
0.994015
0.9940297
0.9940607
0.9940878
0.9941283
0.9941706
0.9942123
0.9942492
0.9942909
0.9943195
0.9943327
0.9943299
0.9943149
0.9942947
0.9942708
0.9942479
0.9942333
0.9942227
0.9942101
0.9942043
0.9942003
0.9942019
0.9942132
0.9942364
0.9942229
0.9942045
0.9941956
0.9940936
0.9941461
0.9941971
0.9942531
0.9943093
0.9943534
0.9943843
0.9944015
0.9944232
0.9944219
0.9944037
0.9943737
0.9943383
0.9943041
0.9942698
0.9942394
0.9942193
0.9942057
0.9941993
0.994208
0.994218
0.9942266
0.9942387
0.9942431
0.9942099
0.9941977
0.9942645
0.9943491
0.9943935
0.9944599
0.9944878
0.9944969
0.9944873
0.9944859
0.994458
0.9944171
0.994371
0.9943261
0.9942867
0.9942505
0.9942223
0.9942104
0.99421
0.9942214
0.9942538
0.9942825
0.9942958
0.9942802
0.9942662
0.9942262
0.9944679
0.9945169
0.9945647
0.9945649
0.9945604
0.9945277
0.9945087
0.9944639
0.9944116
0.9943608
0.9943152
0.9942785
0.994248
0.9942287
0.9942334
0.9942523
0.9942857
0.9943463
0.994365
0.9943842
0.994338
0.9943118
0.9946046
0.9946251
0.9946175
0.9945928
0.9945532
0.9945255
0.9944735
0.9944159
0.9943656
0.9943234
0.9942938
0.9942731
0.9942655
0.9942934
0.9943345
0.9943882
0.9944482
0.9944638
0.9944773
0.9944209
0.9946716
0.9946424
0.9946145
0.9945721
0.9945485
0.994488
0.9944422
0.9943972
0.9943606
0.9943404
0.9943313
0.9943317
0.9943627
0.9944215
0.9944856
0.9945517
0.9945585
0.9945848
0.9946451
0.994594
0.9945682
0.9945047
0.9944764
0.9944401
0.9944088
0.9943968
0.9943973
0.9943984
0.9944229
0.9945028
0.9945869
0.9946897
0.9945364
0.9944986
0.9944704
0.9944659
0.9944792
0.9945128
0.9934045
0.9931904
0.9929764
0.9928412
0.9927407
0.992666
0.9925756
0.9924473
0.9922938
0.992162
0.993776
0.9936536
0.993446
0.9932836
0.9930738
0.9928533
0.9927111
0.9926179
0.9925407
0.9924375
0.9922884
0.9921361
0.9919763
0.991826
0.9917655
0.991736
0.9938109
0.9937264
0.993584
0.9933505
0.9931452
0.9929007
0.9926936
0.9925184
0.9924222
0.9923409
0.9922377
0.9921218
0.9919831
0.9918575
0.9917586
0.9917249
0.9917149
0.9917348
0.9939256
0.9938609
0.9937698
0.9936472
0.9934868
0.9932377
0.9929938
0.9927127
0.9924851
0.9923154
0.9922184
0.9921336
0.9920311
0.9919213
0.9918123
0.9917331
0.9916959
0.9917177
0.9917552
0.9918179
0.9919077
0.9919604
0.9939161
0.993898
0.9938294
0.9937087
0.9935549
0.9933782
0.9931294
0.9928594
0.9925507
0.9923077
0.992142
0.9920449
0.9919582
0.9918609
0.9917679
0.9916946
0.991663
0.9916809
0.9917513
0.9918549
0.9919954
0.9921477
0.9923427
0.9924954
0.9939018
0.9938938
0.9938638
0.993767
0.9936252
0.9934668
0.9932801
0.993031
0.9927527
0.992437
0.9921804
0.992015
0.9919156
0.9918288
0.9917422
0.9916733
0.9916378
0.9916525
0.9917222
0.9918456
0.9920117
0.9922179
0.9924474
0.9926424
0.9928101
0.9928121
0.9938899
0.9938859
0.993869
0.9938082
0.9936851
0.9935462
0.9933892
0.9931967
0.9929479
0.9926727
0.992371
0.9921174
0.9919423
0.9918345
0.9917458
0.9916697
0.9916244
0.9916217
0.9916734
0.9917824
0.9919474
0.992159
0.9924056
0.9926577
0.9928489
0.9928816
0.9927904
0.9926778
0.993933
0.9938977
0.9938759
0.9938291
0.9937379
0.9936167
0.9934828
0.9933256
0.9931271
0.9928814
0.9926216
0.9923503
0.9921157
0.9919385
0.9918156
0.9917174
0.9916426
0.9916072
0.991614
0.9916813
0.991811
0.9919987
0.9922318
0.9924923
0.9927368
0.9928797
0.9928602
0.992754
0.9926447
0.9926002
0.9939323
0.9938944
0.9938508
0.9937775
0.9936848
0.9935695
0.9934364
0.993273
0.9930686
0.9928341
0.9926027
0.9923709
0.992163
0.9919915
0.9918584
0.9917475
0.9916572
0.9916104
0.9916183
0.9916851
0.9918099
0.9919901
0.9922153
0.9924696
0.9927142
0.992862
0.9928547
0.9927528
0.9926756
0.9926376
0.9940112
0.9939326
0.9938757
0.9938118
0.9937385
0.9936503
0.9935386
0.9933992
0.9932237
0.993018
0.9928084
0.9926185
0.9924355
0.9922635
0.9921065
0.9919695
0.9918502
0.9917512
0.9916891
0.9916774
0.9917186
0.9918111
0.9919531
0.9921381
0.9923526
0.9925803
0.9927748
0.9928612
0.9928291
0.9927514
0.9927409
0.9927816
0.994135
0.9940379
0.9939388
0.9938515
0.9937799
0.9937099
0.9936272
0.9935138
0.9933556
0.9931668
0.9929725
0.9927994
0.9926585
0.9925285
0.9924006
0.9922724
0.9921482
0.9920318
0.9919291
0.9918536
0.9918189
0.9918283
0.9918819
0.991977
0.9921066
0.9922621
0.9924329
0.992602
0.9927725
0.9928597
0.9928648
0.9928432
0.9928445
0.9928574
0.9941261
0.9940273
0.9939262
0.9938283
0.9937537
0.9936884
0.9936084
0.9934792
0.9932963
0.9930914
0.9929116
0.9927781
0.9926856
0.9926075
0.9925277
0.992438
0.9923428
0.9922481
0.9921568
0.9920826
0.9920368
0.9920249
0.9920496
0.9921079
0.9921936
0.9923003
0.9924259
0.9925607
0.9926935
0.9928132
0.9928992
0.9929464
0.9929527
0.9929236
0.9941053
0.9940088
0.9938974
0.9938014
0.9937294
0.9936691
0.9935832
0.9934365
0.9932147
0.9929869
0.9928352
0.9927441
0.9926916
0.9926537
0.9926163
0.9925713
0.9925174
0.9924528
0.9923807
0.9923295
0.9922951
0.9922847
0.9923019
0.9923467
0.9924188
0.9925055
0.9925938
0.9926816
0.9927638
0.992842
0.9929184
0.9929743
0.9930156
0.9930058
0.9942051
0.994129
0.9940216
0.9938914
0.9937833
0.9937075
0.9936465
0.9935573
0.9933933
0.993129
0.9928972
0.992781
0.9927258
0.9927021
0.9926902
0.9926813
0.9926712
0.9926577
0.9926379
0.9926093
0.9925838
0.9925656
0.9925723
0.9926013
0.992649
0.9926931
0.9927311
0.9927661
0.992802
0.9928383
0.992878
0.9929286
0.9929693
0.9930185
0.9930265
0.9930261
0.9941623
0.9941154
0.994015
0.993884
0.9937688
0.9936864
0.9936218
0.9935331
0.9933634
0.9930879
0.9928494
0.9927605
0.9927294
0.9927194
0.9927133
0.9927063
0.992698
0.9926914
0.9926965
0.9927118
0.9927297
0.9927439
0.9927538
0.9927632
0.9927727
0.9927802
0.992789
0.9927993
0.9928109
0.9928212
0.9928312
0.9928513
0.9928778
0.9929338
0.9929402
0.9929717
0.9940975
0.9940643
0.9939837
0.9938651
0.9937523
0.9936652
0.9935964
0.9935113
0.9933511
0.9930913
0.9928615
0.9927663
0.9927595
0.9927709
0.9927734
0.9927608
0.9927185
0.9926769
0.9926631
0.9926846
0.99273
0.9927809
0.9928215
0.9928472
0.9928613
0.9928677
0.9928716
0.9928751
0.9928765
0.9928679
0.9928461
0.9928184
0.9927965
0.9928046
0.9928112
0.9928421
0.9940353
0.9940135
0.9939395
0.9938413
0.9937362
0.9936453
0.9935714
0.9934907
0.9933511
0.9931258
0.992911
0.992803
0.992794
0.9928384
0.9928959
0.9928762
0.9927978
0.9927112
0.992652
0.9926426
0.9926837
0.9927578
0.9928409
0.992913
0.992964
0.9929922
0.9930039
0.9930085
0.9930102
0.9929991
0.9929635
0.9929022
0.9928258
0.9927633
0.9927248
0.9927186
0.9939631
0.9939518
0.9938908
0.9938118
0.993719
0.9936273
0.9935477
0.9934702
0.9933546
0.9931731
0.9929851
0.9928693
0.9928411
0.9928719
0.9929126
0.9929094
0.9928538
0.9927692
0.9926919
0.9926538
0.99267
0.9927363
0.9928342
0.9929395
0.9930305
0.9930934
0.9931261
0.9931406
0.9931507
0.9931527
0.9931296
0.9930656
0.9929598
0.9928484
0.9927439
0.99269
0.9939008
0.9938934
0.9938392
0.9937757
0.9936992
0.9936116
0.9935269
0.9934492
0.9933539
0.9932161
0.9930643
0.992954
0.9929079
0.9929096
0.9929207
0.992906
0.9928557
0.9927854
0.9927237
0.9926965
0.9927167
0.9927825
0.9928811
0.9929936
0.9931001
0.9931829
0.9932333
0.993259
0.9932772
0.9932936
0.9932942
0.9932547
0.993158
0.9930287
0.9928676
0.9927458
0.9938534
0.9938422
0.9937884
0.9937307
0.9936718
0.9935963
0.9935105
0.9934291
0.9933454
0.9932421
0.9931276
0.9930339
0.9929803
0.9929585
0.9929393
0.9928994
0.9928426
0.9927879
0.9927575
0.9927662
0.9928169
0.9929018
0.9930073
0.9931181
0.9932197
0.9932994
0.9933505
0.9933791
0.9934005
0.9934233
0.9934401
0.9934287
0.9933663
0.9932591
0.9930879
0.9929178
0.9938302
0.9938105
0.9937641
0.9936927
0.9936368
0.9935771
0.9934981
0.9934132
0.9933314
0.9932468
0.9931597
0.9930832
0.9930275
0.9929853
0.9929358
0.9928809
0.9928355
0.9928167
0.992836
0.9928944
0.992984
0.9930915
0.9932026
0.9933051
0.9933905
0.993453
0.9934923
0.9935156
0.9935356
0.993558
0.9935782
0.9935797
0.9935463
0.9934757
0.9933459
0.993186