/*--------------------------------*- C++ -*----------------------------------*\
  =========                 |
  \\      /  F ield         | OpenFOAM: The Open Source CFD Toolbox
   \\    /   O peration     | Website:  https://openfoam.org
    \\  /    A nd           | Version:  6
     \\/     M anipulation  |
\*---------------------------------------------------------------------------*/
FoamFile
{
    version     2.0;
    format      ascii;
    class       volScalarField;
    location    "50";
    object      rhok;
}
// * * * * * * * * * * * * * * * * * * * * * * * * * * * * * * * * * * * * * //

dimensions      [0 0 0 0 0 0 0];

internalField   nonuniform List<scalar> 
203709
(
0.9927361
0.9926752
0.992607
0.9925879
0.9929851
0.9929492
0.9928597
0.9928147
0.9927633
0.9927294
0.9926966
0.9927712
0.9930466
0.993033
0.993028
0.9930133
0.9929668
0.9929382
0.9929083
0.9928903
0.9928749
0.9929043
0.9929117
0.9929475
0.9930723
0.9930655
0.9930641
0.9930623
0.9930564
0.9930425
0.9930294
0.993016
0.993014
0.9930141
0.9930357
0.9930524
0.9930677
0.9930958
0.9930851
0.9930826
0.9930822
0.9930824
0.9930831
0.9930843
0.9930873
0.9930922
0.9930954
0.9930995
0.993112
0.9931169
0.9931129
0.9931158
0.9931056
0.9931068
0.9931039
0.9931004
0.9930959
0.993092
0.9930802
0.9930764
0.993091
0.9931139
0.9931291
0.9931308
0.993123
0.9931111
0.9930975
0.9931183
0.9931293
0.9931476
0.9931683
0.9931883
0.993193
0.9931717
0.9931106
0.9930583
0.9930522
0.9930932
0.993151
0.9931962
0.9932169
0.9932178
0.9932098
0.9931962
0.9932286
0.9931562
0.9931806
0.9932214
0.9932737
0.993323
0.9932962
0.9932071
0.9931013
0.9930349
0.9930386
0.9931
0.993183
0.9932541
0.9932973
0.993313
0.993307
0.9933168
0.9932767
0.9932226
0.9932276
0.9932629
0.993309
0.9933385
0.9933192
0.9932468
0.9931468
0.9930634
0.9930331
0.9930651
0.9931424
0.9932354
0.993316
0.993368
0.9933887
0.9933804
0.9933412
0.993295
0.9932882
0.9933095
0.9933377
0.9933444
0.9933081
0.9932325
0.9931435
0.9930757
0.9930533
0.9930814
0.993149
0.9932369
0.9933245
0.9933942
0.9934354
0.9934416
0.993381
0.9933577
0.9933471
0.9933548
0.99336
0.9933333
0.993271
0.9931901
0.9931187
0.9930812
0.9930877
0.9931335
0.9932053
0.9932878
0.9933674
0.9934326
0.9934759
0.9934763
0.9933905
0.9933774
0.9933684
0.9933384
0.9932781
0.993203
0.9931375
0.9931033
0.99311
0.9931542
0.9932236
0.9933034
0.993382
0.9934498
0.9935007
0.9935262
0.9933846
0.9933557
0.9933168
0.993254
0.9931868
0.9931356
0.9931173
0.9931384
0.9931938
0.9932714
0.9933569
0.993438
0.9935082
0.9935605
0.9935947
0.9935821
0.9932763
0.9932137
0.9931622
0.9931359
0.9931439
0.993188
0.9932608
0.9933504
0.9934427
0.9935275
0.9935974
0.993653
0.9936864
0.993695
0.9932216
0.9931764
0.9931862
0.9932241
0.9932876
0.9933734
0.9934689
0.9935632
0.993646
0.9937138
0.9937635
0.9938033
0.9938153
0.9937791
0.9933977
0.9933987
0.9934572
0.9935358
0.9936277
0.9937139
0.9937899
0.9938487
0.9938936
0.993926
0.9939584
0.9939444
0.9937757
0.993789
0.9938778
0.9939434
0.9939955
0.9940317
0.9940563
0.9940581
0.994117
0.9941341
0.9941631
0.9941684
0.9927916
0.9926381
0.9925289
0.9924381
0.9923622
0.9922884
0.9922056
0.9921148
0.9920271
0.9919876
0.9931779
0.9929444
0.9927911
0.9926738
0.9925728
0.9924811
0.9924
0.9923254
0.9922502
0.9921736
0.9921006
0.9920527
0.9920555
0.9921038
0.9933037
0.9931499
0.9929786
0.992846
0.9927443
0.9926537
0.9925592
0.992467
0.9923894
0.9923224
0.99226
0.9921976
0.9921569
0.9921494
0.9921739
0.9922357
0.9934388
0.9932853
0.9931555
0.9930316
0.9929291
0.9928437
0.9927505
0.9926711
0.9925713
0.9924894
0.9924284
0.9923505
0.9923155
0.9922906
0.9922781
0.9922938
0.9923394
0.9924021
0.9935519
0.9933907
0.9932486
0.9931445
0.9930589
0.9929847
0.9929321
0.992861
0.9927861
0.9927055
0.9926292
0.9925536
0.9925074
0.9924761
0.9924326
0.9924356
0.9924549
0.9924908
0.9925358
0.992593
0.9936544
0.9934763
0.9932913
0.993172
0.9930998
0.9930343
0.9929955
0.9929697
0.9929293
0.9928813
0.9928246
0.9927694
0.9927089
0.9926658
0.9926304
0.9926214
0.9926677
0.9926602
0.9926909
0.9927388
0.9927812
0.9928248
0.9935686
0.9933505
0.9931945
0.9931038
0.9930448
0.9930145
0.9929907
0.9929786
0.9929626
0.9929437
0.9929181
0.992888
0.9928523
0.9928324
0.9928196
0.9928241
0.9928666
0.9929441
0.9929585
0.9929853
0.9930089
0.9930252
0.9937583
0.9935281
0.9932638
0.9931328
0.9930704
0.9930377
0.9930094
0.9929968
0.9929929
0.9929911
0.99299
0.9929879
0.9929844
0.992977
0.9929727
0.9929758
0.9929888
0.9930163
0.9930528
0.9930462
0.9930427
0.9930388
0.9930341
0.9930206
0.993745
0.9935138
0.9932511
0.993121
0.9930649
0.9930413
0.9930227
0.9930155
0.9930123
0.9930095
0.9930015
0.9929968
0.9930061
0.993024
0.9930392
0.9930462
0.9930468
0.9930453
0.9930436
0.9930495
0.9930443
0.9930362
0.9930215
0.9930027
0.993735
0.9935334
0.993296
0.9931448
0.993085
0.9930684
0.9930749
0.9930912
0.9930988
0.9930886
0.9930378
0.992991
0.9929798
0.9930087
0.9930577
0.9931037
0.9931332
0.9931476
0.9931525
0.9931519
0.9931535
0.9931367
0.9931129
0.9930791
0.9937247
0.9935671
0.9933645
0.9932204
0.9931227
0.9931075
0.9931325
0.9931869
0.9932442
0.9932216
0.9931382
0.9930405
0.9929751
0.9929685
0.9930153
0.9930897
0.9931641
0.9932219
0.9932581
0.9932651
0.9932748
0.9932616
0.9932403
0.9932041
0.9937071
0.9935966
0.9934402
0.9933036
0.9931984
0.9931668
0.993187
0.993235
0.9932731
0.9932616
0.9931968
0.9931017
0.9930163
0.9929761
0.9929942
0.9930606
0.9931513
0.9932418
0.9933151
0.9933631
0.9933769
0.9933768
0.9933604
0.9933311
0.9936772
0.9936077
0.9934975
0.993385
0.99329
0.9932465
0.9932505
0.9932759
0.9932894
0.9932638
0.9931976
0.9931121
0.9930397
0.9930069
0.993024
0.993085
0.9931735
0.9932705
0.9933594
0.993429
0.9934564
0.9934684
0.9934595
0.993438
0.9936351
0.9935939
0.9935235
0.9934428
0.9933819
0.9933322
0.9933187
0.9933194
0.9932991
0.9932454
0.9931696
0.9930967
0.993052
0.9930502
0.9930913
0.993165
0.9932562
0.9933505
0.9934368
0.9935091
0.9935293
0.993551
0.993545
0.993526
0.9935878
0.993558
0.9935151
0.9934684
0.9934138
0.9933737
0.9933487
0.9933197
0.9932646
0.9931927
0.9931257
0.9930862
0.9930872
0.9931297
0.9932041
0.9932967
0.9933928
0.9934814
0.9935551
0.9935958
0.9936341
0.9936401
0.9936293
0.9936059
0.9935487
0.9935116
0.9934766
0.9934394
0.9933986
0.9933606
0.9933169
0.9932557
0.9931877
0.9931333
0.9931108
0.9931291
0.9931859
0.9932717
0.9933724
0.9934758
0.9935689
0.9936449
0.9937012
0.9937115
0.9937424
0.9937413
0.9937198
0.9936849
0.9935297
0.9934735
0.9934272
0.9933847
0.993335
0.9932905
0.9932268
0.9931708
0.9931423
0.9931503
0.993196
0.9932731
0.9933714
0.9934804
0.9935869
0.9936849
0.9937623
0.9938188
0.9938315
0.993868
0.9938685
0.9938535
0.993819
0.993761
0.9934766
0.9934084
0.993347
0.9932868
0.993253
0.9932144
0.993222
0.9932594
0.9933264
0.9934146
0.9935155
0.9936206
0.9937251
0.9938153
0.993895
0.9939477
0.9939878
0.9939859
0.9940081
0.9940023
0.9939774
0.9939301
0.9935921
0.9935138
0.9934484
0.9934117
0.9934097
0.9934503
0.9934922
0.9935385
0.9936149
0.9936998
0.9937888
0.9938758
0.9939604
0.9940208
0.9940769
0.9941021
0.9941145
0.994146
0.9941442
0.994136
0.9941114
0.9940336
0.9936839
0.993662
0.9936588
0.9936706
0.9937012
0.993756
0.9938247
0.9938941
0.9939625
0.9940319
0.994094
0.9941548
0.9941822
0.9942007
0.9942367
0.9942406
0.9942618
0.9942696
0.9942627
0.9942323
0.993866
0.9938689
0.993898
0.9939305
0.9939816
0.9940439
0.9941184
0.9941741
0.9942266
0.9942625
0.9942795
0.9943059
0.9943086
0.9943211
0.9943335
0.9943601
0.9943552
0.9943381
0.9940413
0.9940937
0.9941238
0.9941903
0.9942464
0.9942932
0.9943323
0.9943603
0.9943721
0.9943716
0.9943688
0.9943722
0.9943823
0.994388
0.994403
0.9943867
0.9942744
0.9942901
0.994375
0.9944103
0.9944369
0.9944471
0.9944431
0.9944321
0.9944172
0.9944029
0.9943969
0.9943999
0.9944017
0.9944088
0.9945019
0.9945163
0.9945168
0.9945001
0.9944737
0.9944475
0.9944223
0.9944017
0.994392
0.9943972
0.9927413
0.9926029
0.9925081
0.9924291
0.9923365
0.9922108
0.9920587
0.9919089
0.9933665
0.9930803
0.992828
0.9926801
0.9925593
0.9924712
0.9923973
0.9923109
0.9921941
0.992052
0.9919136
0.9918512
0.9918594
0.9918987
0.9934583
0.9932913
0.993031
0.992798
0.9926411
0.9925237
0.9924351
0.9923627
0.9922827
0.9921792
0.9920557
0.9919381
0.9918937
0.9919174
0.9919854
0.9921206
0.9937853
0.9936007
0.9934175
0.9932335
0.9929939
0.992799
0.9926221
0.9925022
0.9924084
0.9923326
0.9922564
0.9921666
0.9920654
0.9919688
0.991935
0.9919561
0.992046
0.9921926
0.9924255
0.9926144
0.9938567
0.9937486
0.9935755
0.9933856
0.993206
0.9929639
0.9927778
0.9926221
0.9925033
0.9924029
0.9923193
0.9922428
0.9921642
0.9920842
0.9920101
0.9919774
0.9919931
0.9920794
0.992212
0.9924035
0.9926203
0.9928453
0.9939178
0.993837
0.9937265
0.9935473
0.9933652
0.9931609
0.9929548
0.9927944
0.9926585
0.9925456
0.9924419
0.9923502
0.9922699
0.9921967
0.9921305
0.9920735
0.9920407
0.992045
0.9921043
0.992204
0.9923618
0.9925219
0.9926879
0.9927515
0.9939092
0.9938253
0.9937006
0.9935225
0.9933178
0.9931404
0.9929705
0.9928402
0.9927273
0.9926264
0.9925268
0.9924313
0.992347
0.9922736
0.9922073
0.992153
0.9921213
0.992121
0.9921598
0.9922384
0.9923422
0.9924726
0.9925957
0.9927005
0.9939405
0.9938888
0.9938037
0.9936668
0.9934611
0.9932773
0.9931223
0.9929851
0.9928848
0.9927984
0.9927169
0.9926317
0.9925436
0.9924593
0.9923821
0.9923164
0.992271
0.9922398
0.992238
0.9922695
0.9923301
0.9924213
0.9925156
0.9926177
0.9927092
0.9927788
0.9939495
0.9939292
0.9938776
0.9937754
0.9935982
0.9933898
0.993211
0.9930731
0.9929673
0.9928986
0.9928446
0.9927903
0.9927298
0.9926652
0.9925996
0.9925331
0.9924757
0.9924341
0.9924114
0.9924244
0.9924537
0.9925058
0.9925764
0.9926727
0.9927612
0.9928247
0.992887
0.9929404
0.9939366
0.9939181
0.993861
0.9937374
0.9935235
0.9932884
0.9931177
0.9930038
0.992933
0.9928932
0.9928672
0.992842
0.9928133
0.9927789
0.9927372
0.9926922
0.9926594
0.9926367
0.9926319
0.9926572
0.9927132
0.9927763
0.9928389
0.9928952
0.9929588
0.9929799
0.993003
0.9930282
0.9939143
0.993899
0.9938405
0.9936847
0.99345
0.9931947
0.9930433
0.9929606
0.9929175
0.9928993
0.9928918
0.9928875
0.992883
0.9928765
0.9928666
0.9928523
0.9928405
0.9928375
0.9928512
0.992884
0.9929308
0.9929506
0.9929623
0.9929711
0.9929905
0.992994
0.9929964
0.9930174
0.9939083
0.9938799
0.9938699
0.9938175
0.9936564
0.9934115
0.9931477
0.9930065
0.9929498
0.992926
0.9929192
0.992917
0.9929146
0.9929101
0.9929056
0.9929121
0.9929275
0.992943
0.9929535
0.9929593
0.992964
0.99297
0.9929715
0.9929737
0.9929726
0.9929686
0.9929622
0.9929428
0.9929255
0.9929037
0.9938858
0.9938539
0.9938388
0.9937937
0.9936463
0.9934123
0.9931602
0.9930091
0.9929644
0.9929659
0.9929815
0.9929905
0.9929865
0.9929445
0.9929024
0.9928894
0.9929121
0.9929567
0.9930037
0.993039
0.9930612
0.9930737
0.9930773
0.9930793
0.9930737
0.9930618
0.9930386
0.9929998
0.9929486
0.9928928
0.9938641
0.993823
0.993803
0.9937664
0.993646
0.9934425
0.993212
0.993054
0.9929984
0.9930119
0.993068
0.9931332
0.9931176
0.9930396
0.9929492
0.9928867
0.9928762
0.9929163
0.992987
0.9930644
0.9931309
0.9931787
0.9932032
0.9932127
0.9932097
0.9931988
0.9931725
0.9931303
0.9930602
0.9929652
0.9938437
0.9937912
0.9937629
0.9937324
0.9936433
0.993483
0.9932875
0.9931334
0.9930632
0.993065
0.9931141
0.9931626
0.9931606
0.9931031
0.9930137
0.9929307
0.9928882
0.9929012
0.9929634
0.9930547
0.9931522
0.9932371
0.9932972
0.9933246
0.9933311
0.9933266
0.9933089
0.9932786
0.9932136
0.993104
0.9938283
0.9937636
0.9937222
0.9936912
0.9936284
0.993514
0.9933638
0.9932298
0.9931534
0.993136
0.9931582
0.9931791
0.9931644
0.993108
0.9930289
0.9929583
0.9929236
0.9929376
0.9929973
0.9930886
0.9931932
0.993293
0.9933722
0.9934159
0.9934332
0.9934351
0.9934255
0.9934114
0.993368
0.9932741
0.9938196
0.9937453
0.9936872
0.9936469
0.9935982
0.9935216
0.9934175
0.9933158
0.9932456
0.9932164
0.9932125
0.9931996
0.9931558
0.9930884
0.9930201
0.9929763
0.9929737
0.993015
0.993092
0.9931904
0.993295
0.9933925
0.9934694
0.9935128
0.9935335
0.9935372
0.9935273
0.9935236
0.9935001
0.9934344
0.9938134
0.9937379
0.9936643
0.993608
0.993558
0.9935024
0.993433
0.9933608
0.9933031
0.9932666
0.9932357
0.9931852
0.9931192
0.9930566
0.9930192
0.9930215
0.9930662
0.9931458
0.9932466
0.9933536
0.9934546
0.9935399
0.9935989
0.9936349
0.9936502
0.9936499
0.9936312
0.9936311
0.9936143
0.9935619
0.9938103
0.9937393
0.9936582
0.9935844
0.9935207
0.9934655
0.9934105
0.9933545
0.9933026
0.9932539
0.9931929
0.9931276
0.9930764
0.9930566
0.9930777
0.9931392
0.9932322
0.9933426
0.9934565
0.9935614
0.9936493
0.9937151
0.993755
0.9937792
0.9937888
0.9937831
0.9937527
0.9937512
0.9937295
0.9936602
0.9937452
0.9936669
0.9935819
0.9935072
0.9934358
0.9933727
0.9933128
0.9932526
0.993188
0.993134
0.9931072
0.9931175
0.9931667
0.9932497
0.9933566
0.993475
0.9935919
0.9936975
0.9937842
0.9938497
0.9938932
0.9939245
0.993941
0.9939465
0.9939354
0.9939015
0.9938895
0.9938573
0.9938068
0.9937277
0.9936541
0.993546
0.9934541
0.9933718
0.9932994
0.9932455
0.9932176
0.993223
0.9932608
0.9933291
0.9934217
0.9935299
0.9936436
0.9937534
0.9938497
0.993929
0.9939888
0.9940319
0.9940656
0.9940892
0.9941019
0.9941064
0.9940757
0.9940736
0.9940309
0.9939752
0.9938757
0.9938226
0.9937584
0.9936884
0.9935995
0.9935275
0.9934838
0.9934656
0.9934748
0.9935108
0.9935694
0.993649
0.993741
0.9938365
0.9939274
0.9940073
0.9940698
0.9941169
0.9941532
0.9941811
0.994215
0.9942317
0.9942392
0.9942424
0.99422
0.9941986
0.9941522
0.99408
0.993884
0.9938424
0.9938155
0.9937872
0.9937505
0.9937318
0.9937353
0.9937612
0.9938079
0.9938722
0.9939482
0.9940253
0.9940963
0.9941551
0.9941994
0.9942283
0.9942485
0.9942705
0.994292
0.9943197
0.9943246
0.9943242
0.9943172
0.9943122
0.9942813
0.9942371
0.993943
0.9939271
0.9939249
0.9939266
0.9939362
0.9939635
0.9940053
0.9940615
0.9941263
0.9941907
0.9942449
0.9942844
0.994309
0.994321
0.9943259
0.9943305
0.9943435
0.9943571
0.9943729
0.9943649
0.9943566
0.9943527
0.9943413
0.9943216
0.9940141
0.9940301
0.9940509
0.9940793
0.99412
0.9941741
0.9942227
0.9942785
0.9943305
0.9943719
0.9943948
0.9944005
0.9943963
0.9943862
0.9943745
0.994369
0.9943754
0.9943815
0.9943893
0.9943738
0.9943646
0.9943547
0.9943375
0.9943141
0.9941379
0.9941967
0.9942288
0.9943039
0.9943556
0.9944048
0.9944482
0.9944747
0.994485
0.9944752
0.9944535
0.9944299
0.994406
0.9943857
0.9943752
0.9943811
0.9943882
0.9943944
0.9943772
0.9943657
0.9943466
0.9943323
0.9943374
0.994387
0.9944534
0.994503
0.9945317
0.9945428
0.9945501
0.9945336
0.994501
0.9944644
0.9944323
0.9944037
0.9943816
0.9943717
0.9943819
0.9943972
0.9944096
0.994388
0.9943709
0.9943561
0.9945672
0.9945957
0.9945892
0.9945887
0.9945703
0.9945392
0.9944969
0.9944557
0.9944227
0.9943958
0.9943769
0.9943697
0.9943849
0.9944168
0.9944394
0.9944275
0.9946398
0.994615
0.9945948
0.994565
0.9945291
0.9944835
0.9944422
0.9944125
0.9943912
0.9943789
0.9943751
0.994396
0.9944446
0.9944979
0.9945598
0.9945172
0.9944709
0.9944316
0.9944072
0.9943934
0.994391
0.9944117
0.9928262
0.9927025
0.9926078
0.9925117
0.9923833
0.992233
0.9935644
0.9933098
0.9930778
0.9928359
0.9927152
0.992607
0.9925184
0.9924206
0.9922868
0.9921229
0.9919225
0.9918109
0.9917425
0.9917185
0.9937951
0.993608
0.9934734
0.9932224
0.9929974
0.992771
0.9926145
0.9925068
0.9924215
0.9923249
0.9921951
0.9920395
0.9918765
0.9917935
0.9917625
0.9917748
0.9918275
0.9918516
0.9938503
0.9937441
0.9935692
0.9934119
0.9931364
0.9928919
0.9926757
0.9924984
0.9923861
0.9923018
0.9922089
0.9920908
0.9919595
0.9918497
0.9917963
0.9918049
0.9918648
0.9919548
0.9920611
0.99219
0.9939055
0.9938159
0.9937025
0.9935337
0.9933273
0.9930562
0.9928102
0.9925836
0.9924028
0.9922848
0.9921995
0.9921117
0.9920089
0.9919043
0.9918274
0.9918074
0.9918543
0.991958
0.9920998
0.9922617
0.992479
0.9926695
0.9939306
0.9938779
0.9937932
0.9936492
0.9934664
0.9932525
0.992989
0.9927481
0.9925232
0.9923428
0.9922153
0.9921238
0.992039
0.9919511
0.9918716
0.9918224
0.9918268
0.9918971
0.9920275
0.9921999
0.9924039
0.9926463
0.9928954
0.9930112
0.9939454
0.9939129
0.9938617
0.9937534
0.9935957
0.9934072
0.9931898
0.9929366
0.9927098
0.9925014
0.992329
0.9921954
0.9920947
0.9920084
0.9919303
0.9918681
0.9918349
0.9918466
0.9919176
0.9920531
0.9922331
0.9924482
0.9927029
0.9929417
0.9930788
0.9930797
0.9939561
0.9939404
0.9939099
0.9938377
0.9937147
0.9935501
0.9933562
0.9931386
0.9929046
0.9927037
0.9925228
0.9923666
0.9922339
0.9921251
0.9920339
0.9919586
0.9918962
0.9918599
0.9918657
0.9919221
0.9920398
0.9922049
0.9924017
0.9926346
0.9928728
0.9930431
0.9930951
0.9930185
0.9939739
0.9939538
0.9939381
0.9939
0.9938127
0.9936817
0.9935082
0.9933091
0.9931004
0.9928953
0.9927267
0.9925766
0.9924409
0.9923165
0.9922052
0.9921067
0.9920238
0.9919613
0.9919249
0.9919226
0.9919614
0.9920467
0.9921743
0.9923289
0.9925076
0.992687
0.9928356
0.9929878
0.9929996
0.9929578
0.9939765
0.9939533
0.9939308
0.9938828
0.9937886
0.9936487
0.9934627
0.99326
0.9930665
0.9928964
0.9927658
0.9926519
0.992544
0.9924375
0.992335
0.9922396
0.9921556
0.9920896
0.9920496
0.9920373
0.9920595
0.9921186
0.9922102
0.9923275
0.9924602
0.992596
0.9927406
0.9928502
0.9929551
0.9929942
0.9940484
0.9939752
0.9939442
0.993915
0.9938608
0.9937639
0.9936105
0.9934031
0.9931932
0.9930166
0.9928817
0.9927901
0.9927158
0.9926437
0.9925671
0.9924885
0.9924113
0.992338
0.9922774
0.9922371
0.9922212
0.9922376
0.9922821
0.9923512
0.9924403
0.9925514
0.9926674
0.9927699
0.9928694
0.9929437
0.9930028
0.9930424
0.9940242
0.9939636
0.9939264
0.9938916
0.9938387
0.9937378
0.993562
0.9933188
0.993094
0.9929417
0.9928455
0.9927901
0.9927517
0.9927162
0.992677
0.9926327
0.9925803
0.9925292
0.9924909
0.9924663
0.992462
0.9924849
0.9925371
0.9926137
0.9926953
0.9927692
0.992841
0.9928953
0.9929451
0.993003
0.9930288
0.9930565
0.9940219
0.9939538
0.9939049
0.9938661
0.9938145
0.993709
0.9935104
0.993224
0.9930012
0.9928826
0.9928228
0.9927969
0.992785
0.9927771
0.9927687
0.9927578
0.9927433
0.9927252
0.9927102
0.992706
0.9927217
0.9927574
0.9928067
0.9928393
0.9928626
0.9928821
0.9929047
0.9929232
0.9929436
0.9929856
0.9929906
0.993026
0.9940116
0.9939372
0.9938793
0.9938373
0.9937882
0.993683
0.9934745
0.9931706
0.9929467
0.9928588
0.9928258
0.992817
0.9928147
0.9928125
0.9928096
0.992806
0.9928108
0.9928245
0.9928408
0.9928542
0.9928642
0.9928732
0.9928822
0.9928868
0.9928919
0.9928962
0.9928989
0.9928968
0.9928886
0.9928915
0.9928904
0.992924
0.9941041
0.9940152
0.9939268
0.993853
0.9938057
0.9937593
0.9936622
0.993463
0.9931712
0.9929468
0.9928633
0.9928558
0.9928679
0.9928759
0.9928722
0.9928389
0.9928012
0.9927879
0.9928072
0.9928495
0.9928981
0.9929382
0.9929658
0.9929831
0.9929912
0.9929952
0.9929954
0.9929908
0.9929732
0.992938
0.9928907
0.992843
0.9928143
0.9927937
0.994065
0.9939992
0.9939128
0.9938291
0.9937729
0.9937267
0.9936436
0.9934699
0.9932105
0.9929912
0.992895
0.9928924
0.992942
0.9930078
0.9929988
0.9929258
0.9928422
0.9927833
0.9927716
0.9928085
0.992878
0.9929582
0.9930307
0.9930852
0.9931173
0.9931311
0.9931342
0.993132
0.9931153
0.9930745
0.993003
0.9929037
0.9928208
0.9927514
0.9940195
0.9939728
0.9938952
0.9938068
0.9937401
0.9936905
0.9936219
0.9934835
0.9932708
0.9930703
0.99296
0.9929416
0.9929836
0.9930361
0.9930414
0.9929903
0.9929067
0.9928274
0.9927854
0.9927967
0.9928578
0.992951
0.9930537
0.9931455
0.9932119
0.993247
0.9932611
0.9932673
0.9932635
0.9932383
0.9931725
0.9930489
0.9929254
0.9927844
0.9939761
0.9939454
0.9938788
0.993789
0.9937113
0.9936529
0.9935934
0.9934904
0.9933305
0.9931645
0.993053
0.9930141
0.9930273
0.9930501
0.993044
0.9929971
0.9929253
0.9928586
0.992825
0.992839
0.9928997
0.9929942
0.9931043
0.9932106
0.9932953
0.9933472
0.9933725
0.9933864
0.9933943
0.9933898
0.9933496
0.9932386
0.9931038
0.9929034
0.9939347
0.993915
0.9938626
0.9937769
0.9936905
0.9936193
0.9935592
0.9934821
0.9933701
0.9932464
0.9931501
0.9931001
0.9930875
0.9930785
0.9930438
0.9929855
0.9929238
0.9928837
0.9928831
0.9929266
0.9930072
0.9931109
0.9932218
0.9933252
0.9934071
0.9934591
0.9934875
0.9935042
0.9935156
0.993523
0.9935063
0.9934283
0.9933194
0.9931119
0.9938969
0.9938737
0.9938392
0.9937666
0.9936795
0.9935959
0.9935261
0.9934587
0.9933788
0.9932916
0.9932164
0.9931644
0.9931292
0.9930837
0.9930245
0.9929681
0.9929352
0.992941
0.9929894
0.9930736
0.9931801
0.9932935
0.9934003
0.9934908
0.993557
0.9935988
0.9936227
0.9936377
0.9936462
0.9936543
0.9936454
0.9935923
0.9935234
0.9933459
0.9938423
0.9938197
0.993765
0.9936814
0.9935902
0.9935058
0.9934315
0.9933614
0.9932925
0.993229
0.9931717
0.9931103
0.9930485
0.9930019
0.9929865
0.993012
0.9930782
0.9931765
0.9932926
0.9934117
0.9935211
0.9936126
0.993683
0.9937308
0.9937611
0.9937801
0.993793
0.993797
0.9937983
0.9937823
0.9937378
0.9936976
0.993855
0.9938339
0.9937826
0.9937035
0.99361
0.9935141
0.9934237
0.9933427
0.993269
0.9931994
0.9931325
0.9930801
0.9930568
0.9930705
0.9931233
0.9932105
0.9933219
0.9934441
0.9935635
0.9936701
0.9937574
0.9938236
0.993873
0.9939078
0.9939309
0.9939475
0.9939594
0.9939616
0.993952
0.9939086
0.9938821
0.9938269
0.9938896
0.9938656
0.9938252
0.9937574
0.993675
0.993576
0.9934722
0.9933764
0.9932963
0.9932385
0.9932089
0.9932113
0.9932472
0.9933149
0.9934081
0.9935175
0.9936316
0.9937396
0.9938326
0.9939072
0.9939636
0.9940047
0.9940399
0.9940656
0.9940837
0.9940985
0.9941095
0.9941131
0.9940942
0.9940368
0.9939996
0.9939375
0.9939202
0.9939003
0.9938819
0.9938386
0.9937781
0.9937107
0.9936377
0.9935701
0.9935185
0.9934906
0.9934906
0.9935204
0.993577
0.9936551
0.9937455
0.9938379
0.9939231
0.9939945
0.9940484
0.9940879
0.9941174
0.9941403
0.9941658
0.9941812
0.9941919
0.9942034
0.9942175
0.9942161
0.9941947
0.9941487
0.9940992
0.9940281
0.9939485
0.9939339
0.99391
0.9938731
0.9938333
0.9937961
0.9937674
0.9937532
0.9937575
0.993783
0.9938305
0.993894
0.9939658
0.9940355
0.9940955
0.9941418
0.9941731
0.9941912
0.9942033
0.9942144
0.9942237
0.9942368
0.9942387
0.9942416
0.9942493
0.9942648
0.9942609
0.9942381
0.9942075
0.9941749
0.9939828
0.9939818
0.9939759
0.993963
0.9939524
0.9939476
0.9939548
0.9939744
0.9940052
0.9940463
0.9941009
0.9941574
0.9942079
0.9942453
0.994267
0.9942757
0.9942739
0.9942663
0.994261
0.994259
0.9942558
0.9942564
0.9942474
0.9942437
0.9942511
0.9942721
0.9942675
0.9942479
0.994229
0.9942048
0.9940388
0.9940436
0.9940559
0.9940839
0.9941085
0.9941474
0.9941895
0.9942324
0.9942721
0.9943177
0.9943506
0.9943682
0.9943689
0.9943562
0.994337
0.9943134
0.99429
0.9942749
0.9942637
0.9942506
0.9942443
0.9942406
0.9942425
0.9942541
0.9942773
0.9942613
0.9942414
0.9942311
0.9941219
0.9941727
0.9942225
0.9942782
0.9943354
0.9943816
0.9944154
0.9944364
0.9944618
0.9944638
0.994448
0.9944192
0.9943839
0.9943492
0.9943141
0.9942826
0.9942617
0.9942476
0.9942412
0.9942504
0.9942618
0.9942714
0.9942847
0.994288
0.9942514
0.9942363
0.9942931
0.9943786
0.9944247
0.9944944
0.9945255
0.9945379
0.9945315
0.9945328
0.9945065
0.9944662
0.9944198
0.9943738
0.9943331
0.9942955
0.9942661
0.9942535
0.9942531
0.9942653
0.9942988
0.9943302
0.9943458
0.9943316
0.9943166
0.994272
0.9945024
0.9945547
0.9946064
0.9946091
0.9946076
0.994577
0.9945594
0.9945149
0.9944622
0.9944104
0.9943635
0.9943254
0.9942935
0.9942731
0.9942774
0.9942966
0.9943313
0.9943936
0.9944161
0.9944389
0.994395
0.9943676
0.9946478
0.9946714
0.9946663
0.994643
0.9946048
0.9945777
0.9945254
0.994467
0.9944156
0.994372
0.994341
0.9943191
0.9943105
0.9943381
0.9943798
0.994435
0.9944973
0.9945172
0.9945363
0.994483
0.9947212
0.9946935
0.9946666
0.9946247
0.9946013
0.9945401
0.9944937
0.9944476
0.9944097
0.9943883
0.9943779
0.9943774
0.994408
0.9944673
0.9945332
0.9946012
0.9946135
0.9946486
0.9946982
0.9946471
0.9946213
0.9945571
0.9945283
0.9944911
0.9944586
0.9944455
0.9944449
0.9944448
0.9944686
0.994549
0.9946352
0.994741
0.9945891
0.9945504
0.9945212
0.9945157
0.994528
0.9945606
0.9934364
0.9932151
0.9929926
0.9928498
0.9927377
0.9926457
0.9925336
0.9923835
0.9922157
0.9920806
0.9938085
0.9936883
0.9934776
0.9933112
0.9930944
0.9928676
0.9927163
0.9926101
0.992514
0.9923883
0.9922194
0.9920577
0.9918998
0.991766
0.991718
0.9916966
0.9938399
0.9937578
0.9936185
0.9933798
0.9931683
0.9929157
0.9927027
0.9925182
0.9924086
0.9923079
0.992184
0.9920526
0.9919103
0.9917926
0.9917115
0.9916915
0.9916906
0.9917159
0.993949
0.9938871
0.9937989
0.9936793
0.9935187
0.9932628
0.9930095
0.9927188
0.9924861
0.9923091
0.9921993
0.9920963
0.9919768
0.9918581
0.9917519
0.9916853
0.9916662
0.9917016
0.9917492
0.9918235
0.9919262
0.9919897
0.9939392
0.9939226
0.9938565
0.9937379
0.9935847
0.9934067
0.9931502
0.9928687
0.9925472
0.9923002
0.9921294
0.9920211
0.9919191
0.9918104
0.9917151
0.99165
0.9916342
0.9916702
0.9917549
0.9918714
0.9920261
0.9921922
0.992405
0.9925608
0.9939241
0.9939176
0.9938891
0.9937941
0.9936527
0.9934944
0.9933061
0.9930488
0.9927564
0.9924249
0.9921636
0.9919957
0.9918882
0.9917904
0.991698
0.9916324
0.9916091
0.9916412
0.9917287
0.9918662
0.9920451
0.9922636
0.9925023
0.9926985
0.9928607
0.9928681
0.9939147
0.9939094
0.9938936
0.9938336
0.9937107
0.9935719
0.9934157
0.9932217
0.9929638
0.9926718
0.9923514
0.9920898
0.9919143
0.991803
0.9917088
0.9916322
0.9915938
0.9916046
0.9916732
0.9917986
0.9919758
0.992197
0.9924512
0.9927087
0.9929039
0.9929439
0.9928609
0.9927512
0.9939681
0.9939275
0.9939023
0.9938547
0.9937627
0.9936412
0.9935079
0.9933526
0.9931525
0.9928956
0.9926158
0.9923231
0.9920775
0.9918996
0.9917775
0.9916796
0.9916091
0.9915794
0.9915994
0.9916837
0.991829
0.9920257
0.9922636
0.992527
0.9927775
0.992937
0.9929424
0.9928483
0.992726
0.9926694
0.9939708
0.9939272
0.9938798
0.993804
0.9937098
0.9935944
0.9934632
0.9933027
0.9930952
0.9928454
0.9925913
0.9923373
0.9921168
0.9919432
0.9918122
0.9917037
0.9916192
0.9915857
0.9916065
0.9916871
0.9918231
0.9920084
0.9922324
0.9924815
0.9927282
0.9929028
0.9929399
0.9928631
0.9927736
0.9927094
0.9940617
0.9939769
0.9939129
0.9938436
0.9937668
0.9936769
0.9935663
0.993431
0.9932592
0.9930458
0.992814
0.9925975
0.9923911
0.9922058
0.9920461
0.9919129
0.9918
0.9917108
0.9916634
0.9916651
0.9917184
0.9918198
0.991965
0.9921449
0.9923475
0.9925614
0.9927598
0.9928961
0.9929221
0.992856
0.9928192
0.9928258
0.9941904
0.9940934
0.9939887
0.9938934
0.9938152
0.9937411
0.9936573
0.9935474
0.9933978
0.9932102
0.9930014
0.9928022
0.992634
0.9924822
0.9923416
0.9922097
0.9920884
0.9919795
0.9918884
0.9918278
0.9918072
0.9918283
0.9918904
0.9919895
0.9921178
0.9922662
0.9924254
0.9925835
0.9927478
0.9928702
0.9929248
0.9929217
0.9929001
0.9928895
0.9941814
0.9940838
0.9939793
0.9938742
0.9937928
0.9937235
0.9936442
0.9935229
0.9933527
0.9931482
0.9929486
0.9927863
0.992668
0.9925704
0.9924787
0.9923852
0.9922918
0.9922027
0.9921228
0.9920625
0.9920305
0.9920308
0.9920654
0.9921305
0.9922198
0.9923306
0.9924561
0.9925841
0.9927062
0.99282
0.992913
0.99298
0.9929988
0.9929699
0.99416
0.9940661
0.993952
0.9938502
0.9937722
0.9937084
0.9936252
0.9934919
0.9932902
0.9930574
0.992869
0.9927499
0.9926778
0.9926268
0.9925809
0.992532
0.992478
0.9924159
0.9923602
0.9923201
0.9922984
0.9923008
0.9923303
0.9923931
0.9924804
0.9925694
0.9926509
0.9927277
0.9927966
0.9928631
0.992933
0.9929886
0.993035
0.9930341
0.9942478
0.9941811
0.99408
0.9939492
0.9938363
0.9937546
0.9936903
0.9936043
0.9934573
0.9932172
0.9929535
0.9928005
0.9927236
0.992689
0.992672
0.9926602
0.9926482
0.9926336
0.9926163
0.992597
0.9925827
0.9925813
0.992602
0.9926425
0.9926895
0.9927269
0.992757
0.9927835
0.9928105
0.9928375
0.9928691
0.9929163
0.9929583
0.993015
0.9930326
0.9930397
0.9941998
0.9941617
0.9940693
0.9939414
0.9938243
0.9937374
0.9936691
0.9935833
0.9934287
0.9931668
0.9928897
0.9927668
0.9927224
0.9927098
0.9927066
0.9927045
0.9927021
0.9926994
0.9927031
0.9927158
0.992733
0.9927493
0.9927631
0.9927758
0.992787
0.9927948
0.9928025
0.9928102
0.9928167
0.9928185
0.9928174
0.9928269
0.9928478
0.9929064
0.9929222
0.9929635
0.9941317
0.9941067
0.9940338
0.99392
0.9938083
0.9937188
0.9936463
0.9935628
0.9934128
0.9931559
0.9928903
0.9927636
0.9927445
0.9927516
0.9927571
0.9927507
0.9927251
0.9926915
0.9926784
0.9926957
0.9927369
0.9927875
0.9928321
0.9928644
0.9928853
0.9928965
0.9929026
0.9929058
0.9929047
0.9928897
0.9928568
0.9928147
0.9927801
0.9927828
0.9927915
0.992833
0.9940662
0.9940506
0.993983
0.9938916
0.9937907
0.9937
0.9936231
0.9935424
0.9934076
0.9931781
0.9929329
0.9927974
0.9927748
0.9928135
0.9928745
0.9928712
0.9928027
0.9927256
0.9926704
0.9926591
0.9926948
0.9927646
0.9928476
0.9929247
0.9929837
0.9930198
0.9930368
0.9930436
0.9930457
0.9930324
0.9929899
0.9929157
0.9928242
0.9927519
0.9927118
0.9927096
0.9939925
0.9939857
0.9939295
0.9938571
0.9937703
0.9936812
0.9936001
0.9935214
0.9934066
0.9932175
0.9930043
0.9928641
0.9928226
0.9928518
0.9929029
0.9929128
0.9928669
0.9927888
0.992714
0.9926743
0.9926863
0.9927479
0.9928433
0.9929498
0.9930459
0.9931159
0.993155
0.9931735
0.9931854
0.9931877
0.9931616
0.9930885
0.9929685
0.9928441
0.9927342
0.9926836
0.9939303
0.9939257
0.9938747
0.9938163
0.9937462
0.993663
0.9935786
0.9934997
0.993403
0.9932567
0.9930847
0.9929533
0.9928944
0.992895
0.9929144
0.9929131
0.992874
0.9928098
0.9927488
0.9927188
0.9927351
0.9927978
0.9928951
0.9930087
0.9931184
0.993206
0.9932615
0.9932911
0.9933115
0.9933287
0.9933278
0.9932823
0.9931738
0.9930298
0.9928573
0.9927323
0.9938841
0.9938747
0.9938227
0.9937682
0.9937145
0.9936439
0.9935598
0.9934783
0.9933931
0.9932825
0.9931529
0.9930424
0.992978
0.9929552
0.9929455
0.9929172
0.9928681
0.9928151
0.9927818
0.992786
0.9928332
0.9929171
0.993024
0.9931378
0.9932433
0.993327
0.9933819
0.9934136
0.993437
0.9934604
0.993476
0.9934602
0.9933885
0.9932668
0.9930788
0.9928938
0.9938626
0.9938441
0.9937988
0.9937291
0.9936765
0.9936207
0.9935435
0.9934596
0.9933778
0.993289
0.9931923
0.993105
0.993043
0.9930028
0.9929615
0.992911
0.9928643
0.9928402
0.9928529
0.9929068
0.9929952
0.9931048
0.9932203
0.9933281
0.9934186
0.9934854
0.993528
0.9935539
0.9935757
0.9935984
0.9936174
0.9936152
0.9935751
0.9934925
0.9933467
0.9931644
0.9938483
0.9938262
0.993785
0.9937064
0.9936454