/*--------------------------------*- C++ -*----------------------------------*\
  =========                 |
  \\      /  F ield         | OpenFOAM: The Open Source CFD Toolbox
   \\    /   O peration     | Website:  https://openfoam.org
    \\  /    A nd           | Version:  6
     \\/     M anipulation  |
\*---------------------------------------------------------------------------*/
FoamFile
{
    version     2.0;
    format      ascii;
    class       volScalarField;
    location    "50";
    object      T;
}
// * * * * * * * * * * * * * * * * * * * * * * * * * * * * * * * * * * * * * //

dimensions      [0 0 0 1 0 0 0];

internalField   nonuniform List<scalar> 
203709
(
960.2424
960.5361
960.7575
960.7992
958.6122
958.9235
959.5972
959.8989
960.1527
960.3021
960.2967
960.0837
956.7601
957.0141
957.6578
957.9736
958.5167
958.8994
959.194
959.3712
959.4215
959.2944
959.1204
958.6612
956.3959
956.4763
956.581
956.8875
957.116
957.4929
957.8429
958.1277
958.3018
958.359
958.2472
958.0501
957.7741
957.4111
956.3857
956.4003
956.4295
956.529
956.6289
956.8216
957.0401
957.2276
957.3334
957.3429
957.2237
957.0196
956.756
956.5454
956.2242
956.2613
956.2565
956.2703
956.3048
956.3616
956.4452
956.5258
956.5835
956.5894
956.5221
956.3687
956.159
955.9404
955.8643
955.7922
956.0474
956.0638
956.0862
956.1122
956.1482
956.1869
956.2208
956.2288
956.1878
956.0734
955.9321
955.848
955.8975
956.0983
956.3356
956.4722
955.5943
955.7523
955.7605
955.8105
955.876
955.9738
956.0652
956.1628
956.2744
956.3795
956.4629
956.5404
956.603
956.6555
956.714
956.7829
956.8568
956.8357
955.2824
955.2171
955.2113
955.3365
955.5172
955.7265
955.7918
955.7542
955.7326
955.7687
955.8471
955.9392
956.0347
956.1325
956.2377
956.3509
956.4651
956.5791
955.0187
954.866
954.7096
954.6948
955.0872
955.6416
955.9465
955.8553
955.5954
955.3675
955.2606
955.2654
955.3457
955.4697
955.6178
955.7746
955.9279
956.1036
954.7605
954.648
954.5599
954.6842
955.0789
955.6276
956.1091
956.285
956.0643
955.6063
955.1693
954.9034
954.8276
954.896
955.0485
955.2308
955.3952
955.657
954.5474
954.6148
954.899
955.3639
955.899
956.3514
956.5761
956.4874
956.1016
955.5488
955.0179
954.662
954.5355
954.6058
954.788
954.985
954.6814
954.9154
955.3152
955.808
956.281
956.6261
956.7639
956.6597
956.3273
955.8275
955.2633
954.7637
954.438
954.3405
954.4412
954.6883
955.4813
955.9157
956.3268
956.6446
956.8086
956.7917
956.5968
956.2506
955.8001
955.3005
954.8261
954.443
954.2303
954.198
956.1454
956.4286
956.6424
956.759
956.7295
956.5628
956.2794
955.9139
955.5131
955.1016
954.7274
954.3857
954.1683
954.1173
956.4292
956.5221
956.5124
956.3116
956.0478
955.7219
955.3723
955.0533
954.7467
954.5072
954.2096
954.1061
955.5973
955.5554
955.3107
954.9896
954.7086
954.5169
954.3025
954.2855
954.2602
954.1812
954.043
954.0839
959.3085
959.9519
960.4313
960.8147
961.0492
961.1204
961.0028
960.6789
960.1658
959.6031
957.813
958.8312
959.3644
959.9465
960.4233
960.8224
961.0826
961.1816
961.0902
960.7817
960.2586
959.6615
958.8458
958.2068
957.177
957.8011
958.7154
959.2676
959.8194
960.2911
960.7224
961.0337
961.1751
961.138
960.9072
960.4448
959.8326
959.049
958.3164
957.5164
956.3925
957.0351
957.6511
958.4366
958.9795
959.5297
960.0572
960.4441
960.8386
961.0433
961.0609
960.9325
960.6033
960.1086
959.45
958.7167
957.9738
957.6299
955.5517
956.1681
956.7476
957.2523
957.9156
958.5195
958.9761
959.5314
960.0064
960.3949
960.667
960.8103
960.7618
960.5405
960.1656
959.6925
959.1136
958.5036
958.0532
957.7868
954.8633
955.3469
955.84
956.2956
956.7444
957.1922
957.7228
958.2032
958.6794
959.1523
959.5903
959.9472
960.1963
960.2707
960.2017
959.9554
959.5091
959.0572
958.5707
958.058
957.5338
957.0383
954.8535
955.2727
955.7046
956.0935
956.434
956.742
957.072
957.4116
957.7884
958.1974
958.6084
958.974
959.258
959.4021
959.4062
959.2366
958.8125
958.2386
957.9065
957.4494
956.9262
956.5578
954.5324
954.9958
955.5325
955.9967
956.2998
956.519
956.7071
956.867
957.0288
957.2277
957.4788
957.7657
958.0366
958.2499
958.3567
958.3358
958.1581
957.7702
957.1452
956.7615
956.4382
956.1589
955.9265
955.7332
954.7288
955.3387
955.8872
956.2453
956.4382
956.5451
956.6772
956.7553
956.827
956.9211
957.0491
957.1947
957.3084
957.3833
957.3756
957.2651
957.0424
956.6999
956.308
956.1148
956.0797
956.0344
955.9152
955.7422
954.7079
955.5278
956.0178
956.2264
956.2943
956.4125
956.4911
956.5422
956.5892
956.6526
956.7235
956.7827
956.7917
956.7442
956.6146
956.5053
956.4562
956.5217
956.6195
956.694
956.7893
956.7948
956.6888
956.4709
954.4338
955.3021
955.8624
955.9626
956.0282
956.0861
956.1457
956.2089
956.3062
956.4065
956.4994
956.5942
956.6829
956.7521
956.8007
956.8323
956.8561
956.8825
956.9181
956.9781
956.9919
957.0246
957.0381
956.9857
954.1398
954.8667
955.4478
955.6041
955.5993
955.5431
955.6257
955.7573
955.9662
956.0908
956.1004
956.0783
956.0798
956.1126
956.1611
956.2156
956.2748
956.3417
956.4187
956.5093
956.615
956.7408
956.9035
957.063
953.9192
954.4415
954.9426
955.1604
955.1748
955.053
954.9614
955.2175
955.7318
956.115
956.1678
955.9996
955.7775
955.6096
955.5281
955.5231
955.5766
955.6663
955.7691
955.8769
956.0187
956.1419
956.3239
956.5459
953.8301
954.1553
954.5113
954.7212
954.7535
954.726
954.756
955.0492
955.5682
956.1158
956.4418
956.405
956.0785
955.6591
955.3095
955.0992
955.0361
955.0872
955.1937
955.2974
955.4266
955.4529
955.5264
955.6465
953.9021
954.0761
954.2936
954.4278
954.5545
954.6339
954.8217
955.2233
955.7635
956.297
956.6611
956.737
956.5018
956.0402
955.5054
955.0461
954.7611
954.6743
954.7432
954.9079
955.0011
955.025
954.966
954.945
954.1216
954.2148
954.3442
954.4784
954.6357
954.8291
955.1788
955.6513
956.1609
956.592
956.8461
956.866
956.6442
956.2183
955.672
955.1136
954.6683
954.4191
954.3904
954.5762
954.7397
954.7942
954.7289
954.6402
954.3728
954.5214
954.6459
954.8053
955.0606
955.3264
955.7561
956.1984
956.5703
956.8083
956.8718
956.7518
956.4636
956.0356
955.5233
954.9831
954.5219
954.2064
954.1339
954.2441
954.4541
954.5873
954.587
954.5286
954.868
955.0537
955.2868
955.5859
955.9683
956.2924
956.5561
956.7107
956.7197
956.5909
956.3393
955.9854
955.5438
955.0753
954.5896
954.2119
953.9279
953.8891
953.9668
954.1507
954.3047
954.3752
955.0792
955.3534
955.6417
955.9467
956.1774
956.2962
956.3419
956.3425
956.1892
955.9585
955.6444
955.2747
954.8391
954.4527
954.0356
953.8129
953.6574
953.5902
953.6816
953.8302
953.9554
954.0808
955.3058
955.539
955.7131
955.8051
955.7953
955.7057
955.4957
955.2943
955.0865
954.7838
954.4561
954.0496
953.8198
953.6022
953.375
953.3032
953.3005
953.3645
953.4602
953.5719
954.9416
955.0215
954.9996
954.9281
954.8067
954.6332
954.4115
954.1509
953.9057
953.6713
953.4748
953.2186
953.0881
953.0009
952.9487
952.9164
952.9388
953.0417
953.9929
954.0496
953.9885
953.8892
953.7485
953.5859
953.4047
953.2045
953.0231
952.8725
952.7459
952.6262
952.5503
952.4942
952.3628
952.4319
953.1333
953.2051
953.1207
952.9866
952.8549
952.7162
952.5726
952.4353
952.3135
952.2025
952.0931
951.9901
951.8897
951.7152
952.2912
952.2954
952.2248
952.1176
951.998
951.8791
951.7613
951.6319
951.4799
951.3837
959.0611
959.5381
959.9846
960.2903
960.4562
960.4884
960.3934
960.1995
957.0743
957.9638
958.8332
959.3755
959.8543
960.2694
960.5437
960.6735
960.657
960.5036
960.2592
959.8004
959.4457
959.2074
956.6522
957.3184
958.2774
959.0977
959.6748
960.1583
960.5501
960.7944
960.8858
960.8146
960.5825
960.2098
959.6914
959.2606
958.9124
958.5672
954.9637
955.9624
956.7541
957.5723
958.4708
959.2604
959.9422
960.436
960.8155
961.0366
961.0934
960.9706
960.661
960.1739
959.5486
959.0223
958.4888
957.9422
957.29
956.9596
954.4265
955.0732
956.0869
956.877
957.6963
958.7326
959.4457
960.1734
960.6839
961.0657
961.2758
961.3096
961.1505
960.7863
960.2213
959.5216
958.8297
958.1381
957.4353
956.7347
956.131
955.7245
953.7936
954.4592
955.2087
956.1771
956.9713
957.8198
958.8421
959.5508
960.2499
960.7793
961.1849
961.4176
961.466
961.3161
960.958
960.3829
959.6365
958.8565
958.065
957.2556
956.5594
956.0346
955.7231
955.697
953.8316
954.5345
955.3104
956.2087
957.0318
957.8534
958.7792
959.4682
960.1343
960.6795
961.1156
961.3971
961.4987
961.4098
961.1401
960.6483
959.9371
959.1459
958.3152
957.5091
956.7827
956.2354
955.9692
955.775
953.2289
953.8959
954.6118
955.374
956.2199
956.9745
957.6968
958.4935
959.1362
959.7541
960.305
960.7683
961.109
961.3129
961.3444
961.2028
960.8594
960.2966
959.6007
958.8268
958.0623
957.3541
956.9606
956.3231
955.872
955.8902
952.5779
953.2726
953.9393
954.671
955.3794
956.1134
956.7628
957.3575
957.9932
958.5524
959.0998
959.6268
960.1179
960.5136
960.8027
960.9581
960.9556
960.7724
960.394
959.833
959.1906
958.5294
957.887
957.2449
956.6359
956.0772
955.9354
956.1899
952.6476
953.3201
954.0026
954.6934
955.3427
955.9678
956.5287
957.0086
957.4735
957.89
958.3105
958.7473
959.1935
959.6015
959.9366
960.167
960.2603
960.1956
959.9517
959.5068
958.9163
958.3381
957.7378
957.0947
956.4683
956.0424
955.8771
956.101
952.7265
953.3585
954.0884
954.7357
955.4187
956.0403
956.5491
956.9257
957.2276
957.4827
957.737
958.0252
958.3484
958.6764
958.9595
959.1609
959.2464
959.1915
958.9754
958.5757
958
957.4337
956.9369
956.5313
956.107
955.8595
955.8115
955.9914
952.3544
952.8073
953.3734
954.1023
954.8948
955.6956
956.3243
956.7351
956.9814
957.1553
957.283
957.4078
957.5632
957.7629
957.9663
958.109
958.1888
958.1689
958.0288
957.7643
957.3646
956.9431
956.663
956.4955
956.343
956.1273
955.8651
955.9
956.1465
956.4865
952.4953
952.8446
953.3564
954.035
955.0432
955.9535
956.4746
956.7189
956.8607
956.9535
957.0219
957.0876
957.1747
957.2842
957.389
957.4324
957.4048
957.2662
957.1046
956.9836
956.9825
957.0133
957.0346
957.0645
957.0054
956.8168
956.4697
956.3291
956.3984
956.5519
952.6556
952.9051
953.3227
953.9079
954.8862
955.9554
956.358
956.4605
956.5159
956.5672
956.6317
956.713
956.8179
956.9132
957.0008
957.0776
957.1317
957.1598
957.1727
957.1806
957.1958
957.2217
957.2572
957.2949
957.2994
957.2454
957.0681
956.943
956.895
956.8669
952.8448
953.0074
953.3118
953.7726
954.5995
955.5845
956.0647
956.0783
955.9902
956.0186
956.1176
956.3046
956.4601
956.5087
956.5003
956.4882
956.4932
956.5125
956.5419
956.5845
956.6447
956.7213
956.8053
956.8927
956.9955
957.1113
957.2021
957.2526
957.2673
957.2583
953.0627
953.1672
953.3648
953.6908
954.3073
955.0858
955.5906
955.6945
955.5608
955.4098
955.5324
955.9999
956.4144
956.5554
956.4639
956.2663
956.0718
955.9369
955.8752
955.8858
955.9572
956.0631
956.1605
956.2262
956.3093
956.4717
956.7151
956.9703
957.2386
957.4759
953.2906
953.3821
953.5061
953.7133
954.1211
954.6591
955.0789
955.2524
955.239
955.1931
955.3635
955.809
956.3561
956.7551
956.8353
956.6099
956.2251
955.8371
955.5448
955.394
955.3882
955.4898
955.6046
955.6268
955.583
955.5824
955.7049
955.8884
956.136
956.3826
953.4939
953.624
953.7295
953.8622
954.1098
954.4417
954.7423
954.9293
955.02
955.147
955.4709
955.9729
956.5254
956.96
957.1376
957.0052
956.6137
956.0888
955.5751
955.1941
955.0153
955.0409
955.1731
955.2261
955.1296
954.9614
954.8726
954.8449
954.9444
955.2514
953.6469
953.859
953.9972
954.1163
954.2838
954.4929
954.7089
954.9033
955.0963
955.3916
955.8438
956.3661
956.8462
957.1741
957.2749
957.1234
956.7448
956.2101
955.6235
955.1102
954.78
954.6932
954.7919
954.8835
954.8302
954.6391
954.4671
954.2928
954.2403
954.4607
954.0079
954.2367
954.4164
954.59
954.7755
954.9813
955.2189
955.5173
955.937
956.3923
956.809
957.1051
957.229
957.1586
956.9002
956.4829
955.959
955.3955
954.8881
954.5254
954.3813
954.4204
954.4986
954.4727
954.3203
954.1941
953.9921
953.8947
953.992
954.3373
954.6138
954.8476
955.1042
955.3755
955.688
956.0711
956.4546
956.7631
956.9558
957.0079
956.9154
956.6802
956.322
955.8706
955.3752
954.8806
954.4632
954.1671
954.0359
954.0274
954.0473
953.9941
953.9243
953.7418
953.6778
953.6424
953.8277
954.2092
954.5983
954.9444
955.2543
955.5951
955.9427
956.2394
956.4433
956.5385
956.5249
956.394
956.1633
955.8476
955.4602
955.0288
954.607
954.2192
953.923
953.7241
953.611
953.5542
953.4955
953.3848
953.3481
953.2162
953.1966
953.3011
954.0243
954.3616
954.6699
955.021
955.3329
955.5746
955.7213
955.7708
955.7297
955.6048
955.4044
955.145
954.8316
954.4856
954.1309
953.8173
953.5543
953.3524
953.2153
953.0869
952.9584
952.8253
952.7423
952.5437
952.5581
952.6825
953.9013
954.202
954.4076
954.5573
954.7327
954.7962
954.781
954.6978
954.5512
954.3531
954.1129
953.8444
953.5717
953.3181
953.0971
952.9189
952.7748
952.6462
952.4388
952.2331
952.1371
951.8714
951.8278
951.8946
953.0511
953.3316
953.533
953.6659
953.7192
953.7973
953.7761
953.7048
953.575
953.399
953.1948
952.9831
952.7813
952.6019
952.4457
952.3064
952.1551
951.9808
951.6671
951.5085
951.2711
951.1738
951.103
951.2394
952.6893
952.8622
952.9554
952.9944
952.9544
952.9022
952.8478
952.722
952.5637
952.3955
952.2327
952.0824
951.9443
951.8046
951.6516
951.456
951.2338
950.9387
950.6917
950.6782
950.5663
950.621
952.1779
952.3186
952.3523
952.2824
952.1828
952.0946
951.9587
951.8141
951.673
951.5413
951.4146
951.2818
951.124
950.9476
950.817
950.4936
950.2586
950.2379
950.2737
950.243
951.6439
951.5888
951.5441
951.4799
951.3097
951.1646
951.0343
950.9152
950.7942
950.6546
950.4893
950.3322
950.246
950.1023
949.8593
949.9561
950.9224
950.9387
950.8929
950.649
950.5174
950.4085
950.31
950.2034
950.0787
949.9547
949.8868
949.8913
949.8434
949.6956
949.9899
949.912
949.8427
949.7855
949.7184
949.6479
949.6173
949.641
958.3305
958.7826
959.181
959.4494
959.5995
959.6272
955.9096
956.7084
957.5278
958.3574
958.8203
959.3123
959.677
959.9117
960.0384
960.0956
959.9843
959.7667
959.5239
959.329
954.7283
955.6231
956.3187
957.1702
957.8826
958.8373
959.3701
959.8495
960.175
960.3607
960.422
960.3638
960.1432
959.8691
959.5818
959.3312
959.0413
958.861
954.3934
955.0008
955.8159
956.7398
957.6778
958.5287
959.3423
960.0104
960.4677
960.7382
960.8532
960.8234
960.6467
960.3127
959.9456
959.5807
959.2353
958.9077
958.6413
958.3855
953.8643
954.5177
955.2104
956.1773
957.1243
958.1925
959.1284
959.9662
960.6141
961.0272
961.2335
961.2692
961.1427
960.8611
960.4505
959.9946
959.5275
959.0548
958.6314
958.2229
957.8178
957.4906
953.3077
953.9022
954.7033
955.5796
956.4691
957.5252
958.6526
959.6576
960.5208
961.1469
961.5146
961.6574
961.6115
961.3852
960.9937
960.4783
959.9099
959.3268
958.7354
958.1275
957.573
956.9755
956.312
955.9546
952.7398
953.3871
954.071
954.917
955.8238
956.7535
957.8576
959.028
960.0658
960.9446
961.5584
961.8984
961.9962
961.8856
961.5744
961.0808
960.4503
959.7519
959.0297
958.2933
957.5458
956.816
956.1408
955.7496
955.6177
955.8466
952.0821
952.8275
953.4713
954.2665
955.1086
956.0216
956.9836
958.1029
959.2649
960.2897
961.1675
961.79
962.1417
962.2389
962.111
961.7647
961.2218
960.5168
959.7126
958.873
958.0338
957.2311
956.5207
956.0047
955.8221
955.9024
956.1499
956.4114
951.6772
952.2284
952.8867
953.5653
954.4034
955.2621
956.185
957.158
958.2404
959.3346
960.294
961.1342
961.7679
962.1659
962.3302
962.2877
962.0049
961.4874
960.7762
959.9368
959.0444
958.1556
957.3435
956.6884
956.2667
956.0904
956.0714
956.3507
956.5972
956.7428
951.7792
952.2929
952.9362
953.726
954.5262
955.3899
956.3102
957.2397
958.22
959.1902
960.0494
960.8292
961.475
961.9487
962.2207
962.2826
962.1246
961.7415
961.1438
960.3829
959.537
958.6737
957.88
957.2255
956.7869
956.3049
956.1239
956.4111
956.7536
956.9289
951.5177
951.9052
952.3597
953.0672
953.83
954.6284
955.488
956.3639
957.1848
958.0003
958.7953
959.5169
960.1982
960.8108
961.3192
961.6803
961.8711
961.8749
961.6781
961.2812
960.7177
960.0237
959.2755
958.5502
957.8857
957.2236
956.5713
956.184
956.437
956.8189
957.0494
957.2475
951.6487
951.9795
952.4364
953.152
953.909
954.7133
955.5421
956.3237
957.0099
957.6372
958.2178
958.7501
959.2798
959.8072
960.3042
960.7203
961.0114
961.1483
961.1121
960.8976
960.5192
959.9888
959.3525
958.6947
958.0116
957.3142
956.6645
956.259
956.3397
956.8315
957.1046
957.3721
951.8296
952.0988
952.5268
953.2173
953.9726
954.7945
955.6114
956.3412
956.941
957.4254
957.817
958.1533
958.4968
958.8743
959.2707
959.6419
959.9285
960.092
960.1078
959.9648
959.6667
959.2196
958.6286
957.9972
957.4388
956.957
956.5171
956.2373
956.2941
956.685
957.0544
957.2716
952.0202
952.2509
952.6605
953.2759
954.0145
954.8869
955.807
956.5492
957.0834
957.43
957.6602
957.8357
958.0141
958.2317
958.5033
958.7573
958.9239
958.9928
958.9343
958.7371
958.4021
957.9508
957.5292
957.2202
956.9844
956.7478
956.4756
956.2728
956.3726
956.677
956.952
957.0934
951.9728
952.2581
952.4409
952.7857
953.316
954.0143
954.9424
956.0397
956.7499
957.1357
957.3329
957.4479
957.5355
957.6265
957.7398
957.8825
958.0202
958.0836
958.0553
957.8927
957.6729
957.5115
957.4752
957.4711
957.4599
957.4331
957.3126
957.0618
956.757
956.698
956.8487
956.9713
957.1065
957.1515
952.1538
952.4254
952.6272
952.9168
953.3524
953.9718
954.8634
956.0354
956.7256
956.9333
957.0003
957.0456
957.1043
957.1772
957.2757
957.3727
957.4563
957.522
957.5584
957.5684
957.5653
957.5636
957.5769
957.6039
957.6361
957.6656
957.6559
957.5744
957.3999
957.2905
957.2627
957.1863
957.2309
957.3094
952.315
952.6095
952.8268
953.0743
953.4132
953.9158
954.6883
955.7443
956.4621
956.599
956.5025
956.4868
956.5597
956.709
956.8824
956.9636
956.9725
956.9536
956.9359
956.9289
956.9367
956.9681
957.0291
957.1107
957.1907
957.2642
957.3546
957.4702
957.578
957.6408
957.6594
957.6024
957.6064
957.9498
952.4335
952.7787
953.0316
953.2654
953.5258
953.9009
954.495
955.3468
956.0245
956.2324
956.1134
955.9303
955.94
956.3549
956.7907
957.0006
956.9806
956.8158
956.608
956.4301
956.3187
956.2916
956.3488
956.4572
956.5467
956.5767
956.5999
956.6917
956.8649
957.0786
957.3031
957.5126
957.6023
957.5135
952.4926
952.9032
953.216
953.4757
953.6997
953.9696
954.3816
954.983
955.5413
955.8114
955.8068
955.7177
955.7909
956.1668
956.704
957.1569
957.3324
957.1966
956.8518
956.4418
956.0847
955.8586
955.8004
955.8847
955.9902
955.9745
955.8463
955.724
955.6982
955.7691
955.9091
956.131
956.248
956.3858
952.5448
952.9715
953.3535
953.6714
953.9141
954.1338
954.4096
954.7943
955.185
955.4486
955.5677
955.6447
955.8808
956.3283
956.8801
957.3644
957.6232
957.5762
957.2446
956.7311
956.1761
955.7182
955.4619
955.437
955.537
955.5523
955.3783
955.0953
954.8507
954.7086
954.6529
954.7979
954.918
955.4088
953.0086
953.4451
953.7977
954.1122
954.3569
954.5814
954.8386
955.1081
955.3379
955.5342
955.7848
956.1965
956.7117
957.2218
957.6063
957.7722
957.6771
957.3336
956.8046
956.1918
955.624
955.2282
955.0799
955.1165
955.1399
954.9937
954.6901
954.3616
954.1131
953.9444
953.9802
953.9765
952.8824
953.3199
953.8008
954.2146
954.5487
954.8194
955.0663
955.3119
955.5637
955.8495
956.2486
956.7185
957.1655
957.5066
957.678
957.6455
957.4084
956.9947
956.4572
955.8685
955.3233
954.9185
954.7191
954.6806
954.6511
954.497
954.2119
953.892
953.6494
953.5436
953.4439
953.4983
952.6729
953.1643
953.6786
954.1696
954.6035
954.9769
955.3077
955.6238
955.9567
956.3405
956.7413
957.0722
957.2987
957.3862
957.3152
957.0888
956.7273
956.2653
955.7513
955.2384
954.7921
954.4647
954.2756
954.1713
954.0521
953.8454
953.5693
953.2754
953.0965
953.0958
953.0432
953.1327
952.3616
952.8722
953.4157
953.8994
954.4165
954.8924
955.3245
955.7302
956.1129
956.4324
956.6559
956.7694
956.7694
956.6579
956.44
956.1232
955.7313
955.2969
954.8632
954.465
954.1385
953.8978
953.7123
953.5321
953.3168
953.0576
952.7863
952.5486
952.4452
952.5174
952.5681
952.7837
952.6288
952.9919
953.5239
953.9899
954.4907
954.941
955.3046
955.57
955.7482
955.8324
955.8226
955.7239
955.5442
955.2962
954.9888
954.645
954.2935
953.9671
953.6826
953.4424
953.2418
953.0137
952.7481
952.4736
952.2113
951.9677
951.8125
951.8474
951.8516
952.0429
952.1223
952.5497
952.9073
953.4364
953.8511
954.1781
954.4376
954.6284
954.739
954.7668
954.7163
954.5943
954.4105
954.1783
953.9141
953.6398
953.3767
953.1372
952.9233
952.7111
952.4975
952.1973
951.8886
951.6375
951.4253
951.2519
951.2365
951.2033
951.3259
951.5448
952.1495
952.4754
952.7536
953.0849
953.3609
953.563
953.699
953.7665
953.762
953.6933
953.5665
953.3908
953.1833
952.9637
952.7488
952.5479
952.3561
952.1628
951.9314
951.696
951.3652
951.1166
950.9564
950.8263
950.7027
950.7252
950.7544
950.8933
951.981
952.2245
952.4126
952.6176
952.7616
952.855
952.8863
952.8568
952.7744
952.6446
952.4782
952.2957
952.1136
951.9395
951.7701
951.5907
951.3959
951.1599
950.968
950.6989
950.5692
950.5102
950.4297
950.3805
950.3645
950.4468
951.7406
951.9
951.9784
952.0305
952.0837
952.083
952.0337
951.9344
951.803
951.6451
951.4846
951.3326
951.1861
951.0341
950.8695
950.7087
950.5379
950.4555
950.2685
950.2341
950.2328
950.233
950.1766
950.1921
951.3753
951.4232
951.3874
951.3815
951.3289
951.2664
951.1489
951.0216
950.8734
950.7376
950.6185
950.503
950.3828
950.2749
950.201
950.1281
950.1508
949.9908
950.069
950.0886
950.1533
950.0913
950.8605
950.8149
950.7503
950.6459
950.5509
950.4083
950.293
950.165
950.0713
950.0037
949.9377
949.8781
949.8634
949.873
949.8593
949.9224
949.8369
949.9688
950.0314
950.1012
950.2063
950.1989
949.9994
949.9267
949.7377
949.689
949.551
949.5159
949.514
949.5069
949.516
949.5887
949.696
949.6908
949.7767
949.7241
949.8987
950.0041
949.378
949.3763
949.2324
949.1921
949.1137
949.1392
949.199
949.2431
949.3017
949.4361
949.5934
949.557
949.6307
949.5302
948.7818
948.8775
948.9898
949.0645
949.1319
949.2032
955.8418
956.5768
957.2935
957.844
958.3122
958.6408
958.8648
959.0022
959.0327
958.951
954.2136
954.8978
955.762
956.3517
957.089
957.9662
958.5213
958.9586
959.2527
959.4326
959.5099
959.4944
959.4391
959.2611
959.063
958.8623
954.015
954.4279
955.4384
956.3081
957.0684
957.9399
958.696
959.4079
959.823
960.0561
960.1381
960.0696
959.9291
959.7439
959.4947
959.2347
958.9788
958.7057
952.8259
953.5338
954.289
955.0223
955.9448
956.98
957.9197
958.9037
959.7107
960.3592
960.7141
960.8672
960.8556
960.7029
960.4575
960.1488
959.7954
959.4253
959.1043
958.7999
958.4417
958.1997
952.5689
953.002
953.8649
954.6438
955.5239
956.5472
957.6875
958.7845
959.8439
960.6653
961.2282
961.4966
961.5599
961.4596
961.2299
960.9096
960.5296
960.1168
959.6837
959.2369
958.7696
958.3695
957.9959
957.6331
952.1464
952.7088
953.3332
954.1904
955.0398
955.9923
957.1053
958.3566
959.5847
960.693
961.4811
961.9449
962.1158
962.082
961.8882
961.5775
961.1909
960.7574
960.2911
959.7849
959.2281
958.6271
958.018
957.5529
957.0911
956.6541
951.7017
952.296
952.9218
953.668
954.5527
955.413
956.3978
957.594
958.9342
960.2729
961.4086
962.1439
962.5111
962.5822
962.4407
962.1339
961.7127
961.2234
960.6945
960.1292
959.509
958.8195
958.0756
957.3079
956.5996
956.2194
956.0322
955.9035
951.3283
951.8529
952.4421
953.2236
954.0115
954.8692
955.7289
956.7365
957.975
959.3829
960.8067
961.9583
962.6479
962.9404
962.9251
962.6774
962.2443
961.6808
961.0376
960.3443
959.6016
958.7972
957.9434
957.1014
956.3731
955.9038
955.7419
955.7563
955.7758
955.875
951.445
951.96
952.6868
953.5069
954.2882
955.1101
955.9718
957.007
958.2805
959.6911
961.1128
962.2889
962.973
963.2431
963.1924
962.8978
962.3797
961.6969
960.9115
960.0636
959.1699
958.2503
957.3657
956.6332
956.1885
956.0656
956.0845
956.1442
956.1994
956.1293
951.2252
951.6329
952.1743
952.9326
953.7235
954.4834
955.2821
956.1608
957.2257
958.5027
959.8628
961.1886
962.3316
963.0788
963.4366
963.4444
963.1485
962.602
961.8722
961.0237
960.1011
959.1449
958.211
957.3951
956.8125
956.5293
956.4072
956.4912
956.6789
956.6793
956.576
956.4638
951.0427
951.363
951.7531
952.3869
953.1279
953.8818
954.6157
955.4125
956.3209
957.3939
958.6122
959.8546
961.0353
962.0869
962.8557
963.305
963.4374
963.2712
962.8297
962.1785
961.3865
960.5036
959.5788
958.6782
957.8941
957.3064
956.8907
956.5892
956.7008
957.0671
957.2129
957.1057
956.8173
956.7937
951.1687
951.4751
951.9195
952.5682
953.2739
953.9842
954.7068
955.5297
956.4506
957.4579
958.5156
959.5458
960.5098
961.4007
962.136
962.6627
962.9474
962.9769
962.7556
962.3172
961.7136
960.9971
960.2066
959.4038
958.6599
958.0039
957.2766
956.7315
956.7671
957.2701
957.5481
957.5334
957.4689
957.3445
951.3429
951.644
952.1208
952.7234
953.3742
954.0477
954.79
955.6319
956.5182
957.3921
958.2202
958.9743
959.6703
960.3465
960.9808
961.5261
961.925
962.1312
962.1246
961.9149
961.5332
961.0193
960.4017
959.7189
959.013
958.2771
957.5446
956.921
956.7554
957.2945
957.728
957.8714
957.9221
957.9214
951.0816
951.5174
951.8374
952.3144
952.8627
953.4491
954.1046
954.8679
955.7265
956.5788
957.3333
957.9571
958.4579
958.8945
959.3368
959.8039
960.2658
960.6634
960.928
961.0221
960.9365
960.6837
960.2896
959.7761
959.1299
958.4804
957.8973
957.3731
956.9262
956.7541
957.1587
957.6979
957.9213
958.0966
958.2194
958.1693
951.2251
951.6313
952.018
952.5032
953.0003
953.5174
954.1529
954.9363
955.8674
956.7782
957.4476
957.899
958.197
958.4272
958.663
958.945
959.2792
959.5714
959.7462
959.785
959.6678
959.3976
958.9688
958.4736
958.073
957.7558
957.4776
957.1817
956.888
956.7914
957.0926
957.559
957.8385
958.054
958.3551
958.3793
951.3743
951.795
952.2222
952.6957
953.1399
953.592
954.1853
954.9722
956.0432
957.0105
957.5411
957.8144
957.9636
958.0748
958.1917
958.3353
958.5071
958.664
958.7325
958.6837
958.4828
958.2041
958.038
957.9823
957.9566
957.9185
957.8422
957.662
957.3732
957.1621
957.2723
957.5467
957.7545
957.9167
958.2299
958.4588
951.4811
951.9446
952.422
952.8827
953.2875
953.6794
954.2052
954.9429
956.0283
957.0514
957.4038
957.5099
957.5591
957.6153
957.6884
957.7718
957.8651
957.9441
957.9949
958.0107
958.0046
957.987
957.9805
957.996
958.0255
958.0519
958.0655
958.039
957.9403
957.7996
957.7806
957.8478
957.9301
958.111
958.3357
958.2707
951.5706
952.0631
952.5802
953.0541
953.4462
953.7881
954.2315
954.866
955.8368
956.7864
957.1166
957.0484
957.0035
957.0462
957.1637
957.3424
957.4508
957.4785
957.4572
957.4197
957.3868
957.3728
957.3941
957.4575
957.5429
957.6138
957.6681
957.7458
957.8629
957.9887
958.0962
958.1974
958.2993
958.3428
958.1622
957.6014
951.6214
952.1357
952.6889
953.1944
953.6056
953.9254
954.2855
954.7925
955.5683
956.3786
956.7492
956.6868
956.4929
956.4171
956.7626
957.2144
957.4815
957.5304
957.4046
957.1922
956.977
956.8172
956.7526
956.7957
956.9044
956.9807
956.9704
956.9404
956.9816
957.1031
957.2435
957.3422
957.3511
957.2448
957.0131
956.6026
951.6312
952.1573
952.7371
953.283
953.7402
954.0836
954.3881
954.7699
955.338
955.9629
956.3364
956.3831
956.2815
956.2791
956.5853
957.107
957.6029
957.861
957.808
957.5065
957.0843
956.6721
956.3778
956.2709
956.338
956.4318
956.3732
956.1674
955.954
955.8318
955.7881
955.7678
955.7353
955.6833
955.691
955.593
951.6544
952.1744
952.6992
953.2958
953.8161
954.2231
954.5327
954.8354
955.2279
955.6744
956.0027
956.1435
956.1981
956.363
956.7533
957.2916
957.8093
958.133
958.1582
957.8795
957.3791
956.7924
956.272
955.9524
955.8867
955.9613
955.937
955.687
955.3103
954.9794
954.7567
954.6079
954.5176
954.4632
954.6109
954.6989
951.608
952.0464
952.6371
953.2612
953.825
954.3037
954.6782
954.9781
955.2789
955.5984
955.8803
956.0946
956.303
956.6531
957.1342
957.6462
958.0605
958.2692
958.2146
957.8979
957.3744
956.7432
956.1367
955.6954
955.5047
955.5002
955.4695
955.2437
954.8468
954.4374
954.1261
953.9089
953.77
953.767
953.7657
953.9962
951.485
951.9369
952.4918
953.145
953.7561
954.2977
954.7558
955.127
955.4427
955.7383
956.0238
956.3193
956.6919
957.1435
957.5829
957.9289
958.1118
958.091
957.8608
957.4475
956.9035
956.3024
955.7384
955.3119
955.0823
954.9979
954.9022
954.6647
954.2862
953.886
953.5765
953.3711
953.225
953.2657
953.2699
953.5236
951.891
952.3598
952.988
953.6215
954.2051
954.7258
955.1835
955.5845
955.9496
956.3092
956.6953
957.0953
957.4306
957.6521
957.7288
957.6471
957.4115
957.0433
956.578
956.0622
955.5488
955.0972
954.7601
954.5464
954.3986
954.2183
953.9432
953.5814
953.2196
952.9554
952.7948
952.6995
952.7951
952.8215
951.5968
952.0423
952.6094
953.3006
953.9419
954.5221
955.0453
955.5206
955.9491
956.3263
956.6348
956.8542
956.9696
956.9706
956.853
956.6255
956.3044
955.9149
955.4893
955.064
954.6726
954.3429
954.0913
953.8847
953.6784
953.4342
953.1435
952.8111
952.5016
952.2909
952.1692
952.1303
952.2917
952.4183
951.3162
951.6721
952.2252
952.8658
953.4956
954.0731
954.5761
954.9979
955.3451
955.6163
955.8061
955.9057
955.9115
955.823
955.6463
955.395
955.0882
954.7507
954.4095
954.089
953.8042
953.5557
953.3466
953.1229
952.885
952.6377
952.3842
952.1036
951.8484
951.6836
951.5862
951.6437
951.7759
952.0064
951.449
951.8603
952.3299
952.8948
953.4352
953.8953
954.2553
954.5241
954.7108
954.8211
954.8526
954.8039
954.6777
954.4851
954.2431
953.9731
953.6974
953.4337
953.1911
952.9703
952.7564
952.5693
952.3496
952.1541
951.9809
951.806
951.5839
951.3616
951.1799
951.0846
951.1603
951.3672
951.4639
951.8141
952.2626
952.7508
953.1661
953.4802
953.6968
953.8279
953.8826
953.8673
953.7816
953.6311
953.4334
953.2095
952.9792
952.7575
952.5506
952.3569
952.1741
951.9902
951.8651
951.7276
951.6572
951.6031
951.5049
951.2484
950.9767
950.7625
950.7193
950.7124
951.1038
951.4056
951.7063
952.0645
952.4239
952.6975
952.875
952.9662
952.9813
952.9319
952.8187
952.6543
952.4643
952.2693
952.0832
951.911
951.7504
951.6025
951.4773
951.3768
951.3901
951.4123
951.4989
951.4721
951.3273
950.9621
950.6314
950.4961
950.4367
950.4925
951.1346
951.3443
951.5402
951.7457
951.9451
952.0683
952.1172
952.1033
952.0362
951.9026
951.7355
951.572
951.4226
951.2924
951.1776
951.0778
951.0091
950.9974
951.0465
951.2437
951.3581
951.4527
951.3439
951.1035
950.6315
950.4136
950.2987
950.2909
950.9841
951.096
951.1348
951.214
951.2787
951.2807
951.2482
951.186
951.0438
950.8963
950.7891
950.7101
950.6574
950.6222
950.6162
950.6709
950.8053
950.9528
951.2005
951.2522
951.2776
951.0635
950.7646
950.4063
950.25
950.2126
950.688
950.5557
950.5781
950.5307
950.4729
950.433
950.3976
950.2565
950.1651
950.151
950.1721
950.218
950.2754
950.3649
950.4983
950.6762
950.8031