/*--------------------------------*- C++ -*----------------------------------*\
  =========                 |
  \\      /  F ield         | OpenFOAM: The Open Source CFD Toolbox
   \\    /   O peration     | Website:  https://openfoam.org
    \\  /    A nd           | Version:  6
     \\/     M anipulation  |
\*---------------------------------------------------------------------------*/
FoamFile
{
    version     2.0;
    format      ascii;
    class       volScalarField;
    location    "50";
    object      T;
}
// * * * * * * * * * * * * * * * * * * * * * * * * * * * * * * * * * * * * * //

dimensions      [0 0 0 1 0 0 0];

internalField   nonuniform List<scalar> 
203709
(
959.1384
959.4534
959.816
959.9494
957.9822
958.1473
958.549
958.7737
959.0554
959.2715
959.4743
959.1959
957.7231
957.78
957.793
957.8622
958.043
958.2022
958.3793
958.5074
958.6204
958.5178
958.5461
958.3608
957.6321
957.6563
957.6603
957.6657
957.6828
957.7245
957.7823
957.8649
957.9271
957.9486
957.8687
957.8232
957.7543
957.6092
957.5912
957.6118
957.6266
957.6373
957.6404
957.6365
957.6084
957.566
957.5485
957.5383
957.4928
957.469
957.4797
957.4553
957.4832
957.4695
957.4922
957.5203
957.558
957.6091
957.7083
957.7274
957.6272
957.4886
957.4086
957.4107
957.465
957.5382
957.6183
957.5562
957.3618
957.2619
957.1137
956.8896
956.8973
957.1782
957.5646
957.8556
957.8668
957.6223
957.3105
957.0926
957.0148
957.0395
957.1046
957.187
956.9133
957.1974
957.0798
956.8537
956.5646
956.4061
956.6043
957.0968
957.6553
957.9838
957.9292
957.5799
957.1439
956.7987
956.6144
956.5715
956.63
956.5964
956.6684
956.8748
956.8376
956.6599
956.4542
956.3732
956.5406
956.9556
957.4728
957.8717
957.9837
957.7804
957.3607
956.8833
956.4911
956.2592
956.1877
956.2577
956.3632
956.5392
956.5518
956.4504
956.3473
956.3901
956.6465
957.0689
957.5144
957.8209
957.8879
957.7077
957.3423
956.8888
956.45
956.113
955.9266
955.9188
956.1819
956.275
956.3121
956.2885
956.3261
956.536
956.8995
957.3125
957.6383
957.7757
957.6962
957.4342
957.0588
956.6415
956.2462
955.9264
955.7174
955.7243
956.1936
956.2592
956.3396
956.5611
956.9059
957.2788
957.5637
957.6737
957.5833
957.3233
956.9576
956.5564
956.17
955.8408
955.5934
955.4682
956.3194
956.4948
956.747
957.0719
957.3745
957.5652
957.5816
957.4126
957.0953
956.6912
956.2664
955.8734
955.5397
955.2936
955.1299
955.1904
956.9481
957.2404
957.4362
957.4873
957.3726
957.0981
956.7069
956.2557
955.8073
955.4045
955.079
954.8254
954.6766
954.6383
957.0319
957.2062
957.0856
956.8478
956.5097
956.0831
955.6242
955.1799
954.7968
954.4874
954.267
954.096
954.0538
954.2281
955.8745
955.8856
955.6092
955.2466
954.8211
954.4254
954.0796
953.8167
953.6203
953.4863
953.3502
953.4411
954.1049
954.0472
953.6311
953.3325
953.1
952.9432
952.8425
952.8517
952.502
952.431
952.3065
952.2926
959.061
959.7825
960.308
960.7489
961.1086
961.445
961.8241
962.2547
962.7024
962.9544
957.2425
958.3096
959.0116
959.5563
960.0449
960.4997
960.9002
961.2592
961.6184
961.9905
962.3657
962.6449
962.6832
962.5018
956.6748
957.3268
958.076
958.6729
959.1408
959.5825
960.0608
960.533
960.926
961.2634
961.5814
961.9108
962.1464
962.2256
962.1511
961.8657
956.1408
956.755
957.2841
957.8014
958.2472
958.6238
959.0728
959.473
959.9846
960.4102
960.7348
961.148
961.3492
961.5029
961.6023
961.5625
961.3569
961.0481
955.7429
956.4403
957.0084
957.4198
957.754
958.0273
958.2381
958.5559
958.9144
959.3154
959.7136
960.1203
960.3834
960.576
960.8286
960.8507
960.7903
960.6414
960.4256
960.1413
955.3162
956.1825
956.952
957.3999
957.6691
957.8908
958.0128
958.0978
958.269
958.4733
958.7609
959.0493
959.3795
959.6268
959.8491
959.9251
959.7571
959.831
959.7062
959.5233
959.3382
959.128
955.8298
956.7401
957.3306
957.6492
957.839
957.9392
958.0293
958.0733
958.1372
958.2155
958.3374
958.4903
958.7073
958.8267
958.9291
958.9457
958.786
958.4532
958.435
958.3016
958.1629
958.0982
954.6449
955.9268
957.0309
957.5109
957.729
957.8337
957.9605
958.0245
958.0501
958.0619
958.066
958.0643
958.0681
958.1109
958.1491
958.1731
958.1325
958.0087
957.7939
957.8172
957.8127
957.808
957.8087
957.8426
954.666
955.8818
956.9952
957.499
957.6933
957.7896
957.8775
957.9239
957.958
957.9936
958.0768
958.1078
958.0434
957.9339
957.8513
957.8244
957.8338
957.8526
957.8588
957.8552
957.877
957.909
957.9629
958.027
954.6837
955.6944
956.719
957.3409
957.5644
957.6255
957.5439
957.3907
957.3816
957.5657
957.8992
958.1712
958.22
958.0453
957.7781
957.5511
957.4254
957.384
957.3876
957.4124
957.4131
957.4973
957.6088
957.7591
954.7133
955.4733
956.3574
956.965
957.3567
957.4123
957.2508
956.9501
956.7455
956.9374
957.4053
957.933
958.2693
958.2789
958.0092
957.6142
957.2457
956.9831
956.8391
956.8412
956.8075
956.8826
956.9926
957.1704
954.7894
955.3044
955.9831
956.5614
956.9915
957.1137
956.9977
956.7807
956.663
956.7911
957.1697
957.6714
958.0937
958.2679
958.1415
957.7782
957.3101
956.8647
956.5236
956.3167
956.2761
956.2904
956.3809
956.5315
954.9347
955.2489
955.7193
956.1884
956.5751
956.7447
956.7152
956.6195
956.6234
956.8273
957.2104
957.652
957.9954
958.124
958.0034
957.6728
957.218
956.734
956.3019
955.9756
955.8614
955.8185
955.8733
955.9845
955.1419
955.3281
955.6231
955.9517
956.1992
956.3959
956.4554
956.4938
956.6686
956.995
957.3952
957.7425
957.9254
957.8913
957.6542
957.2707
956.8141
956.351
955.9322
955.5837
955.4962
955.4042
955.443
955.5405
955.3662
955.515
955.7001
955.8981
956.119
956.2936
956.4276
956.6286
956.9486
957.3162
957.6202
957.7641
957.7039
957.4518
957.0615
956.6
956.1329
955.7092
955.3576
955.1622
954.9881
954.9681
955.0287
955.1459
955.5314
955.7351
955.9114
956.089
956.2779
956.4706
956.7154
957.045
957.3642
957.5787
957.6182
957.462
957.1358
956.6907
956.1934
955.6973
955.258
954.9049
954.6438
954.6049
954.4664
954.4813
954.5912
954.761
955.5786
955.879
956.1345
956.3652
956.6291
956.8628
957.1759
957.3917
957.4526
957.336
957.0523
956.6392
956.1464
955.62
955.1174
954.6624
954.3076
954.0561
954.0091
953.8491
953.8582
953.9447
954.1163
954.3926
955.7869
956.146
956.4699
956.773
956.8616
956.9883
956.8866
956.6583
956.3063
955.8703
955.3881
954.8958
954.4131
954.0015
953.6417
953.4077
953.2381
953.2659
953.1733
953.2153
953.3546
953.5925
955.0663
955.4316
955.7028
955.8309
955.8285
955.6353
955.4353
955.2151
954.8598
954.4681
954.06
953.6649
953.2832
953.0153
952.7684
952.6644
952.6233
952.4888
952.5103
952.5647
952.71
953.1145
954.5559
954.6554
954.659
954.5952
954.4457
954.1824
953.8618
953.5378
953.2221
952.9081
952.6312
952.3626
952.248
952.1761
952.0193
952.0123
951.9193
951.8896
951.9329
952.0994
953.7172
953.6832
953.5294
953.3676
953.12
952.8245
952.4763
952.2257
951.9923
951.8386
951.7739
951.6632
951.6599
951.6076
951.5539
951.426
951.4508
951.5397
952.8616
952.5939
952.4477
952.1286
951.8676
951.6562
951.4854
951.3696
951.3284
951.3423
951.3641
951.3535
951.3066
951.2803
951.2035
951.2845
951.7316
951.6572
951.2592
951.1024
950.9905
950.958
950.9918
951.0547
951.1327
951.2045
951.2347
951.2195
951.2099
951.1743
950.6767
950.6206
950.6318
950.7248
950.8609
950.9918
951.115
951.2145
951.2608
951.2343
959.3629
960.0232
960.455
960.7835
961.1581
961.6981
962.4041
963.1648
956.3471
957.728
958.929
959.6455
960.2271
960.6319
960.9445
961.299
961.8042
962.468
963.1796
963.5906
963.6655
963.5295
955.9015
956.7071
957.9626
959.0649
959.8173
960.3847
960.7996
961.1171
961.4547
961.9083
962.4859
963.0928
963.4042
963.4044
963.147
962.521
954.2598
955.2096
956.1048
956.9912
958.1344
959.0453
959.883
960.4602
960.9103
961.2601
961.5975
962.0006
962.4772
962.9734
963.2217
963.2176
962.8528
962.1767
961.0432
960.1129
953.9201
954.4601
955.3545
956.275
957.1238
958.2583
959.1118
959.8376
960.408
960.8985
961.3047
961.6673
962.0379
962.4231
962.8048
963.0182
963.0131
962.6626
962.0546
961.0979
960.0022
958.8306
953.611
954.0378
954.6047
955.5216
956.3918
957.321
958.2577
958.9734
959.5981
960.141
960.6555
961.1169
961.5204
961.8868
962.2202
962.5211
962.7109
962.7414
962.5088
962.0506
961.2686
960.4467
959.4806
959.0442
953.6817
954.1358
954.7776
955.693
956.6176
957.3935
958.1435
958.709
959.2184
959.6979
960.1914
960.6784
961.1166
961.4971
961.8439
962.1373
962.3287
962.3721
962.2266
961.8775
961.3615
960.676
960.0062
959.4287
953.5211
953.8192
954.2912
955.0359
956.0268
956.8452
957.513
958.1028
958.5162
958.8879
959.2618
959.673
960.1142
960.5488
960.9546
961.3094
961.5728
961.767
961.8188
961.7059
961.4424
961.0113
960.5365
960.0285
959.5157
959.1311
953.4836
953.6055
953.912
954.5131
955.4535
956.4564
957.2355
957.81
958.2282
958.4843
958.691
958.9156
959.1991
959.5288
959.8692
960.2272
960.5454
960.7957
960.9549
960.9437
960.8465
960.6303
960.3145
959.8823
959.4352
959.0949
958.7471
958.4479
953.5646
953.6868
954.0274
954.7589
955.9048
956.9666
957.6735
958.1152
958.368
958.5057
958.5986
958.6978
958.8248
958.996
959.2082
959.4795
959.6685
959.8251
959.8999
959.8316
959.6157
959.387
959.1131
958.7996
958.4481
958.2679
958.1197
957.9772
953.6925
953.7975
954.1455
955.0525
956.2788
957.3546
957.9541
958.2557
958.4123
958.4833
958.5154
958.5344
958.5515
958.5766
958.6207
958.7099
958.7966
958.8677
958.8443
958.7172
958.4879
958.347
958.2542
958.1764
958.0411
957.9856
957.9454
957.8267
953.7582
953.8838
953.9516
954.2604
955.1675
956.3916
957.519
958.0589
958.2569
958.3487
958.3868
958.4155
958.4465
958.5127
958.5468
958.501
958.4071
958.3232
958.2788
958.264
958.2525
958.228
958.2283
958.2172
958.2135
958.2115
958.205
958.2557
958.2851
958.3508
953.878
954.0282
954.1139
954.3713
955.1701
956.3082
957.3973
957.9904
958.1476
958.0862
957.9656
957.9422
958.0544
958.3445
958.5958
958.66
958.5209
958.2764
958.042
957.8869
957.8084
957.7772
957.7829
957.7837
957.8118
957.8621
957.9514
958.1082
958.3076
958.5206
953.9887
954.1911
954.2972
954.4987
955.1271
956.0967
957.1017
957.7441
957.952
957.8384
957.5296
957.2627
957.4301
957.8722
958.3676
958.6954
958.7309
958.4989
958.1224
957.737
957.4294
957.2292
957.1436
957.119
957.1452
957.202
957.3255
957.5186
957.8292
958.2423
954.0842
954.3518
954.499
954.6621
955.1116
955.86
956.7118
957.3508
957.6227
957.5814
957.3527
957.184
957.2663
957.6081
958.0851
958.5031
958.6964
958.6011
958.2617
957.7903
957.3088
956.9093
956.6432
956.5364
956.5212
956.5515
956.6417
956.7884
957.0932
957.5975
954.1458
954.4828
954.6992
954.8629
955.1729
955.6963
956.3442
956.8992
957.2025
957.2575
957.1699
957.1334
957.2849
957.6237
958.0412
958.3845
958.5303
958.43
958.1088
957.6417
957.1214
956.6367
956.2635
956.0693
956.001
956.0013
956.0514
956.1217
956.3292
956.772
954.1656
954.5561
954.8618
955.0752
955.3186
955.6672
956.112
956.5307
956.8128
956.9312
956.9776
957.116
957.3991
957.7669
958.1015
958.289
958.2654
958.0311
957.634
957.1443
956.6329
956.162
955.795
955.5947
955.5065
955.4977
955.5469
955.566
955.6756
955.9843
954.1681
954.5652
954.9507
955.2499
955.5101
955.7755
956.0795
956.3838
956.6286
956.8037
957.005
957.3032
957.6474
957.9385
958.0806
958.021
957.7618
957.3491
956.8498
956.332
955.8508
955.4471
955.1702
955.0066
954.9433
954.9536
955.0444
955.0471
955.1222
955.3642
954.1584
954.5228
954.9434
955.331
955.6691
955.9543
956.2208
956.4824
956.7326
956.9917
957.3166
957.626
957.8321
957.8669
957.7032
957.3583
956.8816
956.3395
955.795
955.3022
954.8948
954.5931
954.4153
954.3113
954.2766
954.314
954.4617
954.4708
954.5691
954.8932
954.4694
954.862
955.2891
955.6783
956.0568
956.3878
956.6983
957.011
957.3218
957.5329
957.593
957.4736
957.1798
956.7428
956.2121
955.6437
955.0948
954.6064
954.2108
953.9171
953.7268
953.5924
953.5268
953.5115
953.5763
953.7452
953.8004
953.9527
954.1344
954.5101
954.858
955.4071
955.8737
956.2926
956.625
956.8416
956.9234
956.8495
956.6304
956.2793
955.8266
955.3127
954.7826
954.2778
953.8402
953.4845
953.2193
953.0322
952.8875
952.7863
952.7351
952.7219
952.8813
952.8902
953.099
953.3739
953.7883
954.0297
954.3107
954.6097
955.0042
955.3104
955.5073
955.5809
955.5265
955.3489
955.069
954.6957
954.269
953.8322
953.4212
953.0637
952.788
952.5828
952.4256
952.305
952.1505
952.0755
952.0439
952.0313
952.1493
952.251
952.4828
952.8541
953.7221
953.9036
954.0103
954.1183
954.2653
954.3336
954.301
954.1668
953.9385
953.633
953.2784
952.9253
952.6064
952.3472
952.1564
952.0349
951.9515
951.855
951.7573
951.6238
951.6001
951.6028
951.6411
951.6632
951.813
952.0353
953.4082
953.4669
953.4576
953.4306
953.3636
953.2171
953.0088
952.7376
952.4331
952.1379
951.8967
951.7274
951.628
951.5851
951.5719
951.5562
951.4967
951.4312
951.3508
951.3904
951.4321
951.4511
951.5037
951.5952
953.0576
952.9598
952.8408
952.6866
952.4778
952.207
951.9747
951.7129
951.4766
951.2951
951.2037
951.1928
951.2247
951.2816
951.3422
951.3706
951.3392
951.3085
951.268
951.3472
951.3943
951.4433
951.52
951.6251
952.4261
952.1248
951.9596
951.592
951.3473
951.1201
950.9238
950.8131
950.7802
950.8417
950.9562
951.0761
951.1938
951.2923
951.3426
951.3127
951.2779
951.2476
951.3383
951.3979
951.4954
951.5568
951.4451
951.2015
950.8874
950.6597
950.538
950.4956
950.4775
950.5687
950.7343
950.9158
951.0722
951.2102
951.3158
951.3628
951.3122
951.2382
951.1786
951.2948
951.3855
951.4665
950.3607
950.2379
950.2824
950.2974
950.3971
950.5544
950.7633
950.9645
951.1234
951.252
951.3413
951.3744
951.2998
951.1453
951.0368
951.1096
950.0422
950.1751
950.2819
950.4327
950.6101
950.8335
951.0339
951.1758
951.276
951.3324
951.3486
951.2465
951.0102
950.7526
950.4615
950.6712
950.8975
951.0877
951.2033
951.2661
951.2735
951.1677
958.9416
959.5096
959.9117
960.2937
960.8263
961.4927
955.3626
956.6008
957.7273
958.8957
959.479
959.9741
960.3445
960.7359
961.3009
962.0455
963.0405
963.6557
964.0874
964.2557
954.188
955.1376
955.8086
957.0277
958.111
959.2132
959.9656
960.4608
960.8189
961.2098
961.7663
962.4871
963.3187
963.8019
964.0584
964.0693
963.8574
963.7614
953.9098
954.4478
955.3318
956.1112
957.4515
958.6188
959.6619
960.5175
961.0439
961.4075
961.793
962.3089
962.9268
963.499
963.852
963.9149
963.6931
963.2996
962.8216
962.2332
953.6284
954.0838
954.6612
955.5133
956.5257
957.8366
959.0032
960.0864
960.9602
961.5252
961.9091
962.2882
962.7478
963.2493
963.6675
963.8563
963.7292
963.2899
962.6326
961.8755
960.8403
959.9032
953.4914
953.7679
954.2048
954.9364
955.8541
956.8935
958.1573
959.2866
960.3471
961.2157
961.8376
962.2728
962.6605
963.0682
963.4578
963.7385
963.7981
963.5473
962.9722
962.1576
961.1681
959.9805
958.7578
958.1964
953.4165
953.5899
953.8586
954.4159
955.2141
956.1532
957.2025
958.3993
959.4436
960.4103
961.233
961.89
962.3906
962.8129
963.1974
963.5128
963.7091
963.7134
963.4382
962.8324
961.9707
960.9002
959.6226
958.4551
957.8774
958.018
953.3789
953.4568
953.6209
953.9956
954.6246
955.46
956.4168
957.4491
958.5269
959.4282
960.2526
960.9912
961.6454
962.1992
962.6699
963.0665
963.3794
963.5882
963.6188
963.4016
962.8699
962.069
961.0689
959.8554
958.6131
957.81
957.9663
958.5652
953.3351
953.4118
953.4857
953.6878
954.1414
954.8155
955.6991
956.6648
957.6285
958.544
959.2766
959.9475
960.5854
961.1977
961.7652
962.2782
962.7271
963.0657
963.2821
963.3404
963.1979
962.815
962.1988
961.4107
960.4615
959.478
958.6513
958.0481
958.4102
958.6888
953.3405
953.4344
953.5429
953.7978
954.2919
955.023
955.9745
956.9421
957.8054
958.5347
959.0791
959.5713
960.0663
960.583
961.1016
961.602
962.0628
962.4349
962.6798
962.7872
962.7219
962.4654
962.0308
961.4449
960.7511
960.021
959.2273
958.6668
958.2595
958.3222
953.039
953.377
953.5047
953.6442
953.9316
954.4535
955.2798
956.3542
957.3433
958.1
958.6424
958.9982
959.2929
959.5999
959.967
960.3644
960.7683
961.175
961.5249
961.7768
961.9074
961.8767
961.6996
961.3901
960.9695
960.4474
959.8561
959.3019
958.7528
958.3499
958.0646
957.9132
953.167
953.4501
953.6132
953.7807
954.0661
954.6235
955.5973
956.8717
957.8383
958.4494
958.8087
959.0067
959.1468
959.2885
959.4653
959.6857
959.9543
960.2722
960.5023
960.6763
960.7543
960.6999
960.5079
960.2196
959.8535
959.4519
959.0442
958.7074
958.4048
958.0816
957.9285
957.7886
953.1958
953.5205
953.7405
953.9268
954.2063
954.7956
955.8921
957.3388
958.219
958.6701
958.8824
958.9727
959.0163
959.0467
959.0804
959.1284
959.2042
959.3267
959.4434
959.5344
959.5154
959.3877
959.1585
958.9501
958.7932
958.655
958.4999
958.3625
958.2216
957.9919
957.9616
957.8147
953.2465
953.6143
953.8862
954.0875
954.3503
954.931
956.0546
957.528
958.4056
958.7273
958.8428
958.8824
958.9098
958.943
958.9936
959.0279
958.994
958.9102
958.8242
958.7659
958.733
958.702
958.665
958.6446
958.6166
958.5846
958.5484
958.5182
958.5053
958.4281
958.3961
958.2149
952.735
953.2186
953.6719
954.0304
954.2583
954.502
955.0255
956.0689
957.4418
958.3573
958.6624
958.6416
958.5528
958.5303
958.604
958.8544
959.084
959.1532
959.0341
958.8012
958.5578
958.378
958.2728
958.2196
958.2035
958.1946
958.1941
958.2068
958.2673
958.3956
958.5654
958.7321
958.8326
958.9236
952.9092
953.2818
953.7369
954.1557
954.4318
954.6685
955.1045
955.9867
957.1859
958.1095
958.4833
958.437
958.1598
957.8673
958.001
958.4174
958.8813
959.195
959.2407
959.0273
958.6571
958.2565
957.9189
957.6861
957.5642
957.5211
957.5173
957.5313
957.6078
957.7876
958.0929
958.5151
958.8719
959.1832
953.114
953.3903
953.8087
954.2629
954.598
954.8505
955.2026
955.8841
956.8516
957.7041
958.1546
958.1953
957.989
957.7912
957.8348
958.1419
958.5919
958.9973
959.1946
959.1123
958.7812
958.3014
957.7938
957.36
957.0629
956.9189
956.868
956.8465
956.8688
956.9877
957.2858
957.8419
958.3935
959.0435
953.314
953.5034
953.8685
954.3379
954.7363
955.0346
955.338
955.8336
956.5488
957.2508
957.7079
957.8557
957.7999
957.7425
957.8475
958.1408
958.5278
958.8591
959.0067
958.9117
958.5893
958.1081
957.5616
957.0459
956.6457
956.4118
956.3046
956.2466
956.212
956.232
956.4154
956.9243
957.5331
958.4614
953.5109
953.634
953.9248
954.3759
954.8236
955.1912
955.4996
955.8708
956.3689
956.8882
957.2818
957.4895
957.5632
957.6719
957.9107
958.2401
958.5515
958.7298
958.7034
958.4632
958.0513
957.5374
956.9965
956.4982
956.1083
955.867
955.7416
955.6694
955.6154
955.5755
955.6447
955.999
956.4854
957.4401
953.6946
953.8253
954.0173
954.3996
954.8521
955.2849
955.6478
955.9822
956.3481
956.7237
957.0419
957.2771
957.4821
957.7586
958.0759
958.3457
958.4745
958.4048
958.1327
957.7006
957.1758
956.6293
956.121
955.6938
955.3841
955.193
955.0883
955.0238
954.9835
954.9391
954.9687
955.2047
955.5007
956.317
953.9795
954.0998
954.3827
954.811
955.2787
955.7161
956.0975
956.4432
956.7679
957.0671
957.3564
957.6808
957.9759
958.1668
958.1883
958.0106
957.6477
957.1488
956.582
956.0147
955.5016
955.0779
954.7553
954.5393
954.4058
954.3245
954.2697
954.2515
954.2391
954.3042
954.5039
954.6702
953.9125
954.0206
954.2781
954.672
955.1397
955.6256
956.0876
956.5025
956.8777
957.2319
957.5452
957.7535
957.8064
957.6798
957.376
956.9245
956.3763
955.7927
955.2336
954.742
954.3444
954.0466
953.8268
953.6737
953.5727
953.5001
953.449
953.439
953.48
953.6839
953.7959
954.0465
953.7382
953.8569
954.0534
954.3814
954.7732
955.2434
955.7426
956.2032
956.576
956.8194
956.9287
956.8846
956.6854
956.3436
955.8911
955.3739
954.8438
954.3493
953.9284
953.5942
953.3445
953.1641
953.0072
952.891
952.8085
952.7397
952.6903
952.6714
952.7592
953.0402
953.2099
953.5034
953.5806
953.677
953.7625
953.9667
954.249
954.5544
954.8763
955.1692
955.3876
955.4969
955.478
955.3231
955.0474
954.6774
954.2576
953.8353
953.4516
953.1346
952.8985
952.7277
952.5997
952.499
952.3797
952.3054
952.2525
952.1951
952.1264
952.1317
952.2344
952.4632
952.7032
953.0532
953.4293
953.4951
953.6032
953.7707
953.9474
954.104
954.2168
954.2602
954.2172
954.0797
953.8436
953.5401
953.2068
952.8902
952.6247
952.4251
952.2943
952.2224
952.1744
952.1269
952.0842
952.018
952.0058
951.9895
951.9457
951.8669
951.8851
951.9997
952.1512
952.317
953.2526
953.2498
953.2686
953.3183
953.3519
953.3542
953.2985
953.1853
953.0235
952.8207
952.5604
952.2993
952.0738
951.9147
951.83
951.8044
951.8245
951.8686
951.8977
951.908
951.9223
951.9146
951.956
951.9721
951.9339
951.8291
951.8477
951.9427
952.0352
952.1559
952.9606
952.9248
952.8516
952.6966
952.561
952.3585
952.1468
951.9387
951.754
951.5453
951.4027
951.3366
951.3503
951.4253
951.5266
951.6458
951.7605
951.8337
951.8865
951.9493
951.9786
951.9987
951.9904
951.9338
951.8178
951.8854
951.9773
952.0219
952.532
952.2693
952.0147
951.7344
951.4537
951.2332
951.0785
950.9923
950.8841
950.8906
950.9816
951.1313
951.3086
951.4795
951.6509
951.8028
951.9034
951.9714
952.0035
951.9598
951.91
951.8671
951.8065
951.7845
951.9506
952.0115
951.6775
951.2544
951.0324
950.7006
950.5608
950.5155
950.5633
950.5704
950.7101
950.9146
951.1448
951.3695
951.5664
951.7474
951.8885
951.9481
951.9498
951.8928
951.7309
951.5875
951.5211
951.5991
951.6692
951.8691
950.6606
950.4155
950.1764
950.1753
950.1978
950.3615
950.4565
950.6807
950.9422
951.1961
951.424
951.6073
951.7599
951.8563
951.833
951.7383
951.5713
951.2686
951.1751
951.0791
951.31
951.4409
949.9772
949.8744
949.9125
950.036
950.2338
950.3724
950.6323
950.9207
951.1719
951.3832
951.5312
951.6345
951.6723
951.533
951.3274
951.0592
950.7588
950.681
950.6135
950.8957
949.6418
949.7881
949.9273
950.1394
950.2573
950.5602
950.7889
951.0138
951.197
951.298
951.3437
951.3413
951.1864
950.8925
950.572
950.2417
950.2076
950.0761
949.7747
950.0302
950.159
950.4767
950.6181
950.7996
950.9561
951.0161
951.0133
951.0079
950.8854
950.4858
950.0653
949.5517
950.318
950.5071
950.6478
950.6705
950.6039
950.4358
955.9774
957.0482
958.118
958.7942
959.2965
959.6702
960.1218
960.7635
961.5309
962.1902
954.1198
954.7321
955.77
956.5821
957.6309
958.7334
959.4443
959.9103
960.2963
960.8127
961.558
962.3197
963.1183
963.8701
964.1727
964.3198
953.9457
954.3678
955.08
956.2474
957.2742
958.4964
959.532
960.4078
960.8892
961.2957
961.8115
962.391
963.0846
963.7125
964.2068
964.3756
964.4255
964.3258
953.3719
953.6957
954.151
954.7641
955.5659
956.8116
958.0308
959.4363
960.5745
961.423
961.9078
962.332
962.8447
963.3937
963.9387
964.3347
964.5205
964.4116
964.224
963.9105
963.4614
963.1981
953.4193
953.5101
953.853
954.4564
955.2253
956.1089
957.3529
958.7029
960.2463
961.4615
962.2902
962.7755
963.2091
963.6953
964.1604
964.5272
964.6852
964.5957
964.2433
963.7253
963.023
962.2613
961.2867
960.5231
953.491
953.5311
953.6812
954.1652
954.874
955.6661
956.5996
957.8448
959.2364
960.8148
962.098
962.9249
963.4219
963.856
964.2891
964.6336
964.8109
964.7373
964.3889
963.7722
962.9415
961.9106
960.7631
959.7878
958.9496
958.9397
953.5504
953.5706
953.6549
953.9589
954.5747
955.2691
956.0538
957.0165
958.2603
959.6367
961.145
962.4132
963.2883
963.8277
964.2709
964.6513
964.8782
964.8913
964.6332
964.0878
963.2629
962.2048
960.9721
959.7113
958.7556
958.5921
959.048
959.6109
953.3352
953.5113
953.6203
953.8547
954.3105
954.9163
955.586
956.372
957.3646
958.5932
959.8918
961.2485
962.4217
963.3076
963.9221
964.4132
964.7872
964.9641
964.93
964.5936
963.9451
963.0065
961.8408
960.5385
959.316
958.6014
958.6988
959.2302
959.7766
959.9989
953.3387
953.528
953.7458
954.1127
954.576
955.1524
955.8179
956.6349
957.6568
958.8297
959.9865
961.1455
962.1849
963.0426
963.7082
964.2625
964.7138
964.9481
964.9086
964.5744
963.9506
963.0495
961.9235
960.652
959.4289
958.6899
958.7263
959.236
959.6221
959.8121
952.9438
953.3372
953.6217
953.941
954.3077
954.7487
955.3069
956.004
956.8817
957.9102
958.9582
959.9076
960.8225
961.6826
962.4676
963.1524
963.7491
964.2442
964.5545
964.6131
964.4071
963.9443
963.2343
962.3095
961.2369
960.0984
959.1258
958.694
958.8545
959.2429
959.2953
959.0918
952.3249
952.8107
953.3062
953.7427
954.1007
954.4506
954.8638
955.4308
956.2218
957.166
958.1375
959.0029
959.7076
960.3577
960.9969
961.6378
962.2592
962.8408
963.3546
963.7318
963.9055
963.8587
963.5907
963.1149
962.4669
961.6894
960.8357
959.9899
959.1375
958.7013
958.6759
958.784
958.7776
958.7131
952.3693
952.8636
953.3688
953.8587
954.2316
954.5579
954.9582
955.6039
956.5187
957.543
958.442
959.1097
959.572
959.9623
960.3615
960.8101
961.2859
961.7594
962.2162
962.587
962.8159
962.8757
962.7519
962.4607
962.032
961.4984
960.8707
960.1963
959.5324
958.9341
958.504
958.2681
958.2367
958.3822
952.4736
952.9562
953.5129
953.9932
954.353
954.6547
955.0841
955.8174
956.9266
958.0657
958.8242
959.2797
959.542
959.7315
959.9186
960.1433
960.4131
960.736
961.0964
961.3525
961.5245
961.5767
961.4903
961.2667
960.9061
960.4723
960.0308
959.5922
959.181
958.7902
958.4081
958.1285
957.9222
957.9712
951.9743
952.355
952.892
953.5431
954.0833
954.4626
954.7675
955.2133
956.0334
957.3551
958.5142
959.095
959.3709
959.4896
959.5491
959.5937
959.6441
959.7114
959.8103
959.9535
960.0811
960.1718
960.1384
959.9936
959.7551
959.5347
959.3443
959.1693
958.9898
958.8086
958.6102
958.3569
958.1537
957.9074
957.8673
957.8694
952.1885
952.4232
952.925
953.5799
954.1562
954.5679
954.8909
955.3343
956.1832
957.5604
958.7531
959.1977
959.3529
959.4032
959.4334
959.4684
959.5098
959.543
959.5176
959.441
959.3517
959.2807
959.231
959.184
959.1367
959.0988
959.0551
959.0033
958.9457
958.8941
958.8438
958.7435
958.6112
958.3312
958.2992
958.1413
952.5127
952.6787
953.0817
953.6743
954.2384
954.6739
955.0179
955.4437
956.2447
957.5437
958.6923
959.1687
959.2025
959.1456
959.1328
959.1961
959.4073
959.6154
959.6844
959.5772
959.3498
959.0957
958.8923
958.764
958.6933
958.6614
958.6419
958.6245
958.6177
958.6606
958.7695
958.9082
959.0173
958.977
958.9438
958.7894
952.8234
952.9323
953.3025
953.7935
954.3189
954.7735
955.1429
955.5465
956.2445
957.3712
958.445
958.9848
959.0301
958.8078
958.5206
958.619
959.0111
959.4441
959.7402
959.787
959.5815
959.211
958.7957
958.4349
958.1801
958.0389
957.9806
957.9577
957.9491
958.0047
958.1825
958.4889
958.8709
959.1837
959.3758
959.4072
953.1844
953.2408
953.5461
953.9411
954.4049
954.8637
955.2615
955.6489
956.2271
957.1345
958.0744
958.6533
958.7945
958.6403
958.4372
958.453
958.7309
959.1538
959.5404
959.7311
959.6499
959.3185
958.8292
958.3027
957.8476
957.5332
957.3697
957.2968
957.2466
957.2365
957.3521
957.6718
958.2008
958.7581
959.2805
959.5501
953.4958
953.5331
953.8041
954.1213
954.5042
954.9419
955.3656
955.754
956.2303
956.9197
957.6785
958.2298
958.4605
958.4519
958.3967
958.47
958.7217
959.0731
959.3814
959.5175
959.4165
959.0874
958.5946
958.0318
957.4994
957.0854
956.8335
956.7049
956.6138
956.532
956.5291
956.7266
957.2101
957.8564
958.6618
959.2711
953.7332
953.7889
954.0579
954.3467
954.6412
955.0184
955.4475
955.8547
956.2729
956.7897
957.3622
957.8305
958.0985
958.2076
958.3036
958.503
958.7869
959.0605
959.2126
959.169
958.9157
958.491
957.9634
957.4095
956.9014
956.503
956.2475
956.1045
955.9977
955.8836
955.7995
955.8563
956.1684
956.7047
957.5604
958.4111
953.8488
953.9473
954.1797
954.5366
954.8158
955.1144
955.5097
955.9341
956.3432
956.7658
957.2017
957.5841
957.8626
958.0737
958.3209
958.5955
958.8226
958.9163
958.8202
958.5279
958.0798
957.5424
956.987
956.4747
956.0476
955.7352
955.5387
955.4219
955.3219
955.2102
955.1089
955.1017
955.2684
955.6215
956.2707
957.0702
953.9233
954.0392
954.2512
954.6491
954.9637
955.2329
955.5647
955.9794
956.4023
956.8089
957.1957
957.5482
957.8617
958.1648
958.4209
958.5699
958.5554
958.35
957.9668
957.4544
956.8807
956.3132
955.8058
955.3933
955.0838
954.8766
954.7493
954.6649
954.5735
954.4753
954.3951
954.401
954.5156
954.7945
955.1613
955.8031
954.0433
954.0699
954.1817
954.5723
954.9355
955.2293
955.5269
955.9243
956.3666
956.8049
957.2139
957.5757
957.8658
958.0422
958.0689
957.9234
957.6072
957.1495
956.6019
956.0264
955.4821
955.0122
954.6401
954.3718
954.1838
954.0636
953.9859
953.9221
953.8291
953.7383
953.6844
953.7302
953.8325
954.1281
954.4091
954.9462
953.857
953.9599
954.3038
954.6828
954.9985
955.2741
955.6053
955.9726
956.3504
956.6849
956.9268
957.0415
957.0057
956.8141
956.4804
956.0396
955.5408
955.0372
954.5767
954.1941
953.9027
953.6991
953.5719
953.4813
953.4284
953.3879
953.3402
953.2317
953.1348
953.0819
953.1197
953.2243
953.5276
953.7674
953.6522
953.6937
953.8939
954.2427
954.5393
954.778
955.0208
955.2531
955.4576
955.6059
955.6676
955.6192
955.448
955.167
954.8072
954.414
954.0329
953.6997
953.4375
953.2564
953.1464
953.0899
953.0768
953.0704
953.0846
953.0829
953.049
952.9035
952.7837
952.6925
952.666
952.7321
953.0185
953.2996
953.559
953.5045
953.5655
953.7746
953.9916
954.1612
954.2947
954.3974
954.4448
954.4284
954.3438
954.1872
953.9511
953.6694
953.3815
953.1282
952.9341
952.8052
952.7418
952.7369
952.7692
952.8269
952.9084
952.988
953.0595
953.0859
953.0468
952.8424
952.6826
952.5291
952.4314
952.4528
952.6856
952.9375
953.2815
953.2404
953.277
953.3977
953.4757
953.479
953.4572
953.3742
953.2454
953.0911
952.9173
952.704
952.5126
952.3757
952.3129
952.3182
952.3714
952.4642
952.5849
952.7148
952.8588
953.01
953.1492
953.2279
953.256
953.1985
952.9561
952.7276
952.4888
952.3253
952.3
952.47
952.8362
952.8273
952.7916
952.7461
952.6132
952.4959
952.3316
952.17
952.0422
951.945
951.8281
951.7912
951.8362
951.957
952.1221
952.3021
952.4944
952.6859
952.8683
953.0546
953.2278
953.3744
953.4551
953.4382
953.3168
952.9741
952.6916
952.422
952.2914
952.1536
952.5631
952.3633
952.2164
951.9731
951.7369
951.6052
951.4348
951.3315
951.3133
951.3507
951.3597
951.4867
951.6851
951.9358
952.1958
952.4424
952.6733
952.8789
953.073
953.2647
953.4277
953.4892
953.4753
953.3639
953.1694
952.7353
952.4849
952.378
952.32
952.2496
951.8737
951.5571
951.2671
950.925
950.8544
950.7765
950.799
950.9151
951.0878
951.2033
951.4565
951.7483
952.065
952.358
952.617
952.8587
953.0687
953.2327
953.3338
953.3777
953.287
953.1402
952.9045
952.6537
952.2067
952.2562
952.3273
952.3467
950.9298
950.5667
950.3004
950.2446
950.2839
950.4503
950.7058
951.005
951.1989
951.5378
951.8855
952.2318
952.5248
952.7627
952.9589
953.0901
953.1443
953.0992
952.9805
952.6956
952.4159
952.0579
951.8031
951.6964
951.9883
952.2086
949.9931
949.7341
949.8208
949.8802
950.1286
950.4653
950.8496
951.0799
951.4664
951.8452
952.2141
952.4912
952.6839
952.8044
952.8159
952.7258
952.5051
952.2118