/*--------------------------------*- C++ -*----------------------------------*\
  =========                 |
  \\      /  F ield         | OpenFOAM: The Open Source CFD Toolbox
   \\    /   O peration     | Website:  https://openfoam.org
    \\  /    A nd           | Version:  6
     \\/     M anipulation  |
\*---------------------------------------------------------------------------*/
FoamFile
{
    version     2.0;
    format      ascii;
    class       volScalarField;
    location    "50";
    object      T;
}
// * * * * * * * * * * * * * * * * * * * * * * * * * * * * * * * * * * * * * //

dimensions      [0 0 0 1 0 0 0];

internalField   nonuniform List<scalar> 
203709
(
959.3194
959.6242
959.9648
960.0607
958.0744
958.254
958.7015
958.9264
959.1833
959.3532
959.5171
959.1439
957.7668
957.8349
957.8601
957.9337
958.1662
958.3089
958.4586
958.5485
958.6255
958.4787
958.4415
958.2625
957.6387
957.6727
957.6793
957.6887
957.7178
957.7876
957.853
957.9199
957.93
957.9294
957.8217
957.7382
957.6616
957.5211
957.5746
957.5869
957.5889
957.5882
957.5844
957.5784
957.5633
957.5391
957.5231
957.5024
957.4402
957.4156
957.4357
957.4211
957.472
957.4659
957.4805
957.4979
957.5206
957.5399
957.599
957.6182
957.545
957.4305
957.3547
957.3458
957.385
957.4447
957.5123
957.4085
957.3534
957.2618
957.1584
957.0585
957.035
957.1417
957.4472
957.7084
957.7391
957.5342
957.2448
957.019
956.9156
956.9108
956.9509
957.0188
956.857
957.2189
957.0972
956.8929
956.6315
956.3848
956.5191
956.9644
957.4935
957.8257
957.8069
957.5
957.0849
956.7293
956.5135
956.4352
956.4648
956.4162
956.6166
956.8869
956.8622
956.6855
956.4551
956.3073
956.4038
956.7658
957.2658
957.683
957.8343
957.6743
957.2879
956.8232
956.4198
956.1598
956.0567
956.0978
956.2941
956.525
956.5589
956.4523
956.3113
956.2781
956.4593
956.8375
957.2823
957.6215
957.7333
957.5929
957.2551
956.8156
956.3775
956.0288
955.8229
955.792
956.095
956.2115
956.2643
956.2262
956.2002
956.3335
956.6449
957.0495
957.4065
957.5939
957.5617
957.3324
956.9737
956.5609
956.1632
955.8372
955.6207
955.6184
956.0474
956.1129
956.1579
956.3082
956.6095
956.9849
957.3124
957.4835
957.4501
957.2292
956.882
956.4832
956.0899
955.751
955.4963
955.3691
956.0769
956.2213
956.4162
956.73
957.066
957.3222
957.4137
957.3081
957.0308
956.6428
956.2157
955.81
955.4589
955.1974
955.0264
955.0896
956.6185
956.9316
957.1889
957.3203
957.2805
957.06
956.6959
956.248
955.7866
955.3626
955.013
954.735
954.568
954.525
956.892
957.118
957.0691
956.8794
956.5618
956.133
955.6557
955.1838
954.7701
954.4309
954.1825
953.9835
953.9234
954.1047
956.0114
956.0063
955.7139
955.3209
954.8615
954.4305
954.0504
953.7564
953.532
953.3702
953.2081
953.2778
954.1214
954.0551
953.6112
953.2828
953.0227
952.8413
952.7183
952.7096
952.4149
952.3297
952.1847
952.1581
959.0418
959.8096
960.3554
960.8096
961.1891
961.5578
961.9718
962.426
962.8644
963.062
957.1106
958.2779
959.0447
959.6309
960.1358
960.5947
961.0002
961.3729
961.7492
962.1321
962.4969
962.7366
962.7226
962.4809
956.4814
957.2504
958.1068
958.7702
959.2786
959.7314
960.2038
960.6651
961.053
961.3881
961.7002
962.0122
962.2153
962.2531
962.1305
961.8213
955.8059
956.5735
957.2224
957.8421
958.3544
958.7815
959.2477
959.6445
960.1436
960.5531
960.8579
961.2476
961.4225
961.547
961.6094
961.5312
961.3029
960.9894
955.2403
956.0466
956.7571
957.2774
957.7055
958.0767
958.3396
958.6948
959.0696
959.4723
959.854
960.2319
960.463
960.6197
960.8368
960.8222
960.7254
960.5462
960.321
960.0349
954.7281
955.6187
956.5434
957.14
957.5012
957.8285
958.0227
958.1517
958.3537
958.5937
958.877
959.1529
959.4555
959.671
959.8482
959.8929
959.6613
959.6988
959.5453
959.3059
959.0938
958.876
955.1568
956.2475
957.0274
957.481
957.776
957.9276
958.0465
958.1069
958.1872
958.2815
958.4093
958.56
958.7383
958.8381
958.9019
958.8796
958.6671
958.2795
958.2073
958.0736
957.9556
957.8741
954.2085
955.3593
956.6811
957.3361
957.6481
957.8113
957.9531
958.0158
958.0356
958.0447
958.0499
958.0604
958.0778
958.115
958.1364
958.1212
958.0559
957.9187
957.7361
957.7692
957.7864
957.8062
957.8297
957.8971
954.2748
955.4309
956.7445
957.3951
957.6753
957.7937
957.8863
957.9223
957.9387
957.9523
957.9927
958.0162
957.9697
957.8802
957.8039
957.769
957.7662
957.7736
957.7818
957.7525
957.7787
957.819
957.8924
957.9866
954.3251
955.3331
956.5201
957.2761
957.575
957.6578
957.6255
957.544
957.5061
957.5568
957.8108
958.0452
958.1008
957.9564
957.7115
957.4817
957.3339
957.262
957.2375
957.2406
957.2324
957.3163
957.4353
957.6047
954.3766
955.1644
956.1777
956.8979
957.3866
957.4626
957.3375
957.0653
956.7788
956.892
957.3088
957.7974
958.1246
958.1575
957.9237
957.5516
957.1795
956.8903
956.7097
956.6747
956.6258
956.6921
956.7984
956.9796
954.4644
955.0168
955.799
956.4819
957.0078
957.1662
957.0648
956.8248
956.6344
956.6919
957.016
957.4916
957.9183
958.1193
958.0288
957.6968
957.2433
956.7909
956.4246
956.1847
956.1154
956.1159
956.1978
956.3446
954.6141
954.9613
955.5127
956.075
956.5499
956.7675
956.7475
956.6206
956.5529
956.6809
957.0119
957.4394
957.8016
957.9655
957.8801
957.575
957.1326
956.6477
956.2028
955.8552
955.718
955.6579
955.7026
955.8098
954.8247
955.0304
955.3823
955.7859
956.0906
956.3389
956.4067
956.4031
956.5044
956.7729
957.152
957.5167
957.74
957.7492
957.5436
957.1748
956.7188
956.2473
955.8161
955.4544
955.3536
955.2452
955.2749
955.3699
955.0608
955.2102
955.4247
955.6578
955.9312
956.1315
956.2567
956.4015
956.6771
957.0364
957.3713
957.5692
957.5641
957.3517
956.9794
956.5165
956.0358
955.5932
955.2246
955.0212
954.8296
954.7993
954.8534
954.9704
955.2563
955.4419
955.6168
955.8028
956.0072
956.1971
956.4157
956.7217
957.0613
957.3336
957.446
957.3545
957.0705
956.6413
956.1379
955.6212
955.1556
954.7756
954.4939
954.4426
954.2879
954.2934
954.4008
954.5754
955.3515
955.6324
955.8639
956.0765
956.3251
956.5474
956.8659
957.1458
957.2884
957.2485
957.0201
956.6343
956.143
955.598
955.0656
954.5755
954.1883
953.9061
953.8427
953.6601
953.6575
953.7327
953.9048
954.195
955.6169
955.9582
956.265
956.5662
956.7349
956.9282
956.8898
956.7031
956.3679
955.9268
955.4226
954.8972
954.3746
953.9236
953.5251
953.2616
953.0608
953.0705
952.9594
952.9883
953.1128
953.3494
955.0394
955.431
955.758
955.9416
955.9516
955.7486
955.5388
955.3075
954.9254
954.5012
954.0558
953.621
953.198
952.8959
952.6157
952.4893
952.4276
952.2698
952.279
952.3199
952.443
952.8322
954.5803
954.6902
954.706
954.6472
954.4938
954.22
953.8763
953.5295
953.1875
952.8404
952.5301
952.2262
952.0889
951.9965
951.8165
951.7971
951.691
951.6518
951.6865
951.8386
953.6698
953.6555
953.51
953.3473
953.0918
952.7804
952.4079
952.1294
951.867
951.6875
951.6027
951.4706
951.457
951.3946
951.3325
951.1997
951.224
951.3093
952.7937
952.5317
952.3811
952.0484
951.7682
951.5339
951.3385
951.1987
951.1397
951.1419
951.1559
951.1392
951.0883
951.06
950.9849
951.0663
951.6278
951.5495
951.1252
950.9483
950.8156
950.7645
950.7847
950.8396
950.9139
950.9853
951.0156
951.0007
950.9913
950.9562
950.4906
950.4187
950.4158
950.4993
950.6313
950.7625
950.8884
950.9915
951.0402
951.0139
959.2937
959.9855
960.4596
960.8546
961.3174
961.9462
962.7063
963.4555
956.1674
957.5985
958.8602
959.5996
960.2034
960.6439
961.0137
961.4457
962.0293
962.7399
963.4318
963.7438
963.7031
963.5067
955.7086
956.5434
957.8449
959.0101
959.7947
960.3814
960.8247
961.1867
961.5866
962.1041
962.7214
963.3093
963.5313
963.4131
963.0732
962.3968
954.0737
954.9963
955.9126
956.8325
958.0303
959.0051
959.8897
960.4889
960.9582
961.3372
961.7181
962.1668
962.673
963.1558
963.3252
963.2193
962.7698
962.0371
960.8727
959.9281
953.7166
954.2568
955.1225
956.0722
956.9699
958.1805
959.1111
959.8897
960.4836
960.9855
961.4034
961.786
962.179
962.579
962.9496
963.1131
963.0344
962.6029
961.9402
960.9825
959.8983
958.7735
953.4109
953.8148
954.3673
955.2636
956.1739
957.1953
958.226
959.0281
959.7074
960.2721
960.7906
961.2489
961.6507
962.0163
962.3473
962.6323
962.7965
962.7751
962.4787
961.9798
961.1911
960.3907
959.5603
959.2427
953.4538
953.8735
954.4969
955.3874
956.4109
957.298
958.1475
958.7989
959.3633
959.8679
960.3659
960.8434
961.2652
961.6319
961.9637
962.2351
962.3935
962.3949
962.2008
961.8082
961.2891
960.6369
960.0213
959.4976
953.2976
953.5559
953.9813
954.666
955.6943
956.6136
957.3887
958.0746
958.576
959.008
959.4156
959.8416
960.2821
960.7037
961.0897
961.4182
961.6451
961.8009
961.8098
961.6525
961.3493
960.8937
960.4219
959.9114
959.4541
959.1061
953.2525
953.3538
953.6118
954.123
955.0091
956.0511
956.945
957.6343
958.1633
958.5069
958.7768
959.0484
959.3511
959.674
960.0022
960.3347
960.6214
960.8295
960.9431
960.8782
960.7316
960.4711
960.118
959.6367
959.1938
958.8766
958.5648
958.298
953.3171
953.4095
953.695
954.3132
955.3825
956.5582
957.4115
957.9811
958.3352
958.5339
958.6642
958.7898
958.9336
959.1053
959.314
959.5391
959.7029
959.8164
959.8406
959.714
959.4341
959.1185
958.8054
958.5238
958.2062
958.1006
957.9852
957.859
953.4283
953.5048
953.7973
954.5765
955.75
957.0265
957.7834
958.1971
958.4125
958.5037
958.5408
958.5624
958.5849
958.6175
958.6672
958.7387
958.7973
958.8126
958.7438
958.5799
958.346
958.2471
958.1883
958.1447
958.0474
958.0298
958.0178
957.9132
953.4584
953.6004
953.6503
953.9123
954.7182
955.9425
957.2617
957.9677
958.2509
958.3699
958.4038
958.4148
958.4272
958.4496
958.4722
958.4394
958.3627
958.2848
958.2325
958.2035
958.1798
958.1502
958.1426
958.1316
958.1371
958.1569
958.189
958.286
958.3727
958.4813
953.571
953.7306
953.8061
954.0313
954.7685
955.9386
957.199
957.9543
958.178
958.1704
958.0923
958.0474
958.0674
958.2777
958.4882
958.553
958.4393
958.2166
957.9814
957.8049
957.6941
957.6315
957.6137
957.6037
957.6313
957.6912
957.807
958.0009
958.2568
958.536
953.6794
953.8849
953.9851
954.1679
954.77
955.7873
956.9401
957.7301
958.0078
957.9407
957.6599
957.3338
957.4122
957.8021
958.254
958.5664
958.6188
958.4185
958.0649
957.6782
957.3453
957.1067
956.984
956.9363
956.9517
957.0062
957.1376
957.3486
957.6992
958.1741
953.7815
954.0439
954.1853
954.3381
954.7836
955.5849
956.5624
957.3332
957.6839
957.6751
957.4297
957.187
957.1971
957.4847
957.9317
958.3466
958.5589
958.494
958.1831
957.7264
957.2389
956.8144
956.514
956.3771
956.3445
956.3668
956.4555
956.6069
956.932
957.4802
953.8587
954.1821
954.3889
954.5441
954.8581
955.43
956.1808
956.8509
957.2331
957.3198
957.2092
957.1043
957.178
957.4599
957.8555
958.2087
958.3821
958.312
958.0133
957.5568
957.034
956.5348
956.1389
955.9205
955.834
955.8244
955.8727
955.9431
956.1602
956.6296
953.9021
954.2733
954.5641
954.7653
955.0089
955.3918
955.9124
956.421
956.7721
956.9178
956.9373
957.0021
957.2209
957.5582
957.8997
958.1184
958.1315
957.9248
957.5398
957.0481
956.5249
956.0375
955.6532
955.4358
955.3324
955.314
955.3637
955.3819
955.4993
955.8278
953.9332
954.3107
954.6783
954.9601
955.2099
955.4882
955.8348
956.196
956.4843
956.667
956.8216
957.074
957.4039
957.7169
957.904
957.8927
957.6688
957.271
956.7672
956.2319
955.7272
955.3006
955.0055
954.8256
954.7488
954.7504
954.8442
954.8447
954.9286
955.1907
953.9487
954.3033
954.709
955.078
955.3967
955.6727
955.9475
956.2274
956.4871
956.7305
957.0355
957.362
957.618
957.7171
957.6114
957.3038
956.8392
956.287
955.7174
955.1929
954.7537
954.4246
954.2252
954.104
954.0558
954.0846
954.2363
954.2438
954.3524
954.699
954.2742
954.6656
955.0905
955.4638
955.8212
956.1364
956.4359
956.737
957.0601
957.3302
957.4639
957.4124
957.1665
956.7513
956.2168
955.6248
955.0407
954.5126
954.0789
953.7516
953.5339
953.3773
953.2951
953.2673
953.3228
953.4926
953.5523
953.7133
953.9659
954.3617
954.7297
955.2701
955.7296
956.1409
956.5028
956.7726
956.9118
956.8851
956.6958
956.3544
955.8914
955.3506
954.782
954.2328
953.7513
953.3552
953.0558
952.8403
952.6722
952.554
952.4907
952.4682
952.6214
952.632
952.8457
953.1242
953.6216
953.8871
954.2082
954.5581
955.0024
955.3627
955.5811
955.6722
955.626
955.4458
955.1528
954.7552
954.2948
953.8173
953.363
952.9633
952.6512
952.4156
952.2341
952.0944
951.9252
951.8414
951.8042
951.7878
951.8998
952.0068
952.2392
952.6001
953.5799
953.7878
953.9224
954.0639
954.2473
954.3411
954.3237
954.1942
953.9603
953.639
953.2591
952.8737
952.5187
952.2245
952.0032
951.8586
951.7574
951.6474
951.5401
951.4017
951.3768
951.3791
951.4141
951.4389
951.5937
951.8147
953.2851
953.3645
953.3757
953.3668
953.3189
953.1823
952.9736
952.6926
952.3684
952.0465
951.7756
951.5778
951.455
951.395
951.3703
951.3473
951.2824
951.2143
951.1354
951.1754
951.2168
951.2365
951.2935
951.392
952.9293
952.8497
952.7457
952.6036
952.4002
952.1297
951.8864
951.6075
951.3476
951.1406
951.0261
950.9977
951.0183
951.069
951.1273
951.1551
951.1231
951.0927
951.0535
951.1312
951.1772
951.2267
951.3123
951.4295
952.3106
952.0163
951.856
951.4803
951.2222
950.9758
950.759
950.6266
950.5752
950.6242
950.7323
950.8506
950.9699
951.0714
951.124
951.0944
951.059
951.0281
951.1138
951.1715
951.2669
951.3384
951.313
951.0651
950.7331
950.4849
950.3416
950.2861
950.2497
950.332
950.4948
950.6781
950.8384
950.9815
951.0919
951.1417
951.0907
951.014
950.9522
951.0599
951.1457
951.2197
950.1638
950.0215
950.0542
950.0566
950.1483
950.3041
950.5154
950.7217
950.8865
951.0212
951.1157
951.1515
951.0754
950.9162
950.8029
950.8624
949.8011
949.925
950.0259
950.1751
950.3546
950.5827
950.7892
950.9375
951.044
951.1055
951.1246
951.0199
950.7768
950.5105
950.2011
950.414
950.6456
950.8421
950.9641
951.033
951.0452
950.9416
958.8692
959.4875
959.9611
960.4416
961.0837
961.8351
955.178
956.451
957.6109
958.8204
959.4239
959.9652
960.4078
960.8972
961.5659
962.3853
963.3876
963.9456
964.2876
964.4073
954.0247
954.9602
955.6328
956.8878
958.0131
959.1452
959.9276
960.4659
960.8925
961.3754
962.0244
962.8025
963.6177
964.0323
964.1876
964.1258
963.8623
963.7422
953.7483
954.2795
955.154
955.9405
957.3178
958.5407
959.6216
960.508
961.0695
961.4911
961.9553
962.546
963.2023
963.7513
964.0183
963.9757
963.6759
963.2261
962.6943
962.0498
953.4725
953.9205
954.4873
955.3313
956.3635
957.719
958.9492
960.0822
960.9858
961.5761
962.0024
962.4416
962.9553
963.4784
963.863
963.9629
963.7287
963.2101
962.5011
961.6913
960.6051
959.6526
953.347
953.6107
954.0338
954.7539
955.6681
956.7375
958.0551
959.2595
960.3841
961.286
961.9236
962.381
962.8052
963.2444
963.6419
963.8879
963.8662
963.5145
962.8624
962.0006
960.9805
959.7686
958.523
957.9439
953.2728
953.4357
953.6915
954.233
955.0216
955.964
957.0508
958.3171
959.4511
960.4932
961.3552
962.0231
962.5267
962.9579
963.3486
963.6596
963.8254
963.767
963.4118
962.7345
961.8347
960.7589
959.4857
958.2916
957.6062
957.6014
953.2195
953.2982
953.4506
953.8113
954.4266
955.2495
956.219
957.3069
958.4768
959.4816
960.3862
961.167
961.8306
962.3744
962.8303
963.2072
963.5189
963.7003
963.6715
963.3897
962.801
961.9754
960.9913
959.827
958.6359
957.7846
957.5246
957.9077
953.1304
953.2312
953.3093
953.5001
953.9365
954.5916
955.4592
956.4545
957.4981
958.5237
959.3666
960.1172
960.7957
961.4174
961.9741
962.4665
962.8811
963.1935
963.3756
963.3869
963.1932
962.7666
962.1287
961.3553
960.4622
959.5652
958.8222
958.0609
958.002
958.2109
953.1176
953.2333
953.3462
953.5862
954.0571
954.7564
955.6866
956.7002
957.6676
958.5178
959.1708
959.7406
960.28
960.8125
961.3248
961.8018
962.2222
962.5518
962.7521
962.8135
962.7023
962.407
961.9488
961.3626
960.6992
960.0202
959.2969
958.7488
958.2245
958.029
952.7581
953.1242
953.2792
953.425
953.6959
954.1804
954.9474
955.9845
957.0342
957.9172
958.5914
959.0494
959.4209
959.7813
960.1644
960.5576
960.9437
961.31
961.613
961.8144
961.8941
961.8122
961.5896
961.2441
960.7985
960.2429
959.6631
959.1505
958.6532
958.2815
957.9858
957.788
952.8788
953.1822
953.3679
953.5419
953.8065
954.3109
955.1902
956.4061
957.5301
958.2915
958.7724
959.0497
959.2417
959.4191
959.6148
959.8364
960.0987
960.3539
960.5455
960.6683
960.6898
960.5757
960.3147
959.9317
959.5233
959.154
958.7948
958.5236
958.2743
957.9849
957.8562
957.7175
952.8907
953.2312
953.4753
953.6693
953.9275
954.4552
955.4479
956.8798
957.9938
958.5869
958.886
959.0153
959.0748
959.1145
959.1565
959.2108
959.2834
959.3739
959.4489
959.4701
959.3915
959.2129
958.9665
958.8036
958.687
958.5897
958.4764
958.3841
958.2818
958.0719
958.047
957.8699
952.942
953.3141
953.6037
953.8137
954.0588
954.5849
955.6273
957.147
958.2664
958.7061
958.8708
958.9148
958.9265
958.9373
958.952
958.9702
958.9462
958.8773
958.7962
958.7289
958.679
958.6339
958.5892
958.5658
958.5403
958.5189
958.5056
958.5162
958.5569
958.5423
958.5482
958.38
952.4796
952.9238
953.3658
953.7351
953.9713
954.2035
954.6891
955.685
957.1442
958.2658
958.6834
958.7208
958.6604
958.6205
958.6391
958.8057
958.9939
959.0607
958.964
958.7527
958.5097
958.3092
958.1709
958.0844
958.044
958.0238
958.0231
958.0462
958.134
958.3098
958.5466
958.7852
958.9283
959.0316
952.6751
953.0039
953.4362
953.8547
954.1357
954.3664
954.7821
955.6505
956.9474
958.0441
958.5248
958.5378
958.2899
957.9608
958.0059
958.3711
958.7889
959.0837
959.1421
958.9576
958.6098
958.209
957.8463
957.5741
957.4134
957.3446
957.3288
957.3399
957.4233
957.6276
957.9849
958.4815
958.8961
959.2429
952.9024
953.136
953.5239
953.9661
954.2993
954.5477
954.8905
955.5826
956.6458
957.6486
958.2002
958.2921
958.0819
957.8195
957.7931
958.0484
958.4664
958.863
959.073
959.0163
958.7111
958.2452
957.7316
957.2726
956.9404
956.7649
956.6945
956.6635
956.6824
956.8086
957.1374
957.7554
958.3729
959.078
953.1195
953.2732
953.6058
954.0549
954.4437
954.7354
955.0331
955.5479
956.3473
957.1776
957.7352
957.9296
957.8634
957.7493
957.7799
958.0143
958.3735
958.7069
958.8749
958.8048
958.5016
958.0289
957.4785
956.9472
956.5233
956.2641
956.1373
956.0678
956.0287
956.051
956.2522
956.8071
957.481
958.4829
953.3265
953.4248
953.6872
954.1154
954.5475
954.9035
955.2039
955.5896
956.1497
956.768
957.2494
957.4994
957.5624
957.6074
957.7809
958.0724
958.3811
958.5814
958.5846
958.3671
957.9642
957.4457
956.8909
956.3741
955.9645
955.7043
955.5626
955.4792
955.422
955.3849
955.4687
955.8587
956.4031
957.4403
953.5155
953.6313
953.8042
954.1668
954.6027
955.0203
955.3695
955.7065
956.1058
956.5418
956.9178
957.1778
957.3538
957.5816
957.8775
958.1597
958.3241
958.2952
958.0528
957.6318
957.0995
956.5327
955.9986
955.5461
955.2148
955.0058
954.8866
954.8115
954.769
954.7287
954.7732
955.0386
955.3829
956.2706
953.7887
953.9013
954.175
954.5929
955.0488
955.4712
955.8425
956.193
956.5376
956.8552
957.1413
957.4483
957.7575
957.9907
958.0676
957.9402
957.6089
957.1175
956.5369
955.9415
955.3943
954.937
954.5851
954.3458
954.1944
954.0995
954.0349
954.0149
954.0083
954.0885
954.3112
954.5122
953.7248
953.8304
954.0872
954.4826
954.9501
955.4297
955.8817
956.2866
956.6549
957.0029
957.3375
957.5997
957.7162
957.6475
957.3835
956.9475
956.3907
955.7797
955.1823
954.6494
954.2129
953.8818
953.6348
953.4611
953.3456
953.2623
953.2031
953.1918
953.2402
953.4571
953.5896
953.8657
953.5521
953.6719
953.8738
954.2132
954.6252
955.1202
955.6391
956.1181
956.5183
956.8076
956.9555
956.9434
956.7639
956.4256
955.9593
955.4126
954.8421
954.3022
953.8372
953.464
953.1821
952.9765
952.8005
952.6718
952.5817
952.5074
952.4526
952.4345
952.5289
952.8159
953.0021
953.3125
953.399
953.4985
953.5904
953.807
954.1095
954.4467
954.8117
955.1493
955.4074
955.5472
955.5468
955.398
955.115
954.7245
954.2725
953.8105
953.3845
953.0277
952.7579
952.5607
952.413
952.2985
952.1711
952.094
952.0404
951.9828
951.9124
951.9193
952.0263
952.2564
952.5038
952.8594
953.2574
953.3303
953.4498
953.6344
953.8336
954.0197
954.1628
954.234
954.2123
954.0852
953.8475
953.5298
953.1712
952.8223
952.5224
952.2912
952.1347
952.0441
951.9834
951.928
951.8815
951.8159
951.8066
951.7921
951.7537
951.6762
951.6957
951.8097
951.9623
952.1253
953.0861
953.0912
953.1206
953.1851
953.2382
953.2618
953.2259
953.128
952.974
952.7684
952.4955
952.213
951.9606
951.7737
951.6651
951.6217
951.6304
951.6685
951.695
951.705
951.7208
951.7178
951.763
951.7816
951.7447
951.6393
951.6623
951.7606
951.8549
951.9762
952.8061
952.7821
952.7207
952.5806
952.4577
952.2628
952.0527
951.8382
951.6396
951.4115
951.2468
951.159
951.1553
951.219
951.315
951.4331
951.55
951.6257
951.6813
951.7472
951.7784
951.7968
951.7873
951.7293
951.6137
951.6935
951.793
951.8444
952.3903
952.1366
951.8877
951.6091
951.3228
951.0921
950.9228
950.8182
950.6908
950.6811
950.7601
950.9039
951.0803
951.2538
951.4295
951.5868
951.6916
951.7621
951.7939
951.748
951.6912
951.6428
951.5763
951.5602
951.7428
951.8183
951.5345
951.1068
950.8763
950.528
950.3725
950.3104
950.3426
950.3361
950.4677
950.6689
950.9011
951.1311
951.3345
951.5224
951.6694
951.7324
951.7343
951.6736
951.5058
951.3488
951.2712
951.3421
951.4169
951.6401
950.4879
950.2263
949.9681
949.9546
949.9621
950.1151
950.2028
950.4254
950.6888
950.9478
951.1827
951.3731
951.5326
951.6344
951.6132
951.517
951.3435
951.0318
950.9193
950.8053
951.0248
951.162
949.761
949.6431
949.6686
949.7851
949.976
950.1116
950.373
950.6651
950.922
951.1401
951.2949
951.4047
951.4475
951.3096
951.1012
950.825
950.5134
950.414
950.3183
950.5849
949.3939
949.5325
949.6668
949.8767
949.9933
950.2993
950.5316
950.7619
950.9514
951.0585
951.1103
951.113
950.96
950.6636
950.3342
949.9938
949.9323
949.7571
949.5091
949.7647
949.8933
950.2143
950.3586
950.5447
950.7069
950.7726
950.7755
950.7759
950.6568
950.255
949.8241
949.2951
950.0543
950.2478
950.3938
950.4214
950.3602
950.197
955.8182
956.9243
958.0369
958.7508
959.3115
959.7717
960.332
961.0823
961.9215
962.597
953.9577
954.5585
955.6122
956.4438
957.5281
958.6618
959.4187
959.9495
960.4302
961.0584
961.9028
962.7117
963.5009
964.17
964.41
964.5168
953.8006
954.211
954.9077
956.1009
957.1585
958.4213
959.4865
960.4089
960.9571
961.4605
962.08
962.7368
963.4483
964.0369
964.4425
964.5427
964.5469
964.4207
953.2549
953.5646
954.0053
954.6036
955.4067
956.6858
957.9526
959.406
960.5696
961.4546
962.0033
962.5184
963.1158
963.7096
964.2405
964.5734
964.6688
964.492
964.2542
963.8827
963.3691
963.0513
953.3042
953.3869
953.7175
954.3103
955.0766
955.9665
957.2488
958.6563
960.2638
961.499
962.3532
962.8943
963.4043
963.9482
964.4245
964.7498
964.8289
964.6489
964.2257
963.6431
962.8693
962.0388
960.9752
960.1958
953.3794
953.4121
953.5546
954.0293
954.7366
955.5278
956.4696
957.756
959.2181
960.8754
962.1821
963.0216
963.559
964.048
964.5101
964.8379
964.9547
964.7941
964.3566
963.6688
962.7744
961.6821
960.4887
959.5073
958.6964
958.6596
953.4266
953.4528
953.532
953.8319
954.4467
955.1406
955.9213
956.8915
958.181
959.641
961.2431
962.5508
963.4284
963.9849
964.4561
964.839
965.0308
964.977
964.6339
964.0071
963.1211
962.0151
960.7439
959.4563
958.4805
958.2805
958.6955
959.2439
953.1596
953.3623
953.4885
953.7264
954.1867
954.7941
955.4604
956.2371
957.2375
958.5221
959.9208
961.3847
962.6125
963.502
964.1123
964.6022
964.9543
965.103
965.0028
964.5816
963.8548
962.8713
961.6819
960.3651
959.1126
958.3152
958.2881
958.7585
959.3698
959.653
953.146
953.3642
953.6012
953.9798
954.4512
955.0282
955.6838
956.4865
957.5239
958.7728
960.0437
961.3134
962.4161
963.2841
963.9392
964.4817
964.904
965.0716
964.9675
964.5645
963.8843
962.9581
961.8382
960.5927
959.3591
958.4861
958.3004
958.6843
959.1318
959.453
952.6916
953.1154
953.4354
953.7822
954.1658
954.6155
955.1686
955.845
956.704
957.7709
958.9299
960.0125
961.0444
961.9712
962.7696
963.4357
964.0002
964.4462
964.683
964.6744
964.4081
963.901
963.1749
962.2757
961.2625
960.1932
959.2008
958.5194
958.3895
958.7201
958.9041
958.8711
952.048
952.5331
953.0564
953.5329
953.9242
954.2943
954.7133
955.2628
956.0112
956.9491
957.993
958.9891
959.8299
960.5888
961.292
961.9514
962.5578
963.1025
963.558
963.8609
963.9641
963.8583
963.5481
963.0524
962.4108
961.6688
960.873
960.0827
959.2609
958.6488
958.376
958.3917
958.4994
958.5527
952.0931
952.5812
953.1035
953.6292
954.036
954.3826
954.7789
955.3856
956.2363
957.259
958.257
959.0685
959.66
960.1479
960.6067
961.0738
961.5412
961.9865
962.3858
962.6874
962.8474
962.8461
962.673
962.3476
961.9011
961.3468
960.7194
960.0794
959.469
958.8999
958.4348
958.1001
958.0061
958.1507
952.2001
952.6696
953.2399
953.7488
954.1389
954.4579
954.8741
955.5405
956.5488
957.713
958.6548
959.2506
959.6112
959.8661
960.0953
960.3402
960.6098
960.9203
961.1991
961.3997
961.508
961.4961
961.3487
961.0345
960.5981
960.153
959.7455
959.3617
959.0171
958.6846
958.3352
958.0571
957.825
957.8294
951.761
952.0943
952.6
953.2541
953.8186
954.2271
954.5485
954.9783
955.7137
956.9142
958.2324
958.9977
959.3818
959.5551
959.6401
959.6988
959.759
959.8318
959.9187
960.0148
960.0864
960.0935
959.9899
959.7876
959.5525
959.3656
959.2151
959.0826
958.9473
958.8126
958.6546
958.4186
958.2087
957.9251
957.837
957.8017
952.0008
952.1914
952.6534
953.293
953.8785
954.3131
954.6545
955.0833
955.8563
957.1662
958.5515
959.166
959.3879
959.4508
959.4671
959.4777
959.4895
959.5028
959.4845
959.4208
959.3351
959.2534
959.1844
959.1208
959.0648
959.0261
958.9877
958.949
958.9166
958.9077
958.9129
958.8654
958.7609
958.4681
958.3888
958.1825
952.3413
952.4665
952.8311
953.3999
953.9583
954.4059
954.7685
955.1861
955.936
957.2205
958.5484
959.1819
959.2776
959.242
959.2146
959.2463
959.3743
959.5423
959.608
959.5215
959.3154
959.0627
958.8394
958.6778
958.5733
958.5173
958.487
958.4708
958.4767
958.5513
958.7161
958.9267
959.0995
959.0858
959.0423
958.8348
952.6692
952.747
953.085
953.5418
954.0464
954.5002
954.8847
955.2881
955.962
957.1094
958.3355
959.0129
959.126
958.9325
958.6275
958.6438
958.9865
959.3722
959.6478
959.7047
959.5258
959.1771
958.762
958.3764
958.0816
957.9009
957.8162
957.7818
957.7716
957.8378
958.0506
958.4217
958.8788
959.2406
959.4411
959.452
953.0373
953.0716
953.3525
953.7144
954.1484
954.5941
954.9997
955.3931
955.9672
956.9127
957.9786
958.6795
958.887
958.7409
958.4854
958.4358
958.6657
959.0559
959.4299
959.6283
959.5685
959.2603
958.7837
958.2508
957.7703
957.4204
957.2249
957.1324
957.073
957.0613
957.1922
957.5577
958.1577
958.7797
959.329
959.5822
953.3484
953.3716
953.6265
953.9183
954.2689
954.6848
955.1071
955.5015
955.985
956.7167
957.5764
958.2336
958.5279
958.5248
958.4279
958.4346
958.6299
958.9509
959.2558
959.406
959.3246
959.0111
958.5244
957.9565
957.408
956.9699
956.6927
956.5446
956.4424
956.3567
956.3611
956.5886
957.1312
957.851
958.7136
959.3384
953.5796
953.6266
953.8864
954.1592
954.4277
954.7805
955.201
955.6083
956.0344
956.5875
957.2357
957.7878
958.1098
958.2239
958.2726
958.414
958.6594
958.9245
959.0911
959.0702
958.8342
958.4147
957.88
957.3108
956.7835
956.3651
956.0906
955.9321
955.8152
955.698
955.6201
955.6992
956.0574
956.666
957.6058
958.5312
953.6872
953.7794
954.0059
954.3543
954.6175
954.8965
955.2826
955.7018
956.1112
956.5549
957.0384
957.4748
957.7852
957.986
958.1924
958.4451
958.6784
958.7991
958.7353
958.4661
958.0242
957.4761
956.8984
956.3594
955.9068
955.5732
955.3598
955.2304
955.1217
955.0079
954.9131
954.9242
955.1246
955.5377
956.2663
957.1781
953.7587
953.8688
954.0749
954.4678
954.773
955.0306
955.3591
955.7693
956.1873
956.5978
957.002
957.3743
957.6924
957.9869
958.2571
958.4415
958.4722
958.3071
957.9476
957.4372
956.846
956.2484
955.7061
955.2606
954.9233
954.6953
954.5531
954.4588
954.3604
954.2611
954.1871
954.2069
954.3446
954.6661
955.0918
955.823
953.8801
953.8968
954.0036
954.3922
954.7513
955.0407
955.344
955.7476
956.1908
956.6251
957.035
957.4129
957.7305
957.9497
958.0253
957.9236
957.6364
957.1867
956.6258
956.0204
955.4369
954.926
954.5167
954.2181
954.0073
953.8718
953.7847
953.716
953.6183
953.5276
953.4775
953.5298
953.6463
953.9713
954.2935
954.8892
953.679
953.7806
954.1266
954.5073
954.8251
955.1111
955.4644
955.8612
956.2762
956.6504
956.9259
957.0742
957.0665
956.8922
956.561
956.106
955.5778
955.0347
954.5306
954.1061
953.7791
953.5477
953.4009
953.2983
953.2397
953.1983
953.1516
953.0404
952.9448
952.8906
952.9255
953.0347
953.3563
953.6214
953.4756
953.5175
953.7215
954.0766
954.3802
954.631
954.8976
955.1595
955.4008
955.5877
955.6832
955.6597
955.501
955.2177
954.8409
954.4183
954.0002
953.6281
953.3303
953.1202
952.9889
952.919
952.899
952.8924
952.9098
952.9144
952.8848
952.7385
952.6206
952.522
952.4864
952.549
952.8459
953.1441
953.387
953.3335
953.3985
953.6162
953.8435
954.0263
954.1819
954.3078
954.3816
954.3903
954.3251
954.178
953.9399
953.6438
953.3316
953.0482
952.8235
952.668
952.5844
952.5662
952.5916
952.6479
952.7321
952.8185
952.8965
952.9325
952.8941
952.6958
952.5376
952.3736
952.2665
952.2806
952.5216
952.7795
953.1151
953.0786
953.1229
953.2549
953.3462
953.367
953.3625
953.2947
953.1765
953.0256
952.8463
952.6193
952.4072
952.2463
952.1606
952.1477
952.189
952.2759
952.3959
952.528
952.6773
952.8349
952.9799
953.0654
953.1023
953.0493
952.8091
952.5783
952.3288
952.1598
952.1329
952.3074
952.6768
952.6753
952.6492
952.6142
952.4905
952.3816
952.2196
952.055
951.9179
951.8065
951.6719
951.6165
951.6455
951.7553
951.9152
952.0951
952.2911
952.4889
952.677
952.869
953.0476
953.1987
953.2816
953.2672
953.1468
952.8041
952.521
952.2475
952.1214
951.9858
952.4075
952.212
952.0695
951.83
951.5939
951.4584
951.2782
951.164
951.1309
951.1534
951.1479
951.2642
951.4571
951.7075
951.9711
952.225
952.4646
952.6774
952.8763
953.0728
953.2375
953.2975
953.2791
953.1638
952.9654
952.529
952.2825
952.1873
952.1445
952.0823
951.7192
951.4011
951.106
950.7553
950.6739
950.5797
950.5863
950.6893
950.8517
950.959
951.2092
951.5027
951.8252
952.1269
952.3947
952.6452
952.8626
953.0315
953.1343
953.175
953.0768
952.9174
952.6688
952.4067
951.9541
952.024
952.117
952.1587
950.7589
950.385
950.1052
950.0354
950.0597
950.2128
950.4597
950.7534
950.9438
951.2841
951.6368
951.9909
952.2929
952.5396
952.7438
952.8811
952.9384
952.8921
952.766
952.468
952.1676
951.7864
951.5095
951.4026
951.7231
951.9741
949.7888
949.5159
949.5917
949.6378
949.8777
950.2099
950.5925
950.8221
951.2118
951.5965
951.9732
952.2585
952.459
952.5865
952.6028
952.5145
952.2908