/*--------------------------------*- C++ -*----------------------------------*\
  =========                 |
  \\      /  F ield         | OpenFOAM: The Open Source CFD Toolbox
   \\    /   O peration     | Website:  https://openfoam.org
    \\  /    A nd           | Version:  6
     \\/     M anipulation  |
\*---------------------------------------------------------------------------*/
FoamFile
{
    version     2.0;
    format      ascii;
    class       volScalarField;
    location    "50";
    object      volPowerFuel;
}
// * * * * * * * * * * * * * * * * * * * * * * * * * * * * * * * * * * * * * //

dimensions      [1 -1 -3 0 0 0 0];

internalField   nonuniform List<scalar> 
203709
(
520120
572226
572080.7
520037.8
543570.3
608434.5
753242.3
745201.8
745013.9
751393.2
607990.3
543122.7
531199.6
610663.4
763044.3
760687.2
782215.2
787506.2
787378.7
781882.7
760159.3
760851.4
609968.6
530485.4
531306.6
741925.4
757512.9
787030.5
802287.1
815725.2
821615.4
821529
815391.2
801770.7
786374.9
756708.7
739739
530523.2
610796
757570.9
791547.7
815591.3
833774.1
846900.7
853391.8
853327
846606.5
833304.3
814975.7
790766.1
756643.8
609900.2
543803.2
763247.5
787145.3
815594
840331
859865.9
873412.7
880099.4
880040.7
873221.7
859553.5
839822
814889.1
786265
761228.9
542908.9
608681.7
760920
802424.7
833786.6
859875.4
880232
893758.8
900116.2
900062.9
893626.6
879969.5
859509.2
833272.4
801717.1
760020
607819.9
520683.3
753754.5
782654.3
816052.7
847149.2
873645.6
893958.2
906536
912714.4
912630
906320.7
893604.6
873249.4
846664.6
815411.5
781854.5
751927.7
519754.2
572758.9
745782.7
788064.1
822172.5
853878.9
880556.3
900549.8
912983.1
919704.6
919414
912683.9
900169.2
880134.4
853366.5
821545.4
787369.7
744949.8
571909.9
572876.5
746012.4
788225.1
822278.3
854010.5
880707.1
900659.4
913098.1
919981.1
919686.8
912832.3
900294.8
880241.2
853507.1
821696.6
787533.5
745202.6
572141.4
520688.9
752620.6
782987.7
816424.5
847577.5
874082.8
894349.5
906932.9
913159.3
913028.8
906717
894038.1
873663.8
847093.6
815865
782334.5
750783.9
520130.3
608950.8
761358.6
802987
834457
860560.7
880854.4
894359.8
900777.4
900666.7
894257.6
880639.8
860254.3
834045.3
802490
760831.2
608487.2
544089.3
762251.2
787683.1
816220.2
840986.9
860565.4
874098.5
880912.7
880864.4
874126.5
860522.5
840898.5
816049.4
787430.9
760781.4
543730.5
611171.3
758061.5
792115
816241.2
834500.1
847746.1
854714.1
854713.3
847798.8
834585.4
816323.2
792174.5
758105.8
611092.9
531691.5
741298.4
758154.8
787802.7
803134.4
816728.1
823090.7
823128.6
816839.6
803310.5
787983.5
758321.2
740104
531622.4
531798.3
611341
763024.1
761653.5
783438.8
789072.4
789181.1
783589.5
761926.8
761677.7
611468.4
531846.5
544375.7
609341
753787.5
747051.5
747212.4
752352.6
609558.7
544538.5
521285.4
573548.3
573645.2
521409
436783.2
496411.9
516502.6
530249.4
538810.1
538719.6
529983.4
516056.3
495809.6
436141.7
445556.9
519057.1
661051.3
682417.6
706846.1
733784.4
755082.3
754961.6
733462.5
706192.2
681393.7
658296.7
517765.7
444290.4
456012.9
650267.1
686551.1
739121.9
788966.8
830401
884018
928208
928045.8
883574
829505.5
787707.8
737712.7
684966.9
647289.1
454735.5
460542.3
662430.8
721671.9
786337.3
853364.5
948928.8
1067313
1185095
1227191
1226949
1180161
1066192
947654
851984.6
784768.5
719944
659344.7
459177.1
456093.9
662403.2
728967.3
804702.7
930743.6
1082736
1246381
1366555
1455966
1601107
1600781
1455146
1365304
1240406
1081091
928992.6
802993.4
727068.3
659257.1
454652.9
445812.3
650622.8
721793.5
804788.4
977377.5
1207893
1365985
1495996
1705100
1798599
1853655
1853320
1797628
1703629
1494248
1364019
1201423
975358.8
802842.7
719814.7
647539.9
444321.1
519251.8
686768.6
786506.4
930880.7
1207969
1428989
1680112
1818977
1927377
1994217
2028133
2027820
1993294
1925993
1817179
1677981
1426778
1201384
928930.9
784691.4
684973.4
517690.7
437360.6
661511.1
739383.3
853654.3
1082967
1366366
1680303
1868812
1990279
2074201
2127426
2153598
2153363
2126702
2073042
1988707
1866891
1678179
1364330
1081148
851979.5
737602.4
658606.2
435763.7
497114.3
683206.6
789420.9
949481.3
1247068
1496636
1819395
1990456
2100565
2174797
2221672
2244445
2244274
2221142
2173895
2099246
1988700
1817289
1494468
1240436
947494.3
787568
681126.5
495332.1
517301.2
707882.8
831125.8
1067982
1367583
1706047
1928110
2074730
2175182
2244098
2287728
2308943
2308748
2287167
2243182
2173954
2073153
1926196
1703847
1365240
1066145
829390.6
705822.8
515551.2
531122.5
735038.3
885272
1186457
1457414
1800019
1995420
2128492
2222718
2288467
2330095
2350304
2349971
2329229
2287228
2221306
2126985
1993734
1798088
1455349
1180248
883400.6
733099.2
529536
539712
756369.9
929632.7
1228983
1603130
1855622
2029928
2155255
2246077
2310374
2351140
2371043
2370571
2350111
2308995
2244570
2153719
2028333
1853906
1601281
1227229
927986.2
754707.3
538308.4
539625.7
756244.7
929537.4
1229000
1603339
1855927
2030279
2155631
2246444
2310705
2351489
2371498
2371054
2350556
2309427
2244989
2154141
2028775
1854382
1601738
1227460
928102.5
754802.1
538376.9
530909.1
734888.9
885422.2
1182642
1457876
1800805
1996405
2129569
2223773
2289483
2331160
2351505
2351213
2330478
2288499
2222598
2128324
1995145
1799548
1456705
1185579
884221.9
733689.5
529826
517126.2
707877.7
831550.2
1068649
1368288
1707149
1929515
2076315
2176847
2245762
2289460
2310827
2310684
2289177
2245297
2176223
2075582
1928715
1706305
1367468
1067590
830484.2
706900
516201.4
497015.8
683319.9
789927.7
950023.2
1243662
1497845
1820955
1992213
2102457
2176825
2223871
2246883
2246907
2224039
2177026
2102604
1992234
1820789
1497430
1247410
949432.4
789085
682505.6
496218
437300
660339.8
739883.3
854196.7
1083925
1367545
1681810
1870548
1992276
2076513
2130121
2156636
2156782
2130591
2077215
1993068
1871272
1682284
1367559
1083663
853896.6
739265.2
658683.7
436685.1
519577.9
687188.3
786994.6
931625
1204790
1430479
1682068
1821377
1930249
1997621
2031921
2032116
1998183
1931096
1822370
1683069
1431268
1209513
931701.6
786964.7
686777.4
518932.8
446101.7
649666
722320
805528.1
978477
1205059
1368181
1498718
1708477
1802641
1858194
1858418
1803165
1709208
1499482
1368988
1210218
978873.4
805694.5
722380.2
648278.4
445490.6
456517.5
662033.9
729866.7
805700.6
932046.4
1084620
1244655
1369882
1459870
1605740
1605969
1460328
1370386
1249627
1085230
932586.1
806079.1
730073.1
660903
456270.8
461118
662187.7
722721
787684.5
855016.1
950848.8
1069894
1184365
1231225
1231359
1188896
1070258
951411
855437.5
788048.6
723045.9
661183.7
461144.1
456559.3
650412
687846.4
740604.4
790715.2
832649.4
886824.2
931350.4
931424.8
887005
832843
791141.4
741129.3
688281.5
649367.2
456738.5
446426.7
520065.1
661733.4
684342.3
709087.3
736282.1
757828.7
757910.3
736480.2
709324
684644.1
660755.1
520490.6
446699.2
437850.7
497741.2
517975.2
531877.1
540651.7
540710.5
532149.5
518346.9
498134.1
438170.1
370774.9
420379.1
432730.1
437424.6
437244.1
432193.3
419463.2
369878.9
370450.6
444246.5
486347.3
612566.4
635293.9
648541.5
654504.2
654279
647847.4
634157.1
609917.1
485336.8
443198.4
369631.7
408438.9
594109.2
650742.5
717371
790247.5
823959.9
844608.3
854211.6
853956
843839.1
822694
788614.9
715697.9
649001.7
591017.4
407367.7
382881.7
475721.7
638897.2
759206.1
889032.8
1034607
1108468
1151362
1179826
1194470
1194117
1178774
1149636
1106146
1028055
886434.9
756862.8
635141.4
473959.6
381289.1
386528.6
582655.2
676135.8
840806.4
1053856
1204600
1330585
1529308
1621911
1676298
1703184
1702722
1674948
1619754
1526525
1327639
1201383
1046435
837638.5
673541.1
578806.2
384758.7
382980.7
582857.1
698269.5
874900.8
1130895
1319152
1575078
1740409
1883728
1990022
2061965
2097616
2097066
2060387
1987417
1880276
1736408
1570679
1314821
1123139
871455.8
695078.2
578883.8
381044.7
476102.1
676516.5
875135.3
1149121
1363735
1665247
1886109
2065966
2219494
2343476
2431750
2467710
2467067
2429846
2340471
2215658
2061534
1881215
1660172
1358894
1140985
871296.6
673325.9
473714.6
409107.6
639340.9
841177.7
1131475
1363899
1692529
1954275
2183920
2381990
2549215
2673857
2762329
2813107
2812425
2760334
2670716
2545161
2377249
2178699
1948876
1687105
1358941
1123294
837457.6
635206
406960
370888.1
594764.2
759897
1054599
1320164
1666005
1954639
2226294
2473397
2674669
2840448
2978581
3075579
3127781
3127123
3073640
2975529
2836491
2669967
2468192
2220848
1949069
1660538
1315178
1045920
756590.1
590919.9
368909.9
444919.7
651610.6
889894.3
1206016
1576413
1887205
2184530
2473655
2720348
2938098
3114101
3250744
3342414
3388990
3388393
3340667
3248037
3110547
2933840
2715599
2468620
2179328
1882001
1571312
1201260
886373.7
648765.4
442709.3
487073.7
718260.1
1035593
1332551
1742174
2067402
2382919
2675341
2938469
3164272
3339544
3468728
3553667
3595861
3595408
3552319
3466554
3336613
3160711
2934433
2670998
2378347
2062630
1737283
1327846
1028039
715452.4
484848.9
371373
613646.8
791207.4
1109895
1531754
1886065
2221426
2550800
2841719
3114958
3339954
3510822
3633973
3713939
3753275
3752945
3712941
3632303
3508473
3336908
3111292
2837581
2546325
2216669
1881097
1526800
1106191
788265.5
610003.7
369484.9
420886.1
636245.4
825261.2
1153330
1624885
1993049
2346041
2676131
2980508
3252262
3469828
3634716
3753170
3829763
3867301
3866924
3828671
3751457
3632505
3467084
3248997
2976761
2671976
2341645
1988257
1620075
1149571
822218.7
633556.5
418907.5
433463.3
649706.5
846205.3
1182296
1679879
2065842
2435337
2765533
3078384
3344781
3555701
3715843
3831049
3905469
3941788
3941213
3903906
3828820
3713299
3553056
3341932
3075177
2761898
2431294
2061342
1675400
1178663
843276.5
647105.6
431435.3
438406.3
656005.2
856149.5
1197386
1707328
2102209
2472280
2817388
3131670
3392414
3598898
3756160
3869768
3943210
3979025
3978346
3941438
3867331
3753494
3596246
3389747
3128814
2814182
2468641
2098186
1703270
1193996
853353.7
653460.1
436423.5
438437.2
656035.8
856165.4
1197422
1707364
2102333
2472573
2817828
3132218
3393028
3599535
3756775
3870352
3943809
3979698
3979081
3942200
3868102
3754262
3597018
3390545
3129643
2814990
2469342
2098795
1703769
1194319
853570.7
653639.8
436563.2
433595.7
649868
846305.9
1182423
1680003
2066325
2436325
2766798
3079909
3346515
3557528
3717613
3832804
3907315
3943808
3943362
3906123
3831084
3715624
3555481
3344479
3077796
2764445
2433576
2063334
1676901
1179545
843896.1
647625.9
431834.4
421157.3
636511.4
825451
1153613
1625126
1993847
2347546
2678033
2982728
3254796
3472590
3637602
3756081
3832799
3870544
3870351
3832289
3755298
3636619
3471482
3253588
2981347
2676334
2345418
1991460
1622532
1150885
823192.2
634415.2
419513.5
371676.6
612323.6
791614.6
1110467
1532091
1887055
2223027
2552992
2844299
3117907
3343175
3514270
3637642
3717900
3757601
3757695
3718191
3638035
3514636
3343384
3117835
2843866
2552160
2221814
1885347
1530089
1107910
789544.4
609648.4
370261.8
487253.6
718657.3
1032532
1332828
1743249
2068929
2385125
2678012
2941505
3167681
3343406
3473127
3558676
3601481
3601775
3559532
3474408
3344895
3169115
2942603
2678578
2385224
2068530
1742135
1331563
1034098
716861.9
485848
444943.6
651863
890506.6
1206556
1577553
1888659
2186618
2476437
2723724
2942157
3118949
3256429
3348970
3396333
3396673
3349948
3257917
3120758
2944061
2725427
2477691
2187387
1888775
1576822
1205623
888877.7
650458.7
443856.9
370799.9
593790.5
760490
1051135
1321307
1667619
1956957
2229463
2477422
2679630
2846433
2985554
3083573
3136679
3136987
3084405
2986788
2847946
2681307
2479000
2230720
1957769
1667809
1320672
1054662
759223.2
591577.9
370115.2
409030.2
638366.6
841931.8
1128969
1365649
1695043
1957713
2188305
2387434
2555869
2681593
2771108
2822803
2823057
2771758
2682515
2557019
2388774
2189598
1958781
1695763
1365914
1132307
841333.1
636442
408392.1
476346.9
677129.9
876123.8
1147148
1365999
1668820
1890765
2071653
2226189
2351298
2440743
2477597
2477762
2441182
2351986
2227121
2072638
1891726
1669646
1366588
1150953
875906.6
676608.2
475781
383379.2
582253
699184.1
876305.4
1129807
1322576
1579468
1745852
1890210
1997516
2070428
2106819
2106933
2070811
1998048
1890895
1746678
1580387
1323268
1133769
876452
699029
580806.3
382930.9
386924.9
582633.3
677546.6
842492.7
1052151
1207950
1335054
1534846
1628209
1683348
1710840
1710927
1683788
1628887
1535613
1335763
1208882
1057132
842965.1
677669.6
581272.6
386735.9
383536.2
476792.5
639212.1
761186.9
891397.5
1033696
1112007
1155334
1184413
1200087
1200062
1185018
1156245
1113008
1038675
892221.4
761727.8
638165.2
476831.2
383526.1
409453.8
594707.5
652642.8
719561.4
792660.1
826620.1
847655
857872.2
857809.2
848041.8
827168.2
793275.1
720089.9
653050.3
593875.5
409658.5
371211.8
445543.7
487845.2
613950.1
637386.7
650872.4
657503
657522.1
651080.5
637677.8
612820.4
488194
445796.3
371629
372090.7
421666.3
434185.5
439279.3
439298.4
434297.2
421800.6
372105.2
329443.5
371263.7
380544.2
380362.8
370718.2
328908.4
316762.6
393783.2
440496.2
493697.8
613189.4
638957
648790.2
648413
637930.4
610004.8
492846.6
439677.9
392870.4
316100.1
319346.4
413333
573957.4
671286.2
756751.9
879477.2
947254.6
975263.4
988810
988277.9
973807.7
945392.9
874575.2
754866.9
669146.6
570408.1
412161.6
318533.4
357167.9
554502.6
693695
890336.5
1004646
1117836
1219255
1387815
1452548
1478192
1477563
1450756
1385176
1216275
1114410
1001141
882943.2
691217.8
551013.4
356019.9
382680.2
615885
800553.3
1023419
1200021
1442903
1600334
1721112
1822040
1883850
1912137
1911427
1881775
1818779
1716986
1595686
1438103
1195487
1015600
797196.6
611448.9
381036.8
396923.9
666068.4
922097.5
1119007
1313473
1631351
1859225
2039036
2166494
2263048
2325485
2355491
2354692
2323127
2259253
2161493
2033146
1852991
1625341
1308121
1113749
913823.6
660939.8
394884.7
382905.4
666257.2
963174.6
1191613
1514006
1780556
2047178
2269554
2454220
2609761
2723890
2796486
2831453
2830555
2793847
2719662
2604211
2447667
2262343
2039708
1773181
1507116
1185671
954787.6
660914.6
380789.6
357566.9
616223.1
922704.7
1191838
1553500
1870279
2164477
2424568
2667960
2874436
3043954
3169206
3250143
3289248
3288250
3247222
3164508
3037754
2867084
2659798
2415961
2155783
1861986
1545967
1185632
913802.5
611489.5
355457.7
319790.2
554994.9
801486.2
1119723
1514766
1870811
2205118
2502256
2790116
3051692
3272357
3451461
3586449
3674581
3715969
3714875
3671367
3581345
3444813
3264511
3042958
2780805
2492682
2195602
1861961
1507006
1113587
797062.4
550757.1
317772.9
413959.4
694759
1024183
1315066
1781955
2165712
2502954
2830005
3136274
3409005
3640876
3828344
3970093
4065175
4113206
4112082
4061877
3964876
3821571
3632878
3400101
3126748
2820100
2492973
2156023
1773225
1308067
1015282
690824
411547.1
317428.5
574708.1
891139.8
1201545
1633634
2049397
2426642
2791607
3136974
3453711
3734785
3974446
4170204
4322484
4426741
4479937
4478878
4423626
4317553
4163797
3966850
3726293
3444545
3127294
2781639
2416713
2040014
1625488
1194840
882375.6
570555.5
315705.5
394283.7
672150.6
1005883
1445404
1862125
2272675
2670847
3053857
3410259
3735316
4023312
4274115
4480719
4640071
4747972
4802305
4801375
4745246
4635812
4475156
4267475
4015823
3727158
3401528
3044661
2661334
2263310
1853659
1437927
1000427
668405.9
392091.6
441360.5
758166.8
1119980
1603686
2042655
2458303
2878194
3275174
3642712
3975572
4274694
4535582
4748377
4909660
5017611
5071504
5070809
5015549
4906339
4743941
4530226
4268577
3968825
3635317
3267043
2869288
2449175
2034121
1595835
1113822
753664.1
438599.1
494890.3
881937
1222522
1725287
2171094
2614838
3048721
3455181
3831034
4172151
4482026
4749018
4963993
5124833
5231538
5284532
5284029
5230035
5122358
4960572
4744658
4476791
4166129
3824249
3447481
3040054
2605813
2162459
1717154
1215649
872860.7
491559.7
330374.5
614650.4
950168.2
1391931
1827001
2268654
2730026
3175136
3591368
3973926
4325470
4642376
4911289
5125876
5285370
5390568
5442582
5442020
5388948
5282861
5122696
4907415
4637799
4320180
3967823
3584251
3166949
2721382
2260161
1818788
1384364
943963.8
609812.2
327929.1
372066.9
640689.3
978344.6
1457140
1889489
2332038
2803730
3257387
3681014
4070508
4431103
4751537
5020561
5234201
5392345
5496325
5547506
5546697
5494093
5389141
5230555
5016827
4747561
4426601
4065180
3674592
3249893
2795741
2324045
1881685
1449817
972396
636463.1
369630.5
381606.9
650853.1
992135.3
1483315
1918512
2362950
2839774
3297807
3724025
4120301
4486000
4807433
5075868
5288542
5445985
5549472
5600336
5599417
5546980
5442526
5284772
5072154
4803719
4481958
4115530
3718242
3291074
2832545
2355637
1911337
1476609
986825.9
646950.3
379214.2
381613.1
650928.1
992340.9
1483424
1918606
2363032
2839888
3298066
3724537
4121029
4486850
4808331
5076763
5289397
5446810
5550320
5601262
5600429
5548053
5443625
5285878
5073272
4804870
4483148
4116722
3719378
3292117
2833461
2356443
1912110
1477330
987414.2
647330.2
379399.2
372251.6
640819.7
978464.2
1457291
1889719
2332278
2804057
3258149
3682506
4072574
4433488
4754089
5023169
5236711
5394862
5498976
5550363
5549741
5497260
5392397
5233915
5020337
4751240
4430389
4068926
3678113
3253074
2798465
2326388
1883906
1451843
974033.5
637554.6
370186.5
330639.4
612643.8
949955.6
1391999
1827281
2269067
2730559
3176315
3593609
3976980
4328979
4646199
4915370
5130108
5289629
5394975
5447239
5446960
5394192
5288454
5128691
4913814
4644487
4326920
3974331
3590225
3172234
2725846
2263862
1822180
1387284
946168.4
609201.2
328903.1
494885.7
878378.7
1222590
1725637
2171737
2615583
3050207
3457814
3834601
4176299
4486627
4753952
4969211
5130340
5237424
5290926
5291047
5237765
5130804
4969662
4754216
4486508
4175645
3833258
3455672
3047206
2611815
2167259
1721326
1218815
878464.1
492732.1
441338.1
758206.8
1120181
1603992
2043477
2459235
2879897
3277926
3646413
3979983
4279657
4541083
4754500
4916516
5025315
5080153
5080544
5026438
4918197
4756476
4543008
4281158
3980783
3646385
3276945
2877878
2456400
2039760
1600480
1116942
755508.9
439402.1
394551.7
672532.2
1006440
1445742
1862983
2273925
2672809
3056698
3414103
3740150
4029072
4280853
4488544
4649077
4758234
4813839
4814270
4759474
4650976
4490874
4283297
4031255
3741745
3414889
3056448
2671451
2271789
1860117
1443000
1003492
670052.3
392752.1
317660.2
573355.3
888079.4
1201878
1634334
2050860
2428912
2794837
3141374
3459375
3741722
3982705
4179875
4333607
4439353
4493975
4494314
4440323
4335100
4181753
3984749
3743614
3460819
3142118
2794687
2427850
2049288
1632304
1199946
889177.6
570485.5
316290.6
414114.7
694976.3
1021607
1315457
1783530
2168124
2506469
2834836
3142577
3416832
3650264
3839362
3982724
4079363
4128828
4129055
4080004
3983721
3840671
3651755
3418257
3143681
2835399
2506372
2167402
1782340
1314218
1023162
693287.6
412815.2
319799
554059.7
802040.1
1121062
1516650
1873416
2208859
2507385
2796852
3060089
3282413
3463160
3599773
3689445
3732185
3732315
3689825
3600385
3464006
3283386
3061035
2797553
2507669
2208629
1872639
1515405
1119552
800560.6
551857.3
319048.8
357659.9
615330
920196.5
1193421
1555946
1874001
2169667
2431330
2676277
2884411
3055544
3182306
3264636
3304935
3305020
3264923
3182749
3056133
2885107
2676972
2431741
2169720
1873743
1555350
1192619
922559.5
612903.7
357029.3
383167.1
665366.1
961748.6
1193618
1517547
1785253
2053296
2277085
2463320
2620327
2735797
2809647
2845707
2845780
2809986
2736338
2620981
2464008
2277759
2053634
1785224
1517347
1193219
964233.4
662858.5
382614.1
397311.9
665573.7
920822
1122065
1317400
1636684
1865724
2046765
2175495
2273235
2336828
2367975
2368001
2337220
2273877
2176280
2047630
1866418
1636970
1317207
1121995
924289.5
663434.9
396965.3
383193.3
615918.3
803007.9
1022819
1203473
1447933
1606661
1728697
1830697
1893437
1922516
1922499
1893672
1831107
1729252
1607430
1448811
1204355
1026643
802979.1
614358.3
383078.8
357800.2
554853.5
695913.1
889205.9
1007733
1121864
1224753
1394592
1460076
1486303
1486335
1460356
1395074
1225343
1122918
1009007
893816.5
696037
553714.2
357817
319945.4
414475.2
574688.3
673109
759228
879937.3
951774.7
980232.5
994182
994139
980523.3
952424.7
884216.8
760333
674091.4
573549.4
414658.5
320146.1
317960.8
394708.4
441760.1
495514.7
614906.7
641801.3
652031.2
652051.2
642048.9
613478.2
496079.5
442458.7
395321.4
317932.4
331028.5
372657.1
382162.1
382152.3
372750.4
331001.1
273991.3
332557.4
375392.3
403015.9
412746.4
412949.2
403600.1
376509.1
333490.8
274198
278846.4
378398.8
447963.6
568848.6
647431.5
762448.5
802693.9
818124.4
817553.5
801532.2
758153
646316.2
566477.8
446922.2
377662.4
278197.3
370521.7
577266.1
751179.7
852249.7
951450.3
1050766
1136052
1283766
1329111
1328341
1281845
1133537
1047495
948418
849931.7
746141.9
573742.2
369046.5
306898.3
473161.2
757401
948198.4
1103917
1339671
1496428
1628200
1724559
1803632
1842108
1841181
1801105
1720923
1623729
1491587
1335055
1100228
944079.2
745599.7
470960.8
305661.2
332346
592760.6
870460.4
1094530
1394163
1628892
1830711
2001218
2141087
2260213
2342186
2381863
2380850
2339300
2255778
2135439
1994657
1823832
1622122
1387918
1089069
862519.8
588124.2
330764.8
338899.5
617694.8
936322.6
1185717
1543221
1841486
2091727
2322678
2515910
2671247
2794511
2877481
2918107
2916990
2874230
2789348
2664486
2507940
2314110
2083024
1832995
1535752
1179380
927534.5
612801.8
336994.5
332634.8
617964.5
954858.8
1234723
1640678
1974630
2273733
2561211
2816853
3028664
3195812
3323145
3408096
3449842
3448607
3404475
3317307
3188063
3019428
2806807
2550970
2263714
1965176
1632335
1227945
945547.6
612729.8
330586.4
307198.9
593200
936767.1
1235250
1674189
2049056
2405127
2731717
3035642
3303966
3530210
3713812
3851683
3942350
3986604
3985232
3938326
3845223
3705258
3520025
3292761
3023998
2720146
2394095
2038939
1665078
1227975
927479.9
588244.7
305256.5
473417.8
871126.2
1186341
1641548
2049597
2448565
2826851
3174757
3491871
3777047
4020478
4217928
4365337
4461789
4508667
4507156
4457346
4358237
4208629
4009478
3764893
3479073
3161850
2814379
2436921
2038959
1632147
1178956
862537.3
470422.5
370285.3
758200.5
1095454
1544657
1975931
2406281
2827631
3223769
3588536
3925567
4227816
4485417
4693668
4849626
4951872
5001370
4999750
4947121
4842086
4683883
4473899
4215039
3911953
3574561
3209959
2814527
2394233
1965163
1535434
1088181
746323.5
368249.2
278861.1
578049.6
949150.8
1395893
1843364
2275978
2733825
3176493
3589545
3975604
4330395
4645991
4915112
5132929
5297168
5406321
5460168
5458526
5401518
5289587
5123143
4903608
4633175
4316593
3961181
3574954
3162274
2720538
2264081
1833048
1387358
942956.9
573435
277310.1
378972.2
752486.9
1106583
1631533
2094663
2564571
3038964
3494838
3927744
4331492
4699212
5025130
5304231
5532051
5706064
5823333
5881877
5880356
5818874
5699038
5522985
5293541
5013130
4686112
4317511
3913209
3480284
3024997
2551713
2083235
1622092
1099446
744274.2
376554.6
448653.9
854369.1
1342728
1834129
2326840
2821459
3308660
3781371
4231151
4647958
5025952
5361438
5651192
5889609
6072399
6195849
6257604
6256306
6192053
6066481
5881946
5642084
5351099
5014516
4635526
4217778
3767459
3294846
2808306
2314745
1823810
1334485
848608.7
446074
274225.9
570405.5
953795.9
1500027
2005846
2521517
3034737
3536469
4026282
4489901
4917961
5305874
5651991
5952099
6199012
6387643
6514680
6578221
6577286
6511908
6383200
6193123
5945005
5643830
5296707
4907656
4478173
4013357
3523108
3021550
2508885
1994507
1490717
947445.7
566114
273688.1
333217.8
648767.3
1053383
1632924
2147355
2678569
3203673
3721867
4225455
4699646
5136997
5534785
5891378
6199875
6452448
6644328
6773024
6837303
6836641
6771053
6641116
6448056
6194307
5884653
5526907
5127840
4688759
4213055
3708735
3190357
2665384
2134946
1622163
1046085
644710.9
332476.5
376238
764691.5
1140238
1730781
2268006
2803448
3332781
3861586
4374760
4857473
5302969
5710255
6075493
6389752
6645614
6839095
6968281
7032573
7031847
6966192
6835894
6641585
6384871
6069695
5703430
5294762
4847450
4363107
3849020
3319721
2790131
2254926
1718788
1131039
755761.5
375254.3
403824.9
805687.4
1289083
1810900
2351181
2887799
3419344
3954049
4473203
4961907
5414313
5829477
6200629
6518459
6776324
6970487
7099664
7163684
7162664
7096828
6966400
6771704
6513753
6195582
5823627
5407090
4952886
4462578
3942436
3407064
2875046
2338374
1798847
1279033
799243.6
402174.4
413649.1
821337.9
1335010
1850165
2391889
2929678
3462541
3999980
4522034
5013718
5470668
5890421
6264495
6583829
6842308
7036818
7166163
7230160
7229000
7162991
7032408
6837528
6579135
6259750
5885103
5464152
5005606
4512484
3989460
3451315
2917950
2380087
1839064
1325633
815175.8
411447.6
413541.4
821293.1
1334928
1850211
2391989
2929820
3462704
4000189
4522393
5014373
5471624
5891547
6265679
6584996
6843413
7037894
7167275
7231365
7230309
7164377
7033832
6838965
6580592
6261246
5886646
5465719
5007141
4513926
3990787
3452588
2919248
2381401
1840312
1326662
815770.3
411233.7
403904.1
805600
1288900
1810876
2351368
2888174
3419819
3954668
4474254
4963799
5417043
5832676
6204016
6521889
6779629
6973816
7103176
7167433
7166630
7100950
6970640
6776086
6518329
6200367
5828557
5412019
4957616
4466950
3946404
3410792
2878748
2342013
1802231
1281768
800599.2
401478.3
376359.6
761584.3
1140195
1730729
2268234
2803993
3333558
3862614
4376439
4860380
5307091
5715052
6080650
6395219
6651286
6844829
6974178
7038755
7038376
6973108
6843254
6649458
6393256
6078448
5712276
5303381
4855526
4370428
3855537
3325633
2795712
2260073
1723275
1134380
759878.9
373990.7
333355.8
649156.6
1054088
1633135
2147749
2679273
3204754
3723306
4227678
4703260
5142026
5540613
5897776
6206705
6459654
6651916
6781085
6846004
6846124
6781413
6652372
6460134
6206988
5897555
5539598
5139939
4699922
4223041
3717482
3197989
2672164
2140647
1626498
1048617
645542
331297.5
274673.4
568753.5
954174.2
1500569
2006525
2522407
3036095
3538282
4028934
4493901
4923371
5312296
5659221
5960084
6207819
6397392
6525518
6590295
6590733
6526765
6399270
6210063
5962279
5660866
5312989
4922830
4491958
4025555
3533658
3030464
2516389
2000309
1494651
949447.3
565027.5
272817.5
448961.2
854465.2
1343326
1835201
2327995
2823056
3310880
3784501
4235535
4653831
5033231
5370039
5661113
5900942
6085267
6210369
6273838
6274291
6211672
6087277
5903436
5663703
5372226
5034582
4654008
4234341
3781920
3307174
2818438
2322927
1829760
1338488
851031.8
446635
379114.4
749684.7
1106937
1632735
2096054
2566350
3041546
3498464
3932704
4338050
4707584
5035323
5316244
5545949
5721913
5841178
5901668
5901968
5842051
5723291
5547728
5318158
5036966
4708572
4338072
3931598
3496239
3038466
2562555
2091793
1628117
1103411
749870.9
377421.4
279311.7
577084.3
950149.1
1396962
1845075
2278006
2736801
3180582
3595068
3982905
4339758
4657500
4928802
5148836
5315273
5426544
5482356
5482485
5426925
5315904
5149723
4929790
4658289
4340034
3982439
3593763
3178460
2734052
2274764
1841357
1393403
946908.4
573566.2
277827.9
371265.5
751353.9
1096205
1546040
1978410
2409638
2832077
3229775
3596397
3935560
4240124
4500086
4710690
4868910
4973244
5024594
5024604
4973279
4868989
4710863
4500261
4240106
3935102
3595383
3228158
2829863
2406961
1975398
1543171
1093750
748673.7
369306.6
474026.4
869299.2
1187575
1643667
2052778
2453068
2833062
3182778
3501961
3789353
4035124
4234916
4384517
4482920
4531476
4531447
4482841
4384384
4234762
4034885
3788900
3501067
3181419
2831331
2451000
2050509
1641253
1185535
869662.7
472358.6
307281.9
591843.3
934889.6
1236662
1677232
2053335
2411051
2739348
3045152
3315473
3543889
3729706
3869645
3962128
4007927
4007916
3962134
3869640
3729661
3543701
3315020
3044251
2738041
2409547
2051615
1675398
1235054
936308.7
589522.3
306530.7
332710.6
616947.2
953379.1
1237249
1644507
1979901
2280549
2569685
2827076
3040797
3210011
3339300
3425950
3469139
3469166
3426111
3339537
3210275
3040979
2826996
2569189
2279667
1978953
1643312
1235981
955442.2
614601.7
332149.4
339208.6
617316.2
935306.9
1188071
1547289
1847010
2098643
2331209
2526185
2683481
2808572
2893059
2934933
2935005
2893360
2809058
2684104
2526859
2331755
2098946
1846986
1547042
1187519
937696.5
614988
338748.7
332872.6
592761.2
870079.9
1096840
1398272
1634612
1837512
2009286
2150945
2271811
2355164
2395943
2396073
2355653
2272635
2152041
2010526
1838528
1635203
1398822
1097418
872716.4
590576.5
332481.1
307384.4
474072.5
752293.4
950689.4
1108302
1344970
1502373
1635367
1733455
1813790
1853288
1853412
1814362
1734476
1636833
1503726
1345826
1108645
951724.3
752671
474278.1
307205.3
371033.2
578028.7
750062.1
855551.3
955015.7
1055089
1141976
1291034
1337233
1337348
1291517
1142668
1055985
955913.2
856342.8
754471.8
577018.2
371640.4
279259.3
379381.9
449195.8
570338.1
649937.6
762634.4
806862.9
822653.5
822641.1
807198.9
766331.4
650438.4
569102.2
449504.7
379786.3
279688.1
274620
333545.9
376608.4
404279.2
414115
414026.6
404425.9
376886.4
333831.6
274691
237400.1
289497.5
320079
351742.4
373828.1
376628.3
367851.3
337830.2
291606
240231.3
247663.4
348418.8
436302.3
610787.4
692632.4
745234.6
776304.8
789911.7
789853.8
776319.7
748100.6
695388.9
606893
436404.5
348098.8
247173.8
249369.9
388301
628611.2
767829.7
892419.6
1016123
1205309
1315347
1371234
1396697
1395778
1368693
1312291
1202313
1013417
890058.2
765270.6
621342.4
387131.5
248761.8
316548.6
550600.3
812699.7
1013065
1281977
1466967
1623312
1767603
1878742
1963938
2005273
2004116
1960645
1873886
1761790
1617574
1461880
1276822
1008617
806947.3
546777.9
315408.1
367749.8
704697.2
954945.3
1191664
1540271
1804139
2033550
2222662
2378877
2499069
2586732
2631099
2629836
2583086
2493432
2371727
2214773
2025702
1796496
1532672
1185102
950157.9
693635.5
365973.8
391810.8
778254.6
1067104
1444537
1757021
2078826
2365428
2615231
2825199
2996022
3129999
3223289
3270201
3268861
3219371
3123719
2987656
2815305
2604752
2354948
2068672
1747705
1436694
1061472
766371.2
389744.4
391810.4
796206
1114492
1536584
1910190
2274785
2618579
2926127
3198433
3428712
3615141
3758916
3856936
3905889
3904416
3852605
3751878
3605566
3417171
3185941
2913473
2606317
2263504
1900224
1528088
1108096
783630.8
389087.8
367624.1
778199.4
1115245
1564973
1976358
2391444
2785957
3149816
3482494
3777076
4025880
4226238
4378425
4480861
4531725
4530084
4476038
4370563
4215571
4013046
3763106
3468299