/*--------------------------------*- C++ -*----------------------------------*\
  =========                 |
  \\      /  F ield         | OpenFOAM: The Open Source CFD Toolbox
   \\    /   O peration     | Website:  https://openfoam.org
    \\  /    A nd           | Version:  6
     \\/     M anipulation  |
\*---------------------------------------------------------------------------*/
FoamFile
{
    version     2.0;
    format      ascii;
    class       volScalarField;
    location    "50";
    object      volPowerFuel;
}
// * * * * * * * * * * * * * * * * * * * * * * * * * * * * * * * * * * * * * //

dimensions      [1 -1 -3 0 0 0 0];

internalField   nonuniform List<scalar> 
203709
(
533136.4
586581
586496.3
533224.6
557231.8
623817.6
772358.6
764205.2
764094.3
770708.6
623671.9
557179.2
544461.7
626068.8
782457.9
780199.4
802377.9
807897
807849.7
802282.2
780030.8
780759.9
625933.7
544354.6
544542.1
760630.5
776829.1
807292.5
823111.5
837025.7
843174.3
843177.7
836929.7
822952.9
807156.4
776690
759226.7
544457.3
626139.3
776855.9
811938.1
836826
855668.5
869279.8
876043.7
876047.6
869183
855535.1
836697.4
811778.2
776688.5
625987.1
557380.5
782567
807382
836861.3
862499.3
882727.6
896753
903698.9
903686.9
896701.1
882653.9
862351.9
836678.6
807199.8
781384.6
557211.9
623935.4
780307.7
823224.5
855747
882813.9
903833.8
917807.5
924393.5
924370.2
917764.7
903712.7
882643.8
855610.5
823094.9
780157.4
623812.2
533532.2
772662.7
802637.8
837261.2
869523.1
896993.2
917991.7
930990.2
937388.8
937326
930837.9
917734.6
896753.4
869343.6
837119.6
802519.6
771657.5
533271.5
586865.3
764491.4
808173.5
843506.3
876361.6
903990.5
924689.2
937568
944540.7
944269.3
937346.3
924441.1
903775.9
876161.7
843338.3
808090.6
764391.1
586689.2
586968.7
764695.8
808287.7
843535.4
876387.2
904027.7
924695.2
937592.7
944739.3
944466
937410.8
924475
903780.9
876191.6
843370.6
808131.4
764525
586830.6
533494.6
771413.7
802840.5
837425.1
869659.9
897093.5
918080.7
931128.5
937597.3
937487.9
930983.5
917893.8
896860.5
869434.4
837211
802628.1
770090.1
533403
624112
780577.5
823522.1
856056.9
883061.2
904062.2
918046.8
924702.5
924602.4
917984.3
903917.9
882864.9
855808.4
823258.8
780361.5
623978.8
557590.3
781388.9
807700.3
837193
862796
883038
897028.9
904071.7
904017.9
897046.8
882984.1
862708.7
837053.4
807533.9
780049.4
557418.5
626419.3
777179.2
812283.4
837190.3
856045.5
869712.8
876888.2
876862.9
869694.4
856026
837150.6
812231
777154.1
626332.6
544846.2
759800.6
777243.1
807761.7
823575
837561.1
844085.8
844080.7
837545.8
823558.1
807705
777167
758352.7
544653.6
544918
626530
782055.3
780713.3
803048.3
808798.7
808852.3
803031.4
780731.5
780338.1
626363.7
544724.5
557739.3
624304.5
772257.1
765319.5
765418.1
770584.5
624271.9
557620.8
533793.8
587235.7
587276
533768.5
446658.3
507727.4
528408.5
542598.7
551465
551451.1
542558.1
528327.7
507618.1
446580.2
455642.3
530942.4
676346.4
698415.8
723613.6
751367.8
773325.6
773305.7
751341.5
723434.3
698039
674386.7
530459.1
455220
466427.2
665290.9
702655.4
756684.9
807957.7
850624.5
905746
951193.1
951146.2
905634.7
850247.5
807404.2
756151.7
702092.3
663477.6
466143.7
471092.3
677822.5
738727.8
805236.9
874178.8
972360.8
1093955
1214910
1258248
1258145
1210273
1093457
971874.8
873728.4
804755.8
738240.1
676083
470828.9
466501.5
677801.8
746248.7
824158.2
953654.4
1109774
1277854
1401399
1493352
1642638
1642480
1493012
1400875
1272700
1109204
953060.9
823698.2
745735.5
676111.3
466221.8
455868
665648.9
738854.9
824237.7
1001484
1238220
1400756
1534470
1749559
1845858
1902647
1902496
1845426
1748927
1533796
1400040
1233028
1000862
823679.5
738367.7
664102
455586.3
531108.8
702854
805382.7
953744.5
1238246
1465404
1723684
1866699
1978425
2047406
2082504
2082384
2047038
1977919
1866100
1723011
1464786
1233179
953296.2
805069.5
702579.6
530853
447163.1
676747.4
756886.7
874400.8
1109909
1401034
1723820
1917930
2043200
2129852
2184885
2212029
2211956
2184646
2129521
2042800
1917472
1723379
1400691
1109690
874206.8
756614.9
675372.9
446732
508320.2
699095.5
808295.5
972790
1278398
1534964
1867040
2043380
2157084
2233814
2282322
2305953
2305907
2282174
2233585
2156759
2042973
1866582
1534529
1273368
972338
807945
698513.9
507792.9
529045.3
724470.4
851152.6
1094396
1402187
1750254
1979015
2130329
2234169
2305438
2350584
2372592
2372497
2350329
2305053
2233760
2129945
1978637
1749815
1401583
1094163
850872.6
723851.9
528518.1
543248.6
752355.5
906708.3
1215933
1494418
1846866
2048306
2185754
2283219
2351219
2394287
2415247
2414994
2393663
2350388
2282446
2185250
2047995
1846590
1494051
1211217
906248.7
751796.2
542831.2
552076.5
774244.7
952194.9
1259546
1644045
1903962
2083726
2213196
2307125
2373654
2415868
2436522
2436120
2415064
2372676
2306243
2212580
2083380
1903768
1643835
1259303
951900.5
773884.2
551773.1
551998.4
774118.7
952088.5
1259540
1644215
1904190
2083948
2213388
2307279
2373778
2416024
2436789
2436408
2415298
2372879
2306415
2212739
2083549
1903975
1644049
1259338
951866.1
773858.7
551760.9
543062.3
752212.8
906841.8
1211959
1494779
1847452
2048959
2186368
2283708
2351674
2394818
2415908
2415661
2394287
2350975
2282995
2185795
2048587
1847254
1494693
1216094
906643.9
752042.4
542885.2
528921.9
724491.2
851571.9
1095017
1402770
1751118
1980028
2131383
2235166
2306370
2351544
2373642
2373514
2351319
2306037
2234790
2131058
1979819
1751014
1402742
1094754
851297.9
724383.8
528791.7
508298.4
699260.3
808820.1
973296.8
1274789
1535998
1868275
2044658
2158327
2235051
2283597
2307335
2307342
2283725
2235213
2158475
2044775
1868344
1535924
1279103
973217.4
808582
699165.5
508178.7
447190.4
675617.2
757428
874931
1110811
1402087
1725076
1919260
2044607
2131380
2186602
2213892
2213993
2186943
2131894
2045188
1919807
1725464
1402135
1110715
874911.8
757233.4
674521.1
447099.2
531496.4
703312.3
805865.2
954429.9
1234812
1466612
1725185
1868464
1980449
2049743
2084981
2085101
2050089
1980976
1869075
1725811
1467080
1239441
954451.2
805943.5
703174.3
531210.9
456215.7
664674.6
739347.9
824881.8
1002400
1234956
1402490
1536561
1752030
1848743
1905740
1905861
1848968
1752320
1536786
1402765
1239768
1002480
824880.9
739407.3
663442.6
455853.5
466931.6
677359.6
747052.3
824975.5
954662
1111215
1275394
1403865
1496134
1645786
1645898
1496243
1403877
1279890
1111263
954709.9
824962.4
746995
676108.2
466739.3
471610.1
677413.3
739561.1
806279.6
875406
973693
1095715
1212987
1260912
1260932
1217286
1095619
973728.6
875288.9
806139.6
739462.3
676080.8
471513.3
466828.9
665142.3
703609.7
757709.8
809108.9
852110.8
907583.9
953115.6
953089.4
907476.1
851887.1
809030.8
757709
703551.7
663642.3
466759.1
456277.3
531627.4
676513.9
699733.6
725102
752932.1
774932.6
774920.5
752863.2
724940.4
699552.5
674987.8
531643.9
456223.7
447346.7
508543.6
529245.1
543451.9
552381.7
552366.5
543514.9
529300.8
508555.5
447294.9
378466.9
429154.7
441856.2
446735.8
446618.6
441504.1
428529
377923.7
378087
453511.7
496644.2
625691
649091.4
662785.6
669009.1
668876
662362
648390.3
623606.4
496258.3
453159
377954.3
417019.6
606751.1
664834.9
733144.9
807858.9
842548.5
863867.4
873855.9
873718.6
863447.7
841849.4
806995.2
732396.2
664133.6
604774.5
416898.1
390811.3
485792.5
652693.7
775957.6
909003.3
1058201
1134061
1178252
1207658
1222872
1222679
1207079
1177298
1132790
1052853
907820.2
775098
650431.7
485385.9
390464.6
394542.2
595014.6
690892.2
859601.1
1077927
1232582
1361915
1566024
1661336
1717440
1745298
1745057
1716744
1660239
1564658
1360629
1231225
1072392
858396.5
690188.9
593027.8
394181.1
390865.8
595189.4
713523.1
894585.4
1156989
1350161
1612947
1782889
1930315
2039785
2113988
2150904
2150618
2113191
2038439
1928545
1780921
1610844
1348219
1151603
893457.9
712502.6
593275.1
390440.6
486112
691227.1
894798.8
1175717
1395981
1705634
1932672
2117700
2275746
2403475
2494521
2531817
2531469
2493487
2401870
2273778
2115537
1930358
1703339
1393932
1170244
893459.3
690287.3
485523.2
417606
653044.2
859907.5
1157555
1396152
1733701
2002802
2239051
2442939
2615187
2743715
2835059
2887640
2887267
2833977
2742045
2613115
2440615
2236590
2000409
1731407
1394225
1152178
858719.8
651097.5
417013.5
378407.8
607267.7
776535.4
1078595
1351169
1706421
2003174
2282640
2536991
2744346
2915265
3057786
3157979
3212062
3211719
3156981
3056255
2913366
2742166
2534694
2280369
2000923
1704281
1349322
1072690
775629
605534.4
377886.5
454051.2
665562.4
909731.9
1233930
1614285
1933770
2239611
2537176
2791299
3015775
3197358
3338448
3433223
3481542
3481261
3432423
3337270
3195904
3014130
2789597
2535496
2237918
1932076
1612556
1232208
908801.2
664873.9
453499.8
497217.4
733869.5
1059019
1363786
1784607
2119031
2443686
2744808
3016018
3248946
3429926
3563442
3651345
3695161
3694991
3650854
3562713
3429035
3247967
3015034
2743840
2442620
2117749
1783070
1362146
1054129
733273.9
496705.1
378894.4
626540.6
808580.4
1135246
1568260
1932465
2277410
2616415
2916171
3197972
3430253
3606844
3734224
3817039
3857892
3857790
3816741
3733781
3606286
3429596
3197234
2915352
2615471
2276182
1930909
1566550
1134348
807955.4
624951.7
378408.9
429432.4
649749
843533.5
1179874
1663937
2042421
2405553
2745408
3059150
3339545
3564282
3734796
3857374
3936697
3975682
3975500
3936203
3856702
3734160
3563721
3339037
3058611
2744730
2404669
2041036
1662370
1178876
842785.8
649111.6
429005.1
442317.3
663595
865061.8
1209657
1720452
2117227
2497358
2837405
3159926
3434876
3652842
3818522
3937739
4014785
4052488
4052080
4013721
3936353
3817271
3652095
3434521
3159698
2837050
2496674
2116014
1719106
1208679
864354.2
662989.1
441828
447405.9
670094.7
875304.2
1225186
1748662
2154588
2535336
2890735
3214713
3483828
3697211
3859886
3977464
4053532
4090715
4090180
4052207
3975813
3858421
3696277
3483419
3214560
2890515
2534795
2153643
1747554
1224300
874619.4
669459.9
446914.9
447462
670156.4
875349.8
1225247
1748704
2154698
2535604
2891131
3215170
3484280
3697604
3860199
3977742
4053837
4091092
4090602
4052630
3976218
3858800
3696641
3483796
3214971
2890924
2535140
2153954
1747821
1224464
874733.1
669570.8
447016
442523
663849.5
865252.1
1209862
1720600
2117680
2498288
2838562
3161218
3436197
3654067
3819530
3938690
4015829
4053664
4053310
4014934
3937529
3818430
3653291
3435805
3161070
2838416
2497910
2117138
1719924
1209091
864670.2
663307.7
442113.9
429815.4
650160.7
843866.6
1180286
1664225
2043186
2406998
2747188
3061096
3341596
3566357
3736790
3859235
3938555
3977603
3977452
3938191
3858756
3736344
3566088
3341562
3061190
2747218
2406792
2042862
1663743
1179437
843273.5
649650.3
429432.5
379324.2
625369.4
809176.8
1135994
1568674
1933432
2278960
2618501
2918525
3200503
3432818
3609361
3736702
3819550
3860528
3860619
3819846
3737148
3609896
3433395
3201073
2919027
2618885
2279206
1933383
1568447
1135078
808595.2
624140.7
378972.6
497569.8
734471.1
1056073
1364171
1785661
2120499
2445779
2747269
3018676
3251726
3432854
3566587
3654780
3698888
3699146
3655540
3567739
3434232
3253144
3019943
2748273
2446615
2121119
1785806
1364253
1059091
733916.8
497250.2
454242
666015.1
910539.6
1234587
1615407
1935109
2241486
2539599
2794122
3019039
3201121
3342726
3438030
3486767
3487037
3438808
3343920
3202604
3020670
2795695
2540945
2242618
1935871
1615587
1234706
909995.9
665676.4
454106.1
378455.5
606447.4
777295
1075129
1352278
1707836
2005158
2285314
2540327
2748389
2920052
3063226
3164064
3218634
3218827
3164567
3063970
2920990
2749522
2541498
2286391
2006058
1708390
1352218
1079520
776853.7
605144.5
378528.8
417634.5
652154.9
860727.7
1154915
1397731
1735881
2005726
2242719
2447424
2620582
2749836
2841823
2894876
2894977
2842031
2750103
2620958
2448000
2243363
2006349
1736402
1398050
1158654
860633.2
650840.3
417582.7
486406.1
691849.4
895707.3
1173442
1397886
1708655
1936577
2122398
2281147
2409635
2501434
2539167
2539152
2501362
2409569
2281193
2122489
1936742
1708875
1398104
1177213
895637.7
691652.4
486254.4
391267.4
594501.9
714306.5
895748.7
1155421
1353019
1616554
1787320
1935487
2045612
2120374
2157578
2157503
2120219
2045348
1935232
1787194
1616615
1353048
1159014
895713.3
714202.5
593284.2
391124.4
394858.1
594792.3
692049.9
860900.2
1075548
1235178
1365440
1570288
1666026
1722507
1750564
1750466
1722427
1665930
1570138
1365237
1235292
1079964
860947.1
691962.3
593411.5
394793.1
391308
486632
652617.7
777441.5
910706
1056322
1136485
1180850
1210579
1226523
1226341
1210756
1181114
1136705
1060580
910825.1
777420.8
651150.1
486480.9
391264.4
417756.5
606862.3
666173.3
734636.1
809361.8
844087.1
865563.9
875930.1
875743
865607.1
844116
809349.7
734529.6
665996.9
605514.7
417668.2
378512
454367.2
497599.2
626268.1
650216.7
663965
670668.9
670587.1
663886.8
650075.2
624581.5
497484.6
454190.3
378595.6
379252.8
429737.7
442470.6
447613.5
447562
442380.5
429571.3
378934.2
335852.8
378528.7
388060.5
387934.9
378142.1
335546.6
322831.8
401421.8
449181.3
503587.3
625600.1
652061.3
662226.6
661935.7
651287.5
622782.4
503198.1
448879
401051
322667.8
325467.7
421415
585391.9
684935.4
772396.6
897939.7
967356.6
996181.2
1010206
1009799
995096
966102.2
893770.6
771405
683746.3
582760.7
421059.6
325382.1
364143.3
565545.3
707863.5
908921.1
1025979
1141966
1245940
1418805
1485377
1511890
1511449
1484141
1417063
1244104
1139885
1023955
903007.8
706862.8
563405.1
364025.1
390214.6
628315
817184.6
1045233
1226111
1475066
1636601
1760658
1864426
1928132
1957445
1956983
1926796
1862378
1758170
1633951
1472499
1223837
1039627
815951.6
625747
389908.6
404739.7
679574.5
941440.6
1143152
1342474
1668421
1902280
2086969
2218083
2317546
2382022
2413191
2412703
2380593
2315280
2215168
2083655
1898974
1665536
1340182
1140929
935978.1
676793.8
404267.7
390378.7
679713.4
983414.6
1217450
1548021
1821568
2095327
2323846
2513767
2673900
2791561
2866588
2902942
2902420
2865068
2789167
2670839
2510282
2320163
2091723
1818220
1545149
1215215
978343.1
676972.3
389914.5
364435.6
628521.5
941934.1
1217609
1588468
1913640
2215859
2483258
2733628
2946164
3120816
3250038
3333736
3374422
3373853
3332090
3247403
3117406
2942250
2729429
2479028
2211819
1910067
1585483
1215458
936468.9
626396.4
363979
325769.7
565846.1
817932.5
1143697
1548666
1914123
2257600
2563172
2859368
3128646
3355959
3540625
3679981
3771168
3814265
3813625
3769311
3677086
3536966
3351791
3124156
2854746
2558610
2253252
1910366
1545662
1141611
816735.7
564092.6
325322.9
421859.2
708698.1
1045742
1343866
1822821
2217024
2563862
2900440
3215783
3496744
3735770
3929195
4075628
4174047
4224024
4223366
4172139
4072678
3925499
3731566
3492227
3211111
2895725
2559269
2212745
1819224
1341276
1040585
707668.8
421383.6
323330.3
585887.9
909414.7
1227343
1670463
2097380
2485269
2860877
3216512
3542831
3832576
4079811
4281925
4439306
4547243
4602565
4601968
4545514
4436647
4278609
4076040
3828532
3538596
3212107
2856403
2480940
2093465
1667312
1224850
904041.7
584238.4
323126.5
401708.2
685511.1
1026880
1477247
1904907
2326790
2736458
3130848
3497977
3833034
4130107
4389002
4602440
4767212
4878954
4935463
4934982
4877602
4765192
4599958
4386217
4127142
3829924
3494666
3127243
2732631
2323039
1901720
1474435
1025149
684550
401332.1
449805.1
773484.2
1143738
1639583
2090255
2517612
2949801
3358706
3737399
4080663
4389387
4658859
4878835
5045709
5157557
5213615
5213338
5156763
5044517
4877397
4657310
4387790
4078960
3735339
3355998
2946430
2514026
2087059
1636544
1141478
771964.7
448993.4
504504.5
900006.7
1248766
1764351
2222221
2678585
3125279
3544029
3931406
4283341
4603338
4879295
5101682
5268202
5378815
5433930
5433772
5378375
5267570
5100932
4878457
4602394
4282205
3929881
3541708
3122101
2675086
2218947
1761136
1245954
894149
503276.5
336544.5
626672.7
969779.1
1422325
1868739
2322490
2797061
3255372
3684239
4078648
4441445
4768809
5046853
5268927
5434085
5543144
5597229
5596971
5542456
5433202
5268144
5046232
4768296
4440881
4077701
3682451
3252624
2793912
2319361
1865532
1419159
967052.5
624400.2
335651.9
379018.9
653334.6
998666.9
1489217
1932921
2387662
2872880
3340006
3776525
4178155
4550329
4881381
5159598
5380751
5544523
5652255
5705444
5704905
5650828
5542672
5379151
5158755
4881116
4550226
4177694
3775208
3337767
2870232
2384924
1930088
1486341
996213
651734.4
378329.1
388771.4
663770.4
1012840
1516113
1962765
2419465
2909962
3381576
3820773
4229405
4606825
4938878
5216469
5436593
5599626
5706869
5759716
5759031
5705094
5597411
5434695
5215382
4938546
4606801
4229114
3819756
3379810
2907820
2417205
1960421
1513773
1010978
662471.8
388135.5
388801.1
663880.9
1013094
1516271
1962905
2419579
2910080
3381805
3821236
4230068
4607555
4939578
5217072
5437068
5600055
5707333
5760252
5759630
5705720
5598032
5435296
5215976
4939159
4607453
4229790
3820425
3380456
2908417
2417770
1961024
1514384
1011504
662815
388299.2
379273.7
653566.6
998916.6
1489510
1933284
2387995
2873224
3340688
3777883
4180048
4552412
4883429
5161481
5382336
5546025
5653872
5707195
5706735
5652673
5544504
5380999
5160681
4883171
4552403
4179909
3777353
3339779
2872016
2386558
1931812
1488045
997670.4
652726.5
378833.1
336902.8
624777.4
969760
1422614
1869228
2323054
2797630
3256437
3686286
4081479
4444582
4772018
5050065
5272037
5437013
5546009
5600134
5599951
5545545
5436452
5271627
5049999
4772307
4445001
4081748
3686223
3256039
2796874
2321929
1868135
1421575
968968
623595.6
336571.9
504665.4
896620.9
1249118
1764971
2223067
2679391
3126639
3546415
3934724
4287117
4607349
4883352
5105675
5272129
5382767
5438062
5438226
5383255
5272895
5106670
4884505
4608561
4288269
3935663
3547016
3126801
2679113
2222244
1764254
1248461
899434.5
504269.1
449969.3
773790.6
1144258
1640193
2091313
2518626
2951372
3361148
3740770
4084646
4393725
4663426
4883644
5050848
5163139
5219735
5220135
5164294
5052618
4885827
4665768
4395965
4086614
3742409
3362331
2951981
2518787
2090796
1639845
1143755
773319.8
449558.1
402163.4
686162.7
1027762
1477886
1905992
2328105
2738256
3133279
3501280
3837162
4134949
4394540
4608720
4774286
4886859
4944179
4944569
4887990
4776049
4610966
4397059
4137482
3839488
3503244
3134689
2739025
2328480
1905841
1477844
1027155
685576.8
401686.3
323711.7
584734.2
906569.6
1227942
1671348
2098875
2487349
2863664
3220255
3547648
3838456
4086743
4289933
4448364
4557312
4613529
4613756
4557968
4449405
4291327
4088413
3840219
3549333
3221688
2864677
2487913
2099304
1671502
1228121
909693.3
583402.7
323369.2
422175.9
709119.8
1043302
1344368
1824360
2219198
2566911
2904592
3221206
3503469
3743780
3938481
4086085
4185541
4236357
4236404
4185672
4086335
3938940
3744484
3504317
3222082
2905369
2567508
2219638
1824677
1344736
1046578
708883.2
421942.5
325885.6
565021.8
818601.5
1145082
1550432
1916410
2260801
2567557
2865154
3135867
3364558
3550497
3691004
3783170
3826977
3826875
3782891
3690646
3550216
3364431
3135898
2865271
2567692
2260894
1916406
1550287
1144803
818339.1
563901.9
325930.7
364581.5
627629.5
939301.7
1218997
1590522
1916760
2220245
2489009
2740695
2954602
3130487
3260729
3345236
3386455
3386277
3344773
3260059
3129768
2953987
2740245
2488584
2219881
1916543
1590381
1218935
942638.8
626030.9
364611.5
390621.1
678676
981673.4
1219032
1550938
1825444
2100394
2330078
2521280
2682492
2800999
2876704
2913516
2913315
2876265
2800379
2681766
2520563
2329498
2099763
1824845
1550577
1218844
984704.6
676722.7
390549.6
405017.5
678796.7
939676.3
1145625
1345647
1672737
1907495
2093115
2225127
2325303
2390397
2422134
2421895
2390039
2324822
2224571
2092605
1906954
1672048
1344849
1145283
943267.4
676893.5
404969.3
390542.1
627971.6
819138.7
1043850
1228642
1478905
1641464
1766431
1870822
1934968
1964567
1964309
1934521
1870213
1765776
1641004
1478678
1228677
1047165
818825.5
626357.9
390532.4
364532.2
565456.3
709526.6
906918.4
1028073
1144777
1249950
1423616
1490515
1517189
1517018
1490219
1423248
1249570
1144872
1028484
910889.9
709183.5
564048.7
364490.3
325790.3
422175.9
585523.4
686010.7
773942.7
897122.5
970362.5
999343.7
1013472
1013280
999215.4
970389.3
900735.7
774357.1
686368.7
583846.3
422046.2
325821.9
323682
401863
449846.2
504653.2
626231.9
653619.3
663976.1
663895.7
653583.8
624348.3
504786.4
450119.7
402085.3
323346.5
336829.1
379125.5
388746.5
388676.3
379050.1
336572.4
278976.6
338677.3
382393.8
410628.8
420630.9
420904.6
411419.7
383822.7
339956.7
279514.3
283907.9
385400.8
456391.1
579694.2
660002
777477.2
818695.2
834593.8
834127.1
817847.6
773613.8
659457
577916.7
455921.6
385209.3
283717.2
377453.6
588242.1
765807
869126
970581.9
1072231
1159551
1310870
1357474
1356864
1309418
1157754
1069839
968557.5
867901.6
761813.6
585656.6
376695.4
312553.6
482154.8
772154.1
967159.3
1126446
1367748
1528338
1663433
1762349
1843613
1883303
1882598
1841753
1759800
1660398
1525181
1364957
1124531
964782
761788.6
481130.3
312186.9
338517.7
604119.7
887756.7
1116855
1423530
1663976
1870881
2045822
2189469
2311952
2396382
2437431
2436716
2394396
2309001
2185821
2041662
1866680
1660034
1420122
1114003
882132
601311.2
338109.2
345185.2
629565.9
955046
1210192
1576253
1881939
2138654
2375744
2574261
2734008
2860941
2946565
2988709
2987974
2944466
2857693
2729858
2569468
2370781
2133834
1877473
1572719
1207362
949307.2
626946.7
344670.6
338740.3
629778.4
973939.1
1260294
1676090
2018537
2325526
2620793
2883525
3101373
3273472
3404773
3492592
3536009
3535241
3490379
3401276
3268917
3096053
2877969
2615457
2320654
2014262
1672679
1257758
968180.7
627111.6
338215.8
312729.6
604389.1
955329.2
1260733
1710349
2094851
2460439
2796034
3108541
3384614
3617550
3806765
3949066
4042898
4089009
4088184
4040519
3945305
3801885
3611888
3378634
3102666
2790588
2455656
2090827
1706878
1258181
949900.5
602142.9
312322.2
482203.4
888144.4
1210556
1676769
2095297
2504978
2893777
3251645
3578056
3871743
4122586
4326232
4478493
4578393
4627291
4626377
4575740
4474358
4320960
4116541
3865319
3571611
3245540
2888324
2500308
2091329
1673411
1208082
883413.6
481531.4
376997.2
772600.8
1117403
1577346
2019564
2461419
2894478
3302004
3677568
4024763
4336255
4601887
4816821
4978017
5083981
5135648
5134665
5081132
4973608
4811279
4595578
4329494
4017815
3670756
3295657
2888882
2456673
2015649
1574164
1114940
764227.6
376884.9
283727
588688.7
967667.7
1424805
1883402
2327442
2797904
3253237
3678522
4076298
4442024
4767487
5045187
5270147
5440002
5553160
5609349
5608353
5550283
5435584
5264657
5038968
4760781
4434997
4069177
3671604
3246836
2792292
2322794
1879744
1421963
965850.2
586975
283693.3
385713
766690.9
1128643
1666117
2141137
2623779
3111576
3580841
4026877
4443137
4822411
5158725
5446913
5682351
5862396
5983988
6045036
6044144
5981418
5858480
5677525
5441465
5152811
4816076
4436466
4020100
3574308
3105601
2618575
2136772
1662871
1126298
761988
385278.8
456774.7
870778.9
1370258
1873747
2379409
2887703
3388967
3875855
4339551
4769479
5159481
5505862
5805241
6051780
6240990
6369003
6433365
6432664
6367054
6238094
6048275
5801334
5501621
5154889
4764422
4333987
3870058
3383318
2882473
2374716
1870030
1367460
868922.8
456469.4
278987.7
580860.2
972390.1
1531314
2049830
2579295
3106930
3623375
4128096
4606272
5047856
5448254
5805802
6116066
6371543
6566897
6698663
6764862
6764494
6697609
6565330
6369696
6114097
5803715
5445850
5044745
4602039
4123055
3618065
3101683
2574202
2045336
1527807
970259
579376.4
279944
339060.9
660868.3
1074224
1667435
2195006
2740617
3280650
3814200
4333255
4822429
5273702
5684445
6053003
6372133
6633633
6832465
6966003
7032953
7032765
6965490
6831758
6632850
6371285
6052000
5683077
5271566
4818887
4328609
3809058
3275292
2735072
2189614
1662748
1071441
659949.2
340125
382914.4
779146.1
1163027
1767704
2318815
2868921
3413443
3958028
4487046
4985058
5444845
5865506
6243115
6568306
6833288
7033779
7167839
7234773
7234471
7167043
7032830
6832525
6567802
6242749
5864989
5443524
4982301
4483071
3953419
3408374
2863353
2312936
1762007
1158617
773761.6
383969.2
411040.8
821009.8
1315267
1849797
2404184
2955606
3502493
4053215
4588429
5092638
5559626
5988483
6372238
6701161
6968257
7169487
7303433
7370042
7369403
7301739
7167311
6966503
6700409
6372201
5988542
5558958
5090632
4585263
4049392
3498118
2950613
2398686
1844239
1310522
818373
411584.6
421086.4
837040
1362298
1890067
2445991
2998664
3546943
4100494
4638687
5145955
5617650
6051240
6437975
6768426
7036137
7237687
7371812
7438365
7437540
7369659
7235030
7033975
6767360
6437840
6051375
5617244
5144479
4636260
4097478
3543411
2994578
2441469
1885505
1358340
834716.8
421106.3
421002.4
837035.9
1362261
1890156
2446129
2998839
3547127
4100699
4638998
5146522
5618503
6052222
6438932
6769261
7036793
7238281
7372456
7439095
7438346
7370505
7235878
7034811
6768196
6438701
6052284
5618205
5145463
4637232
4098426
3544396
2995676
2442660
1886686
1359332
835283.7
420866.5
411197.9
821044.2
1315220
1849901
2404485
2956080
3503034
4053827
4589352
5094285
5562072
5991297
6375028
6703745
6970487
7171601
7305694
7372442
7371891
7304256
7169835
6969076
6703102
6375062
5991567
5562077
5093732
4588246
4052240
3500999
2953728
2401960
1847425
1313156
819658.9
410831.9
383151.1
776163.6
1163201
1767857
2319232
2869630
3414332
3959058
4488544
4987599
5448561
5869790
6247501
6572702
6837599
7037911
7171853
7238812
7238607
7171337
7037358
6837380
6573037
6248305
5870706
5449206
4987746
4488152
3958132
3412924
2867990
2317491
1766159
1161800
777850.5
382643.2
339338.8
661482.7
1075222
1667931
2195669
2741554
3281891
3815660
4335273
4825586
5278242
5689698
6058600
6377842
6639315
6838102
6971688
7038875
7039104
6972367
6839213
6640856
6379711
6060601
5691587
5279756
4826548
4335608
3815389
3281084
2740552
2194470
1666575
1073725
660674.1
338896.6
279583.5
579423.2
973102.4
1532205
2050833
2580457
3108470
3625213
4130522
4609731
5052644
5453968
5812116
6122802
6378682
6574519
6706902
6773857
6774360
6708355
6576787
6381576
6126019
5815282
5456801
5054942
4611359
4131426
3625487
3108172
2579948
2049947
1530997
971879.1
578094.6
279030.5
457302.8
871205.3
1371219
1875157
2380834
2889466
3391182
3878719
4343329
4774476
5165743
5513236
5813635
6061201
6251500
6380662
6446185
6446634
6381971
6253578
6063922
5816741
5516371
5168609
4776833
4345016
3879720
3391679
2889497
2380602
1874389
1370456
870814
456809.3
386048.9
764127.8
1129322
1667622
2142753
2625665
3114092
3584160
4031224
4448787
4829643
5167555
5457280
5694232
5875759
5998775
6061113
6061310
5999369
5876767
5695683
5459073
5169455
4831422
4450250
4032261
3584787
3114491
2625790
2142599
1666948
1129033
766939.9
385839.1
284331.1
587934.8
968959.8
1426117
1885269
2329487
2800717
3256934
3683372
4082643
4450186
4777560
5057154
5283948
5455488
5570123
5627520
5627449
5569947
5455324
5283976
5057424
4777966
4450591
4082949
3683537
3256985
2800745
2329442
1884921
1425756
968359.5
586301.7
283893.7
378130.2
765815.3
1118311
1578781
2021955
2464497
2898418
3307243
3684385
4033450
4347002
4614691
4831570
4994468
5101808
5154490
5154221
5101059
4993407
4830453
4613658
4346077
4032573
3683579
3306514
2897763
2463949
2021462
1578539
1118225
765096.4
377306.8
482905.7
886331.8
1211753
1678682
2098079
2508861
2899120
3258538
3586744
3882355
4135200
4340743
4494588
4595678
4645378
4645019
4594663
4493080
4338996
4133401
3880606
3585008
3256933
2897798
2507831
2097374
1678160
1211589
888480
482388.6
312849.3
602993.1
953284
1261868
1712912
2098422
2465414
2802467
3116573
3394326
3629073
3820035
3963767
4058638
4105423
4105056
4057636
3962271
3818236
3627125
3392341
3114553
2800602
2463959
2097332
1712165
1261565
956120.8
601773.3
312809.4
338779.6
628587.5
972092.9
1262332
1679176
2022817
2331111
2627753
2891907
3111289
3284976
3417595
3506358
3550402
3550073
3505508
3416327
3283456
3109658
2890214
2626021
2329504
2021694
1678314
1261759
975121
627053
338802.8
345382
628892
953500.8
1211857
1579363
1886247
2144077
2382461
2582353
2743598
2871743
2958181
3000837
3000572
2957525
2870801
2742528
2581304
2381461
2143169
1885458
1578834
1211451
956387.1
627065.4
345341.3
338867.8
603733.8
886739.5
1118341
1426545
1668331
1876004
2051862
2196877
2320544
2405726
2447234
2447064
2405364
2320101
2196476
2051584
1875651
1667831
1426389
1118626
889450.7
601743.1
338724
312821
482696.8
766270.1
968780.2
1129766
1371644
1532552
1668481
1768678
1850662
1890842
1890718
1850534
1768660
1668729
1532678
1371393
1129258
969244.9
766356.2
482866.5
312726.9
377614.9
588410.4
763803.6
871419.8
972897
1075010
1163607
1315718
1362747
1362677
1315682
1163560
1075063
972949.8
871443
767650.9
586973.2
378030.2
284019.2
385936.7
457044.4
580370.8
661484
776247.6
821230.7
837227.7
837095.4
821232.1
779504.1
661448.7
578579.3
456920.1
385996.2
284228.1
279193.1
339108
382902.9
411020
420980.4
420829.5
410995.3
382932.5
339115
279007.7
241569.9
294622.3
325814
358139.1
380727.5
383644.4
374751.2
344169.9
297057.9
244738.2
251997.5
354644.1
444263.3
622083.5
705653.7
759422.2
791259.2
805288.5
805349.3
791626.8
762877
709097.9
618786.4
444920.1
354797.9
251884.5
253754.9
395321.4
640220
782345.9
909620.4
1036000
1229464
1342091
1399451
1425716
1424967
1397411
1339830
1227449
1034330
908314
780805.2
633804
394817.9
253634.1
322228.9
560769.5
828179.4
1032803
1307721
1497024
1657103
1804946
1918947
2006487
2049118
2048194
2003885
1915208
1800575
1653041
1493744
1304376
1029990
823875.7
558057.2
321848.4
374451
717908.2
973468
1215393
1572030
1842212
2077298
2271222
2431561
2555098
2645360
2691233
2690281
2642658
2551020
2426493
2265802
2072159
1837372
1567169
1211263
970898.8
708560.9
373779
398981.5
792983.3
1088032
1474052
1793992
2123720
2417604
2673942
2889558
3065156
3203093
3299337
3347964
3347032
3296661
3198890
3059610
2883044
2667240
2411149
2117667
1788668
1469952
1085565
783501.7
398344.9
398936.7
811257.3
1136420
1568205
1950878
2324670
2677409
2993204
3273007
3509789
3701664
3849902
3951203
4002071
4001113
3948440
3845503
3695695
3502598
3265447
2985907
2670738
2318976
1946235
1564514
1133933
801583.3
397865
374199.1
792764.6
1137082
1597169
2018611
2444304
2849267
3223072
3565093
3868144
4124269
4330704
4487782
4593816
4646797
4645782
4590895
4483115
4324366
4116685
3860187
3557504
3216286
2843452
2439392
2014321
1593353