/*--------------------------------*- C++ -*----------------------------------*\
  =========                 |
  \\      /  F ield         | OpenFOAM: The Open Source CFD Toolbox
   \\    /   O peration     | Website:  https://openfoam.org
    \\  /    A nd           | Version:  6
     \\/     M anipulation  |
\*---------------------------------------------------------------------------*/
FoamFile
{
    version     2.0;
    format      ascii;
    class       volScalarField;
    location    "49.8";
    object      alphat;
}
// * * * * * * * * * * * * * * * * * * * * * * * * * * * * * * * * * * * * * //

dimensions      [1 -1 -1 0 0 0 0];

internalField   nonuniform List<scalar> 
203709
(
0.6164782
0.999839
0.9946227
0.5995249
0.6869686
1.287306
1.676671
1.965511
1.893588
1.465512
1.074037
0.6164076
0.6219145
1.142661
1.528206
2.141491
2.367497
2.338409
2.253858
2.08902
1.895844
1.411315
1.002637
0.5700398
0.6030402
1.335548
1.876393
2.103493
2.294876
2.412259
2.443811
2.404411
2.286425
2.154153
1.957078
1.730957
1.224211
0.5386028
0.9983297
1.776053
2.036744
2.154495
2.21076
2.24202
2.253763
2.247062
2.218389
2.135632
1.985389
1.822715
1.548181
0.8320325
0.618769
1.348563
1.886865
2.067844
2.151032
2.203572
2.232471
2.224869
2.185157
2.126372
2.059296
1.980859
1.870635
1.672288
1.153419
0.4842309
1.025877
1.695401
1.882132
1.943987
2.067771
2.194499
2.275178
2.306306
2.283773
2.217846
2.132218
2.039089
1.935303
1.786964
1.520027
0.8257286
0.6371727
1.452422
1.901583
1.976648
2.005218
2.097122
2.212196
2.313402
2.377721
2.391245
2.35248
2.276492
2.178221
2.064727
1.922269
1.698849
1.16605
0.4761738
1.022883
1.846008
2.080703
2.148759
2.198454
2.265892
2.332975
2.395357
2.439279
2.459445
2.448326
2.397528
2.316104
2.209105
2.064285
1.858884
1.528957
0.7992188
1.02124
1.866687
2.15505
2.272479
2.342972
2.390895
2.432884
2.472217
2.499942
2.513041
2.50579
2.468177
2.404592
2.311604
2.17016
1.954618
1.603145
0.8387963
0.6429596
1.514338
2.120499
2.318862
2.412298
2.459388
2.490323
2.518234
2.541153
2.548357
2.534731
2.501679
2.447157
2.357818
2.210874
1.951915
1.343936
0.5462879
1.119364
1.985995
2.279813
2.413427
2.476828
2.513078
2.538775
2.557423
2.560001
2.543787
2.5106
2.45375
2.356821
2.183405
1.859406
1.031684
0.6838129
1.55477
2.168247
2.370444
2.462322
2.513356
2.543589
2.558055
2.55502
2.534201
2.492947
2.423974
2.305192
2.075036
1.468155
0.6413397
1.113381
1.969875
2.25328
2.397684
2.478707
2.52244
2.535102
2.524761
2.493669
2.434636
2.341584
2.184005
1.892575
1.068503
0.670478
1.462817
2.006639
2.228522
2.373001
2.446405
2.467729
2.449332
2.39603
2.301093
2.148875
1.928862
1.404498
0.6469821
0.6899627
1.160013
1.626119
2.085163
2.233159
2.301628
2.282687
2.181408
2.014927
1.56146
1.118543
0.6642328
0.7089687
1.170163
1.581186
1.957973
1.953154
1.566549
1.164797
0.7070454
0.6644893
1.077522
1.089652
0.6798966
0.6462772
1.05734
1.148082
1.188985
1.191695
1.165178
1.117866
1.048738
0.9429471
0.5609907
0.6366965
1.122668
1.574274
2.011029
2.17178
2.281713
2.320468
2.282339
2.181177
2.032223
1.844147
1.405706
0.9947211
0.558935
0.6645372
1.44481
2.020501
2.303587
2.543723
2.751632
2.972348
3.112663
3.082301
2.898928
2.656649
2.421409
2.148265
1.867301
1.323457
0.5869921
0.6666125
1.500029
2.073212
2.442115
2.74632
3.106674
3.569753
3.306309
3.34854
3.315222
3.150711
3.469812
3.037312
2.687472
2.388478
2.013273
1.38667
0.6042614
0.6468863
1.498486
2.132752
2.521032
3.040049
3.668406
3.880971
4.381502
4.09195
3.954673
3.786266
3.496022
3.600583
3.42018
3.484365
2.972263
2.528899
2.095274
1.410775
0.6046733
0.610868
1.42853
2.114535
2.660363
3.531789
4.195414
5.167892
5.575814
6.805202
6.533429
5.718553
5.040598
4.413198
4.187539
3.858347
3.87496
2.890442
3.222524
2.584861
2.090443
1.383096
0.5894544
1.039001
1.957892
2.527053
3.318371
3.545739
4.502672
5.77251
6.554039
7.553404
8.114469
8.158506
7.535338
6.326204
5.516538
4.849194
4.434756
3.401695
2.434944
3.123195
2.542812
1.990228
1.051586
0.6037316
1.494498
2.234271
2.837475
3.819548
3.071257
4.248953
4.818901
5.139222
5.5383
6.046864
6.6666
7.208493
7.440328
7.194681
6.657227
6.120398
5.397424
3.915839
4.143494
3.036411
2.326451
1.472559
0.5609353
0.997738
1.925828
2.473358
3.124415
3.421275
3.096196
3.89716
4.141758
4.300378
4.519424
4.822739
5.121781
5.379824
5.582874
5.685073
5.675713
5.529432
5.169768
4.092615
3.077826
3.083516
2.326375
1.723518
0.8487545
1.092325
2.086092
2.682233
3.529855
3.46603
3.005792
3.548488
3.609506
3.728608
3.938737
4.238857
4.547238
4.787254
4.889179
4.824934
4.634017
4.373619
4.029537
3.541476
2.715506
2.947952
2.250905
1.724548
0.8679977
1.141215
2.198193
2.896332
3.477492
3.597188
3.154886
3.28732
3.229259
3.218688
3.380439
3.627165
3.909794
4.177473
4.37372
4.446639
4.369663
4.158386
3.832954
3.369788
2.45959
1.654524
2.367913
1.784919
0.8951068
1.166134
2.263531
3.05016
3.429503
3.641122
3.41348
3.328872
3.214227
3.152591
3.200847
3.338097
3.520219
3.708667
3.867576
3.974896
4.003435
3.9364
3.747421
3.380088
2.845729
2.202666
2.520595
1.850689
0.9255884
1.173882
2.277062
3.063185
3.365947
3.609477
3.580504
3.49464
3.370928
3.279801
3.263163
3.321692
3.420342
3.527442
3.614148
3.669085
3.681648
3.646229
3.526441
3.210175
2.652242
2.225185
2.575659
1.893955
0.9538755
1.164152
2.236234
2.933147
3.22907
3.454453
3.57619
3.568153
3.497818
3.453246
3.44541
3.469914
3.510534
3.54799
3.565022
3.556079
3.517631
3.44735
3.303727
2.907151
2.208926
2.40727
2.504866
1.896162
0.9717172
1.129123
2.141641
2.738731
3.530908
3.628392
3.74535
3.790013
3.783563
3.740139
3.705087
3.685795
3.673539
3.654917
3.6165
3.556275
3.472964
3.365787
3.166831
2.577433
1.849703
3.069933
2.381151
1.854372
0.9677839
1.04544
1.99175
2.546144
3.129817
3.419554
3.614468
3.74333
3.803388
3.828815
3.838021
3.834249
3.811746
3.764408
3.688318
3.596935
3.488456
3.371433
3.12371
2.269302
2.099804
2.804601
2.287546
1.775532
0.9205563
0.6405523
1.569316
2.314305
2.813928
3.549725
3.743152
3.885063
3.94648
3.966715
3.979509
3.96625
3.923927
3.8487
3.742048
3.644951
3.537032
3.458284
3.185494
2.167876
3.368296
2.661847
2.178261
1.446215
0.5795861
1.152265
2.087057
2.586734
3.122191
3.388308
3.593314
3.779048
3.907707
3.98435
4.005688
3.965885
3.878171
3.750603
3.694777
3.611626
3.636498
3.400596
2.855018
3.132992
2.595465
2.06397
1.095587
0.6788585
1.573447
2.304304
2.795295
3.437478
3.572663
3.795491
3.925042
4.017623
3.998975
3.928309
3.841652
3.703254
3.757777
3.682645
3.822042
3.584404
3.60452
2.976639
2.479094
1.666154
0.68493
0.7301595
1.693024
2.430794
2.862521
3.29341
3.786419
3.721066
3.875539
3.822226
3.777916
3.728221
3.608618
3.8855
3.76419
4.154404
3.661554
3.262625
2.843233
1.993187
0.8482732
0.7259468
1.659088
2.319456
2.670092
2.955343
3.29581
3.747603
3.531326
3.61037
3.666272
3.604042
4.225015
3.857661
3.617137
3.393573
3.051938
2.226505
0.9821425
0.6976519
1.546113
2.118711
2.446145
2.739973
3.008475
3.325037
3.607594
3.732278
3.683655
3.569561
3.492127
3.325779
3.022799
2.293937
1.057573
0.6646978
1.178527
1.729603
2.266764
2.530091
2.764435
2.945096
3.053894
3.098209
3.085429
3.000734
2.44613
1.781444
1.062928
0.7436308
1.273901
1.445796
1.56903
1.654545
1.710662
1.749131
1.755703
1.680728
1.053565
0.6590978
1.066442
1.13764
1.140114
1.107339
1.048795
0.9412092
0.5566689
0.675831
1.220818
1.417998
1.81978
2.225164
2.304493
2.290986
2.225105
2.123984
1.967635
1.541546
1.156293
0.9496154
0.527569
0.8146941
1.733533
2.432826
2.776008
3.006673
3.14637
3.204967
3.17424
3.083892
2.958247
2.794532
2.588156
2.315636
1.952549
1.390595
0.6258861
0.6896304
1.28123
1.987496
2.77631
3.454972
3.093038
3.207382
3.36794
3.470831
3.448231
3.341512
3.190413
2.99509
2.78408
2.58572
2.867415
2.301415
1.594614
0.9500783
0.4693025
0.6982868
1.622122
2.421285
3.102889
2.970617
3.588295
3.350618
3.481371
3.658945
3.8133
3.832221
3.733272
3.564916
3.338722
3.104651
2.863043
3.048983
2.606629
2.598317
1.929814
1.181091
0.4506516
0.6653101
1.594008
2.416698
3.179847
3.235904
3.160479
3.806969
3.69959
3.795427
3.965993
4.140475
4.204099
4.137076
3.973101
3.731724
3.473211
3.218079
3.301554
2.948825
2.933991
2.711319
1.963947
1.178816
0.4438696
1.194896
2.290621
3.07672
3.288393
3.461094
3.561824
4.318614
4.377595
4.462223
4.555243
4.634881
4.644915
4.563569
4.399467
4.188273
3.94765
3.692558
3.62987
3.357066
3.115878
2.482273
2.742587
1.947751
0.9299516
0.7598393
1.854958
2.896205
3.193663
3.597061
4.02078
4.492937
5.472024
5.813335
5.986858
6.019639
5.846047
5.566541
5.305033
5.044824
4.809197
4.524083
4.287154
4.105674
3.812271
3.480539
2.72441
1.933157
2.684137
1.619954
0.6262973
0.6138325
1.627923
2.592408
2.976221
3.52003
4.239362
5.001149
5.882226
6.994393
7.820308
8.421077
8.930079
8.605785
7.699328
6.827646
6.088085
5.613811
5.228705
4.967468
4.561054
4.338929
3.957659
3.411674
2.423997
1.504811
2.416359
1.473961
0.5540683
1.07512
2.187992
3.127453
3.248844
4.026351
4.985458
5.86178
6.73489
7.75049
8.747679
9.662938
10.60499
11.14661
10.99764
10.03527
8.589768
7.435394
6.540783
5.950927
5.301224
4.57403
4.396634
4.069336
3.515478
2.098886
3.151234
2.146884
1.041072
1.267627
2.495237
3.049407
3.484456
4.483367
5.520828
6.084373
6.362957
6.793324
7.050606
7.335752
7.824741
8.484431
9.312068
10.00789
10.24344
9.860011
9.033731
8.232454
7.423261
6.374675
5.949167
5.366185
4.706767
3.329737
2.033137
2.569679
1.262555
0.6042075
1.682838
2.771579
3.126948
3.631694
4.667291
5.715032
5.900327
5.664528
5.654553
5.57172
5.64245
5.87587
6.283936
6.726006
7.132198
7.465607
7.658112
7.6765
7.537404
7.134995
6.323791
5.616734
5.271066
4.816408
4.122502
2.614357
2.828235
1.643753
0.5586471
1.006208
2.08586
2.932225
3.22219
3.717215
4.651035
5.588144
5.684614
5.157989
4.919101
4.702217
4.74237
4.95735
5.354927
5.783157
6.139628
6.334156
6.316189
6.125568
5.843152
5.476991
5.055703
4.58639
4.367973
4.123127
3.643556
2.49664
2.721754
1.881255
0.8536791
1.104286
2.194274
3.018505
3.305236
3.767626
4.548791
5.337743
5.435022
4.962782
4.567284
4.189711
4.010821
4.172498
4.485158
4.853548
5.211394
5.492353
5.628929
5.586103
5.376072
5.043125
4.628768
4.139097
3.749019
3.721228
3.260059
2.282028
2.576124
1.820113
0.8498424
1.152181
2.251855
3.069994
3.368147
3.800028
4.431271
5.068366
5.22549
4.911936
4.546058
4.185549
3.970563
3.973484
4.117403
4.333055
4.564699
4.767262
4.907466
4.95894
4.902101
4.725215
4.414452
4.038059
3.754465
3.590388
3.098251
2.096577
2.526437
1.7873
0.8391937
1.176398
2.289196
3.105527
3.407158
3.815113
4.33042
4.839618
5.057647
4.931746
4.689351
4.404385
4.191935
4.099766
4.121713
4.217977
4.341085
4.447658
4.510441
4.517607
4.466934
4.34697
4.101344
3.757327
3.589105
3.474301
3.016887
1.980349
2.550917
1.799517
0.8440343
1.171921
2.29805
3.120206
3.414586
3.800446
4.238101
4.661437
4.919822
4.951316
4.835411
4.651167
4.47701
4.360989
4.320589
4.337443
4.376474
4.401499
4.388918
4.329384
4.225763
4.072655
3.786032
3.421841
3.427943
3.336753
2.927047
1.930376
2.599156
1.826208
0.85214
1.105833
2.240358
3.092322
3.372772
3.73456
4.121989
4.505899
4.799799
4.94147
4.934941
4.855595
4.733619
4.634
4.580919
4.561869
4.547074
4.507607
4.428544
4.305968
4.146607
3.946085
3.575694
3.231668
3.352544
3.251138
2.850111
1.968445
2.637212
1.819279
0.8283875
0.6779139
1.861028
3.003477
3.262034
3.593484
3.946732
4.307486
4.622116
4.830036
4.909927
4.900579
4.863866
4.839171
4.83002
4.814159
4.767447
4.675897
4.540934
4.364682
4.160642
3.935449
3.517721
3.377888
3.407156
3.305093
2.85062
2.192506
2.636796
1.539651
0.5313898
1.475161
2.824111
3.126565
3.384011
3.709484
4.040132
4.353118
4.608915
4.776944
4.888236
4.995298
5.071441
5.101192
5.070765
4.979357
4.836075
4.658494
4.444261
4.217008
4.020063
3.654447
3.687837
3.65211
3.542404
2.950974
2.814565
2.548417
1.245533
1.249052
2.508239
3.580139
3.746749
3.947503
4.174212
4.437235
4.71183
4.949393
5.129216
5.262571
5.332711
5.319912
5.231919
5.091559
4.9185
4.731086
4.505569
4.290996
4.214228
4.009171
4.00627
4.020436
3.920773
3.152967
3.600713
2.386798
1.126467
0.6675546
1.801287
2.934045
3.372174
3.723498
4.073077
4.413024
4.728544
4.99666
5.191269
5.295698
5.317168
5.270903
5.175171
5.05019
4.90767
4.752771
4.546369
4.386056
4.522412
4.352356
4.422221
4.482773
4.374611
3.979916
3.185187
1.856522
0.6789436
0.8098913
2.078249
3.298643
3.686628
4.056722
4.381098
4.630244
4.829961
4.9467
4.989966
4.985822
4.967517
4.950461
4.92219
4.861497
4.757604
4.608891
4.528674
4.916851
4.633275
4.82988
4.88355
4.615637
4.058296
2.395509
0.9184923
1.254805
2.453681
3.313391
3.62532
3.925711
4.116474
4.337744
4.425678
4.475945
4.542426
4.645748
4.744651
4.816309
4.852476
4.806128
4.733765
4.75123
5.33276
4.88539
5.187177
5.161319
4.78544
3.39569
1.643519
0.6477616
1.599458
2.445281
3.20995
3.440985
3.554341
3.924091
3.962141
4.079587
4.272388
4.506635
4.707041
4.85264
4.94662
4.95192
4.942851
5.0426
5.721723
5.103413
5.377277
5.328897
3.919491
2.451978
0.9658912
0.6610593
1.58119
2.369604
3.12345
3.143001
3.792849
3.686586
3.91499
4.24004
4.579291
4.833238
5.006592
5.126272
5.164898
5.195256
5.247633
5.906917
5.131346
5.388225
4.160953
2.720209
1.115833
0.6535652
1.262917
2.051794
2.98095
3.910793
3.581127
3.935018
4.346301
4.716412
4.956066
5.115163
5.237277
5.282725
5.254852
5.201586
5.90731
4.901364
3.530508
2.251763
1.17625
0.8791049
1.986743
2.931267
3.554454
4.056277
4.479658
4.802053
4.996413
5.130471
5.245507
5.28015
5.167006
4.803485
4.233725
3.119238
1.463935
0.8200469
1.566301
1.921269
2.580153
3.334075
3.628043
3.782817
3.871205
3.918952
3.852627
3.19126
2.505496
2.150852
1.224872
0.9681165
1.653944
1.85176
1.942913
1.981849
1.981408
1.880727
1.171201
0.7018601
1.134469
1.188334
1.160923
1.063916
0.6359025
0.7026657
1.276042
1.505174
1.729063
2.199463
2.63925
2.67825
2.604625
2.442885
1.946443
1.443182
1.19537
0.9643166
0.5427638
0.6955999
1.369177
2.075634
2.883257
3.298573
2.403421
2.711649
3.047978
3.01072
2.867864
2.641684
2.205085
1.919831
2.596347
2.175472
1.571097
0.9988649
0.509132
0.8209391
1.890321
2.924238
2.609578
3.3494
3.718465
2.992273
3.356172
3.598748
3.483365
3.274686
3.006441
2.603037
2.335921
2.765797
2.353582
1.967081
2.123779
1.339792
0.5540387
0.9035988
2.122401
3.281954
3.37827
3.127905
3.918172
4.271887
3.701981
3.960265
4.150604
3.987967
3.7342
3.445239
3.065811
2.851959
3.160258
2.771423
2.411204
2.422789
2.299141
1.394955
0.5756968
0.9259958
2.264828
2.587146
3.591999
3.802943
3.728845
4.388779
4.723851
4.310331
4.498497
4.687422
4.536495
4.26307
3.962721
3.589927
3.370099
3.631509
3.273636
2.914432
2.786133
2.344549
1.62919
1.416797
0.572942
0.8791233
2.254081
2.675039
3.047204
3.945408
4.220303
4.173125
4.724392
5.053411
4.777089
4.931262
5.155422
5.086684
4.842696
4.542554
4.168228
3.893444
4.115223
3.838333
3.432963
3.279064
2.779222
2.009692
1.700017
1.38169
0.5424555
0.7695049
2.042854
2.555587
3.035182
3.463484
4.183133
4.470032
4.442556
4.936178
5.292471
5.14945
5.28715
5.536517
5.576521
5.412928
5.140261
4.79878
4.534814
4.673926
4.523079
4.114331
3.924105
3.523086
2.692074
2.273064
1.803006
1.262863
0.4631597
0.6441136
1.785791
3.125221
3.046033
3.396291
3.736813
4.328051
4.628868
4.693996
5.313447
5.762528
5.781271
5.896918
6.085016
6.146226
6.047764
5.829957
5.522423
5.236614
5.200854
5.082433
4.75169
4.47712
4.000526
3.529037
2.913303
1.778322
2.350688
1.200169
0.3960758
1.237932
2.678676
3.236154
3.389549
3.667909
3.923813
4.492829
4.973519
5.363931
6.283926
6.906422
7.098828
7.169582
7.126153
6.956751
6.739404
6.482478
6.198524
5.905404
5.738906
5.565836
5.267716
4.935132
4.364019
3.586509
3.442088
2.529214
1.718496
2.223881
0.9407767
0.6364418
1.890263
2.562958
3.329385
3.675467
3.878405
4.124317
4.92732
5.768786
6.752133
8.080353
9.105758
9.778028
10.15824
9.874533
9.102396
8.259135
7.516558
6.989129
6.589262
6.313395
6.020348
5.717312
5.349163
4.834713
4.014098
3.018001
2.957998
2.290522
1.396366
1.623227
0.5405192
1.151685
2.577658
2.897265
3.537285
3.900513
4.07344
4.516986
5.70186
6.937672
8.229833
9.54252
10.64286
11.63344
12.54188
13.04692
12.8442
11.79106
10.34344
9.062174
8.045199
7.355473
6.781504
6.208533
5.806365
5.395534
4.836819
3.765138
3.497023
2.965365
1.743386
2.308281
1.009092
1.406534
3.025745
3.267976
3.775366
4.117724
4.313986
5.004713
6.524055
7.646859
8.368576
8.770124
8.942945
9.206324
9.731576
10.46035
11.33179
12.04713
12.25431
11.81102
10.85931
9.915066
9.039732
8.151719
7.513257
6.897221
6.225591
5.232621
3.992079
3.483509
2.158678
2.83396
1.256221
1.658539
2.393166
3.142935
3.840537
4.280976
4.564524
5.405835
6.975098
7.693449
7.58276
7.205491
6.845342
6.785148
7.00869
7.452878
7.986475
8.487346
8.895623
9.12768
9.142992
8.995995
8.577889
7.918186
7.319818
6.894484
6.439535
5.823977
4.8018
4.354155
3.092206
1.816091
1.512465
0.7038088
2.199516
2.610964
3.225466
3.878607
4.388986
4.763624
5.621477
7.023542
7.526155
6.889717
6.159382
5.673862
5.626053
5.843576
6.309057
6.817017
7.242666
7.486364
7.48967
7.293341
6.993757
6.615033
6.234291
5.89119
5.664121
5.421452
5.046634
4.437549
4.31171
3.734253
2.318199
2.006805
0.611309
1.188631
2.718067
2.978795
3.412668
3.948656
4.467407
4.898478
5.671476
6.803297
7.230973
6.594073
5.743833
5.059408
4.749523
4.927577
5.314061
5.753532
6.171722
6.493116
6.644925
6.595123
6.364782
6.015413
5.625892
5.261545
4.980805
4.745901
4.375139
3.907701
3.870025
3.392287
2.295518
2.267445
0.9268029
1.299733
2.888184
3.199446
3.58146
4.033083
4.527923
4.990005
5.6388
6.487823
6.866643
6.465351
5.763925
5.142231
4.78685
4.760108
4.926743
5.185472
5.462091
5.692177
5.829232
5.850255
5.751279
5.543808
5.250146
4.941613
4.69558
4.42383
4.015016
3.498883
3.460214
2.987474
2.144766
2.106703
0.861217
1.308192
2.940562
3.319095
3.707031
4.110406
4.568963
5.034324
5.587445
6.213103
6.551939
6.40209
5.967274
5.499609
5.15977
4.992631
4.990625
5.101232
5.254494
5.380048
5.429237
5.386636
5.265022
5.084673
4.844003
4.585073
4.408427
4.191575
3.800913
3.229295
3.187016
2.725441
2.003809
1.975007
0.8021283
1.226264
2.87574
3.34853
3.781616
4.164171
4.582288
5.024847
5.512326
6.010635
6.325496
6.353933
6.164917
5.865034
5.583664
5.38248
5.301402
5.317596
5.37133
5.396704
5.349207
5.216813
5.019304
4.786261
4.511043
4.252722
4.134134
3.971396
3.625216
3.069998
3.02288
2.558213
1.931578
1.878876
0.751552
0.7424803
2.424254
3.07008
3.654281
4.098348
4.512435
4.932501
5.378264
5.820253
6.148777
6.293396
6.276417
6.135417
5.948202
5.801308
5.734495
5.720632
5.701739
5.625373
5.465921
5.226585
4.942289
4.648083
4.322036
4.070895
3.981045
3.833033
3.499704
3.00693
2.927795
2.396969
1.986114
1.5683
0.4736702
1.881629
2.743671
3.364847
3.940008
4.371322
4.757962
5.166673
5.582741
5.930939
6.151525
6.250354
6.261301
6.239157
6.237702
6.247512
6.223646
6.123745
5.929577
5.646893
5.298507
4.94657
4.626516
4.29439
4.120674
4.055879
3.879428
3.501516
3.072508
2.913195
2.222381
2.332067
1.253541
1.560909
3.51912
4.118934
4.62223
4.88422
5.052808
5.262325
5.541175
5.831538
6.08272
6.309462
6.53289
6.710525
6.819852
6.825662
6.706304
6.469176
6.1415
5.749706
5.326852
4.980815
4.716937
4.457593
4.415355
4.407932
4.136876
3.658839
3.244496
2.989502
2.122849
2.66435
1.150875
1.227522
2.912992
3.636739
4.461108
5.067796
5.442611
5.684158
5.937162
6.23357
6.579946
6.917124
7.196902
7.353903
7.348626
7.182701
6.890428
6.524729
6.125394
5.70035
5.291614
5.089842
4.984516
4.857956
4.977431
5.018723
4.536142
3.932537
3.399125
3.16252
2.376354
2.432201
1.015688
0.6616234
2.077527
2.906184
3.735134
4.553174
5.211922
5.741862
6.225014
6.655769
7.014786
7.284222
7.435052
7.421721
7.233183
6.935067
6.596307
6.262843
5.937011
5.586094
5.30898
5.411908
5.505122
5.491252
5.797618
5.808393
4.967749
4.250847
3.495258
3.41723
2.985294
1.881394
0.6111402
1.28849
2.853023
3.565115
4.186731
4.808699
5.329641
5.819602
6.2373
6.528159
6.697524
6.775604
6.669352
6.446354
6.242271
6.088677
5.961239
5.81257
5.595227
5.545616
6.045249
6.250707
6.295105
6.735156
6.606917
5.340745
4.494251
3.605053
3.653998
3.003022
1.302647
0.6354527
1.792471
3.165759
3.378207
3.863843
4.297238
4.781625
5.200219
5.426157
5.610772
5.799278
5.678237
5.569503
5.650044
5.796677
5.908106
5.928041
5.837613
6.052554
6.896322
7.06819
7.128672
7.557785
7.251202
5.662735
4.679229
3.691052
3.96743
2.099663
0.710524
0.7255025
1.951306
2.466614
2.94646
3.34316
3.916383
4.329853
4.405831
4.736789
5.157808
4.966963
5.068928
5.492756
5.879271
6.135754
6.254047
6.264413
6.710463
7.692358
7.793109
7.835228
8.126557
7.596863
5.689854
4.60957
3.668067
2.715179
0.9704881
0.8062853
2.088182
2.449006
2.716397
3.496628
3.802182
3.668583
4.286516
4.955121
4.617218
4.999221
5.705428
6.183479
6.47152
6.625903
6.721655
7.265914
8.277265
8.28943
8.032905
8.08739
7.426894
5.24846
4.327609
3.384946
1.264871
0.8515425
2.106681
2.310808
3.364391
3.524505
3.286853
4.268086
5.066559
4.566881
5.222842
6.080839
6.540365
6.811446
6.980241
7.062795
7.453098
8.382374
8.108674
7.461758
7.367281
6.756635
4.57396
3.762905
1.47459
0.8727136
2.12933
3.433773
3.425485
3.12801
4.369349
5.159137
4.508483
5.345482
6.212358
6.598072
6.815912
6.911296
6.808225
6.908437
7.865139
7.3043
6.264117
6.426544
5.927711
3.758654
1.554236
0.8827502
2.126776
3.464841
3.012907
4.245451
4.967384
4.101823
5.038965
5.897327
6.226112
6.379939
6.376291
6.037446
5.755047
6.87904
6.131269
5.059859
5.362996
3.459207
1.474149
0.8355892
1.715963
2.738569
3.96768
4.769529
3.513218
4.320742
5.182067
5.468309
5.566616
5.489979
4.947121
4.56723
5.977033
5.168937
3.805503
2.520432
1.277223
0.9713271
1.800799
2.224424
2.68058
3.552595
4.452174
4.719115
4.791312
4.711512
3.972128
3.145673
2.740461
2.284175
1.282792
1.134367
1.909329
2.080751
2.107078
2.007072
1.254597
0.6882567
1.209139
1.435768
1.546206
1.576029
1.549302
1.477487
1.324039
1.10481
0.609772
0.7027912
1.361255
1.785402
2.388517
3.09701
2.237945
2.2752
2.252156
2.144985
2.008314
1.936587
2.675926
1.961984
1.362151
1.059783
0.5683368
0.9965556
2.272886
2.134868
2.616303
3.191352
3.792295
3.139042
3.321611
3.194789
2.95511
2.698328
2.483642
2.726806
2.135637
1.718809
1.573071
1.748889
0.7679391
0.7587676
1.626908
2.023917
3.100578
3.054463
3.828236
4.332799
4.776397
4.324488
4.314374
4.048586
3.700016
3.370757
3.131679
3.113024
2.627523
2.283269
2.041791
1.841054
1.375034
1.093724
0.540292
0.8198804
2.178415
2.511489
2.958774
4.161688
4.280013
4.937124
5.295651
5.573431
5.242116
5.077961
4.70843
4.308853
3.973664
3.755109
3.654329
3.267676
2.963739
2.661041
2.277364
1.762336
1.439787
1.385352
0.5407755
0.8166201
2.26593
2.891243
3.478016
4.134939
5.083375
5.253723
5.759941
6.007049
6.177447
5.927997
5.696136
5.270655
4.855046
4.548674
4.38172
4.295426
3.99601
3.705519
3.337309
2.836789
2.256105
1.805585
1.53924
1.381502
0.5516682
0.8064021
2.235092
2.925044
3.717309
4.553182
5.110499
5.758473
5.920179
6.321916
6.527679
6.653737
6.496018
6.290837
5.861437
5.435923
5.148649
5.026184
4.985478
4.748644
4.457116
4.037112
3.452186
2.786355
2.244919
1.876425
1.68468
1.4853
0.581226
0.7292102
2.112036
2.81985
3.664053
4.598707
5.345515
5.758785
6.17918
6.332679
6.687599
6.906051
7.044203
6.986799
6.883652
6.543232
6.126812
5.817352
5.707635
5.783662
5.665117
5.391769
4.919921
4.271176
3.48442
2.836902
2.434184
2.189164
1.971079
1.516458
0.5565916
1.524272
2.402482
3.386942
4.407912
5.23593
5.816929
6.097531
6.378857
6.542277
6.909284
7.223467
7.446654
7.51321
7.528218
7.324573
6.981718
6.684919
6.5363
6.578945
6.528068
6.299329
5.811028
5.180745
4.369875
3.592717
3.07171
2.701619
2.424358
1.893466
1.136889
0.9270566
2.00146
2.932673
4.033041
4.965099
5.631904
6.039905
6.204743
6.438349
6.721013
7.192563
7.607731
7.863474
8.010725
8.120765
8.061359
7.827581
7.541428
7.32619
7.254321
7.198103
7.024921
6.607311
6.061796
5.305631
4.527562
3.812028
3.133296
3.229852
2.445014
1.517972
0.659526
0.6662128
2.1223
2.694725
3.602077
4.579294
5.369923
5.85993
6.109347
6.275804
6.609215
7.046978
7.781055
8.3905
8.717925
8.862984
8.871199
8.735818
8.501897
8.216946
7.958176
7.774419
7.641584
7.453571
7.10423
6.638878
5.971746
5.148872
4.652707
3.959547
3.452411
3.378432
2.303138
1.658974
0.4865218
1.306171
1.971627
2.849346
3.959066
4.949446
5.64373
5.994986
6.228907
6.469614
7.072691
7.994576
9.276907
10.36306
11.11926
11.49865
11.29617
10.66269
9.880684
9.153174
8.614355
8.234431
7.965769
7.688916
7.342844
6.912658
6.350814
5.5878
4.669437
4.222557
3.719977
2.94458
2.560153
1.4893
1.025502
1.722735
2.345595
3.288427
4.306907
5.223712
5.843285
6.190585
6.433291
6.950763
8.080727
9.48731
10.94117
12.14013
13.1838
14.08701
14.59745
14.43574
13.43387
12.07753
10.76599
9.671178
8.894659
8.282135
7.715643
7.206758
6.683597
6.065064
5.18824
4.557673
3.98171
3.028665
2.858788
1.741618
1.360591
0.6806877
2.3393
2.926365
3.784353
4.663844
5.463752
6.041493
6.436679
6.78022
7.674981
8.990738
9.936318
10.41652
10.57787
10.82559
11.36281
12.14082
12.99552
13.69893
13.89976
13.46477
12.49031
11.47099
10.52795
9.638369
8.845875
8.118967
7.377648
6.491193
5.417756
4.564248
3.442594
3.04315
1.858542
1.882487
0.5524109
1.244811
3.138472
3.648017
4.335392
5.035511
5.6943
6.264274
6.708315
7.165163
8.234522
9.2593
9.211353
8.631611
8.041409
7.834949
8.028903
8.471415
9.06783
9.631849
10.07876
10.31295
10.30268
10.12622
9.702222
9.118395
8.581083
8.140952
7.688144
7.134976
6.372559
5.743097
4.753326
3.403483
2.262979
2.696098
1.041384
1.512605
2.370511
3.307924
4.359399
5.168977
5.82444
6.436753
6.962973
7.490416
8.467057
9.178899
8.466479
7.356179
6.604893
6.449794
6.675649
7.191986
7.761907
8.23418
8.502203
8.505278
8.289779
7.964678
7.573304
7.217561
6.936912
6.739664
6.536706
6.275651
5.944897
5.783501
5.376185
4.353737
3.290853
1.958576
1.321828
1.667252
2.53556
3.645712
4.587295
5.299982
5.903076
6.538326
7.145457
7.714281
8.487084
8.908399
8.151125
6.913125
5.919949
5.471884
5.675688
6.152747
6.668802
7.13939
7.478446
7.611604
7.519294
7.241271
6.85879
6.472469
6.152817
5.912824
5.683505
5.418119
5.184088
5.12823
4.878186
4.304381
3.940844
2.3983
1.436146
1.734063
2.717389
3.950964
4.878195
5.483827
5.984016
6.585702
7.221855
7.821862
8.424577
8.655068
8.037838
6.999584
6.099097
5.597111
5.562522
5.783848
6.112194
6.446836
6.698539
6.808087
6.761089
6.579097
6.304528
5.990254
5.704454
5.476129
5.225954
4.909775
4.602234
4.475447
4.188474
3.819185
3.557654
2.368464
1.252208
1.713035
2.777488
4.157857
5.159713
5.718857
6.105916
6.615726
7.220972
7.816757
8.331731
8.506113
8.100926
7.367594
6.665201
6.196033
5.979584
5.985121
6.13484
6.327514
6.461782
6.47046
6.340524
6.106462
5.823298
5.533995
5.286622
5.108831
4.9066
4.595027
4.21428
3.999902
3.633906
3.255814
2.953517
2.177074
1.049814
1.642225
2.78642
4.301365
5.447404
6.02681
6.31303
6.682147
7.196067
7.74969
8.222161
8.436473
8.257939
7.818521
7.321742
6.926476
6.659187
6.558183
6.5806
6.634752
6.625606
6.495733
6.240689
5.902174
5.542117
5.205268
4.949407
4.803404
4.653332
4.379602
3.981324
3.699297
3.253741
2.81258
2.4254
1.951963
0.95838
1.47702
2.81032
4.24909
5.673917
6.421863
6.678571
6.876623
7.237871
7.696453
8.130996
8.404819
8.426193
8.231085
7.934855
7.671961
7.477999
7.383053
7.336376
7.253736
7.067794
6.756577
6.343219
5.886054
5.44881
5.066465
4.811235
4.686868
4.556667
4.29127
3.884833
3.534308
3.006318
2.557069
2.008478
2.031942
0.8458636
1.210655
3.265069
4.481623
5.990662
7.017037
7.426878
7.474431
7.608024
7.860829
8.178553
8.455771
8.597276
8.596557
8.55513
8.495649
8.445112
8.376675
8.23115
7.961673
7.559605
7.053413
6.496002
5.963163
5.509871
5.15266
4.975785
4.900894
4.756026
4.433943
3.965087
3.505201
2.868409
2.431112
1.676416
2.022566
0.7389619
0.660784
2.410992
3.519667
5.195889
6.606132
7.53714
7.964694
8.201781
8.375733
8.579979
8.823264
9.058227
9.297993
9.47815
9.556459
9.505861
9.296403
8.922381
8.411083
7.813043
7.183524
6.585299
6.104719
5.761727
5.548715
5.549257
5.541867
5.32653
4.867492
4.237251
3.608124
2.852614
2.321861
1.566787
1.577659
0.436104
1.646997
2.767201
4.398546
5.92369
7.104273
7.923084
8.537429
9.007602
9.370933
9.728739
10.08834
10.32227
10.40235
10.30286
10.0057
9.536309
8.954131
8.327532
7.712145
7.145923
6.693952
6.449363
6.358368
6.399742
6.633571
6.62967
6.255513
5.568668
4.650142
3.803121
2.96315
2.183748
1.605158
1.203282
1.231312
2.339138
3.606711
5.056438
6.277037
7.232478
8.008103
8.70494
9.259327
9.691016
9.969226
10.08069
10.0132
9.768097
9.361684
8.867897
8.371104
7.919872
7.532647
7.227801
7.103716
7.23543
7.467598
7.800633
8.222426
8.063942
7.456003
6.441775
5.120934
4.016578
3.064222
2.04788
1.865937
1.00708
0.6384283
2.152392
2.947565
4.078291
5.171219
6.114118
6.882064
7.554375
8.054385
8.411106
8.590033
8.625886
8.571309
8.433547
8.197243
7.976835
7.834401
7.749895
7.712342
7.764681
8.058626
8.565337
9.081781
9.64393
10.0711
9.589274
8.723968
7.28152
5.537823
4.192432
3.092409
1.989869
1.900906
0.5694837
0.9053909
2.182965
2.969619
3.928396
4.803897
5.489452
6.048963
6.421489
6.734594
6.871738
6.997149
7.187141
7.365854
7.435912
7.616926
7.890454
8.159744
8.444377
8.852514
9.526455
10.24379
10.92871
11.54425
11.70751
10.85145
9.701832
7.923667
5.837702
4.274417
3.074137
1.953234
0.8906172
1.370576
2.201701
2.957973
3.713044
4.268917
4.674497
4.912431
5.334615
5.548113
5.950729
6.528151
7.09372
7.437382
7.985419
8.567405
9.058566
9.578501
10.27884
11.14682
11.84153
12.50241
12.93138
12.81817
11.69374
10.2148
8.113819
5.802675
4.120324
2.99046
1.646815
0.6667517
1.894319
2.34159
2.894054
3.31435
3.661356
3.807524
4.520529
4.878957
5.65491
6.599479
7.514939
7.996889
8.788415
9.507093
10.07914
10.73621
11.55451
12.33628
12.88073
13.44752
13.62556
13.19226
11.67678
9.939032
7.614858
5.293442
3.837679
2.699907
0.8870072
0.7346339
2.011178
2.389835
2.654945
3.019372
3.251599
4.303588
4.759708
5.867027
7.028719
8.15301
8.621682
9.519054
10.22294
10.76087
11.41101
12.18806
12.93071
13.25117
13.4727
13.29356
12.62823
10.67166
8.734138
6.403295
4.621865
3.289221
1.129042
0.7923925
2.156122
2.358207
2.583188
2.897249
4.288791
4.851795
6.224764
7.481355
8.67979
9.094061
10.01487
10.63835
11.09997
11.6164
12.17725
12.69225
12.61536
12.46456
11.9569