/*--------------------------------*- C++ -*----------------------------------*\
  =========                 |
  \\      /  F ield         | OpenFOAM: The Open Source CFD Toolbox
   \\    /   O peration     | Website:  https://openfoam.org
    \\  /    A nd           | Version:  6
     \\/     M anipulation  |
\*---------------------------------------------------------------------------*/
FoamFile
{
    version     2.0;
    format      ascii;
    class       volScalarField;
    location    "49.8";
    object      alphat;
}
// * * * * * * * * * * * * * * * * * * * * * * * * * * * * * * * * * * * * * //

dimensions      [1 -1 -1 0 0 0 0];

internalField   nonuniform List<scalar> 
203709
(
0.5633319
0.8976805
0.8874213
0.548416
0.6252738
1.041568
1.386912
1.709453
1.688729
1.337556
0.9834616
0.5921221
0.6003706
1.067754
1.518468
1.922235
2.034512
2.083821
2.055068
1.950209
1.794976
1.380275
0.9880641
0.5821396
0.469069
1.207835
1.741904
2.049919
2.192572
2.253279
2.268205
2.245276
2.190096
2.104609
1.963886
1.767593
1.282529
0.5861981
0.8051454
1.548503
1.853117
2.078106
2.258173
2.323435
2.338428
2.321959
2.285927
2.234663
2.154051
2.018352
1.752107
0.9796083
0.5303903
1.239199
1.809033
2.031283
2.163654
2.275265
2.368722
2.410054
2.364434
2.317268
2.2662
2.201381
2.097956
1.889575
1.326628
0.5695463
0.9139385
1.663889
1.945013
2.077491
2.147272
2.196565
2.252764
2.31639
2.318686
2.296188
2.242124
2.164531
2.045498
1.860768
1.559622
0.835356
0.4933223
1.224014
1.773924
1.979776
2.073638
2.113391
2.120849
2.115155
2.103612
2.084165
2.05775
2.022698
1.983097
1.930541
1.8411
1.657544
1.154329
0.4758607
0.8264068
1.447721
1.724453
1.930101
2.045432
2.099097
2.111813
2.101378
2.077681
2.053188
2.031276
2.00634
1.980798
1.948117
1.882941
1.750179
1.477027
0.7941313
0.8685074
1.532267
1.779807
1.926247
2.027252
2.096424
2.123227
2.113658
2.083843
2.051882
2.026261
2.002326
1.979682
1.949188
1.884112
1.750329
1.473209
0.783736
0.5527305
1.296711
1.821939
2.006903
2.094722
2.141402
2.161582
2.157171
2.128309
2.082673
2.036389
2.001806
1.974314
1.936185
1.856373
1.682821
1.185676
0.4838358
0.9733421
1.729704
1.993965
2.118866
2.178707
2.203375
2.203063
2.182095
2.139292
2.083539
2.029103
1.979035
1.919414
1.804751
1.567555
0.8723601
0.6015789
1.358808
1.902908
2.092708
2.178235
2.215966
2.223841
2.209741
2.176074
2.126421
2.063109
1.988037
1.889768
1.711994
1.226236
0.5355336
0.9825872
1.744034
1.998887
2.122764
2.182926
2.204838
2.197767
2.170425
2.125323
2.055111
1.958694
1.814211
1.569931
0.8799557
0.6005988
1.292719
1.769232
1.950219
2.067314
2.122645
2.133472
2.109411
2.055261
1.959392
1.816407
1.610471
1.166661
0.5335573
0.6082363
1.01727
1.39885
1.798167
1.920351
1.977545
1.95667
1.86612
1.703428
1.312072
0.9128483
0.5439717
0.6232258
1.018465
1.349086
1.664301
1.645167
1.317937
0.9496951
0.5806911
0.5660466
0.8981124
0.8849281
0.5577133
0.5942858
0.9422904
0.997363
1.009961
1.001108
0.9832137
0.9584278
0.9193749
0.8426943
0.5083405
0.6171156
1.061591
1.454044
1.814674
1.908465
1.955957
1.959358
1.927811
1.866758
1.776287
1.646344
1.277532
0.9011591
0.5112941
0.649403
1.406832
1.948224
2.169295
2.340024
2.462298
2.585479
2.652149
2.613331
2.479584
2.310183
2.147511
1.939118
1.693837
1.205451
0.5296227
0.6498553
1.46282
2.047941
2.4148
2.647006
2.897706
3.208331
2.863358
2.838266
2.791461
2.661985
3.014792
2.678274
2.40198
2.150983
1.808781
1.256008
0.5362352
0.6188993
1.44597
2.078406
2.443245
2.891789
3.356661
3.226029
3.430588
3.207872
3.141159
3.062779
2.900213
3.088235
2.94424
3.093184
2.660407
2.261383
1.870024
1.245981
0.521373
0.5694702
1.33972
1.961958
2.349416
2.916808
3.336877
3.886479
3.887586
3.958799
3.757314
3.591703
3.448772
3.277518
3.322044
3.229241
3.304549
2.599832
2.88951
2.319405
1.868654
1.220736
0.5036773
0.9238643
1.742683
2.176504
2.692065
3.49784
4.579846
5.577043
5.660064
5.3752
4.886529
4.430976
4.08383
3.81267
3.696234
3.577708
3.50267
2.727626
1.825703
2.773882
2.261992
1.77952
0.9353815
0.5401377
1.302402
1.950302
2.510388
3.495484
3.804651
5.84694
7.254202
8.018324
7.808129
6.896954
5.919862
5.241589
4.774856
4.483808
4.272067
4.05456
3.449089
2.042398
3.368021
2.625047
2.104193
1.360321
0.5233052
0.8622792
1.647992
2.222073
2.965187
2.890813
3.940785
5.605817
6.601273
7.704473
8.999162
9.480114
8.363441
7.289661
6.539854
6.031484
5.730449
5.458422
4.966695
3.531637
2.4185
3.214313
2.469723
1.809319
0.8763561
0.9383372
1.781669
2.442579
3.35546
2.574064
3.892536
4.533807
4.948695
5.501245
6.334525
7.531079
8.584856
8.696334
8.496748
8.049333
7.634861
7.126851
6.386132
5.361171
3.771083
3.863205
2.639609
1.879476
0.8855114
0.9978724
1.863972
2.599307
3.095277
2.799114
3.767359
4.120177
4.374033
4.601127
4.785047
4.947783
5.144366
5.338823
5.449742
5.418246
5.222047
4.931308
4.568729
4.131907
3.49308
2.724691
2.499346
1.827246
0.8750964
1.030001
1.967137
2.670631
3.057306
3.060967
3.815462
4.205626
4.422751
4.683955
4.847804
4.830352
4.661581
4.423777
4.203383
4.028187
3.884213
3.744506
3.590976
3.414809
3.156277
2.76081
2.516595
1.889204
0.9946594
1.035147
2.010171
2.698775
2.92007
3.045113
3.369568
3.562416
3.813269
4.220982
4.622854
4.809696
4.781664
4.570967
4.276238
3.992155
3.757324
3.569822
3.396212
3.226623
2.967255
2.669091
2.439976
1.806952
0.9222733
1.021027
1.978221
2.596473
2.776576
2.871764
2.988595
3.052981
3.236282
3.509905
3.816934
4.116569
4.351484
4.420667
4.30171
4.081123
3.843585
3.646682
3.443784
3.240447
2.994586
2.67565
2.27183
1.709369
0.8726073
0.9876865
1.890975
2.424391
3.123581
3.100376
3.140986
3.181
3.201389
3.260169
3.367718
3.510921
3.670475
3.815563
3.895388
3.875433
3.764812
3.632203
3.442379
3.174961
2.995993
2.775316
2.121538
1.62936
0.8327006
0.9147847
1.759631
2.258316
2.773955
2.928713
3.0124
3.074574
3.138281
3.179946
3.218184
3.26016
3.308791
3.363187
3.411944
3.44098
3.428606
3.39062
3.266659
2.937503
2.953291
2.489364
2.009715
1.545366
0.7800156
0.5680341
1.391449
2.063736
2.513446
3.166107
3.238767
3.268832
3.257647
3.241837
3.227908
3.211405
3.192365
3.169197
3.141336
3.12186
3.097703
3.092081
2.986803
2.548513
2.878408
2.265677
1.85693
1.23756
0.4947405
1.010306
1.85321
2.314167
2.797761
2.939536
3.039863
3.124878
3.171644
3.190109
3.191571
3.158211
3.09692
3.012227
2.960104
2.900872
2.918708
2.803955
2.742807
2.49022
2.069155
1.668377
0.9045029
0.6075857
1.392998
2.044102
2.475788
3.027412
3.05095
3.159032
3.200457
3.227506
3.202137
3.132864
3.045887
2.9125
2.880094
2.781162
2.830537
2.666276
2.633913
2.173124
1.816619
1.251575
0.5451418
0.6631972
1.504393
2.161972
2.547408
2.928053
3.351363
3.20993
3.229237
3.154615
3.04856
2.926242
2.754949
2.813469
2.707948
2.909778
2.524832
2.200927
1.887005
1.332362
0.5931672
0.6915515
1.53861
2.141933
2.450354
2.675766
2.931324
3.247285
2.981439
2.870094
2.775226
2.642428
2.974234
2.628209
2.36384
2.154737
1.893543
1.373196
0.6229917
0.6736779
1.450824
1.953689
2.187792
2.37912
2.512718
2.646584
2.72382
2.69018
2.550045
2.369484
2.207304
2.017973
1.818963
1.377413
0.6408437
0.6213504
1.05192
1.461741
1.846865
1.96244
2.030855
2.057955
2.04646
1.998315
1.917695
1.807677
1.449316
1.076372
0.6502356
0.5861585
0.9594513
1.036259
1.069554
1.084467
1.089565
1.086038
1.069047
1.019249
0.6404171
0.5809995
0.9216562
0.9670823
0.9585512
0.9301663
0.8866351
0.8042798
0.4811512
0.6336798
1.109244
1.262507
1.59518
1.913494
1.946866
1.91638
1.863905
1.795805
1.686017
1.333932
0.9999129
0.8373321
0.4732441
0.7664597
1.62616
2.224189
2.475019
2.629258
2.690841
2.687055
2.637089
2.572692
2.500243
2.403299
2.251851
2.009033
1.723886
1.243988
0.5711142
0.6515126
1.210018
1.874045
2.618171
3.182792
2.739232
2.761717
2.80808
2.80351
2.753423
2.695921
2.629897
2.54251
2.43126
2.333683
2.533334
2.053302
1.418802
0.8765885
0.4717206
0.6537628
1.528138
2.303877
2.946768
2.819954
3.339459
2.968239
2.972247
2.999955
2.999269
2.955874
2.911289
2.859127
2.785822
2.70609
2.626657
2.661162
2.294357
2.263805
1.6867
1.100239
0.464332
0.6141936
1.482333
2.287155
3.045695
3.081809
3.006637
3.555229
3.273173
3.225036
3.233719
3.237504
3.201814
3.162549
3.115749
3.039533
2.964386
2.910527
2.931556
2.577449
2.467458
2.269404
1.644685
1.017889
0.4225227
1.09339
2.130515
2.920385
3.140022
3.248898
3.258688
3.771155
3.622267
3.563179
3.5517
3.542836
3.501616
3.453077
3.398165
3.329943
3.269391
3.226157
3.31455
2.998312
2.885287
2.64164
2.20707
1.592181
0.8125451
0.6839194
1.675326
2.686136
3.020604
3.340708
3.571276
3.655307
4.140945
4.13557
4.092525
4.040568
3.975933
3.899497
3.82865
3.764376
3.711092
3.656254
3.624125
3.692268
3.447444
3.283221
2.815867
1.802461
2.355846
1.372925
0.5058624
0.5454995
1.449622
2.331059
2.852558
3.297339
3.82962
4.267279
4.557238
5.119299
5.260901
5.20086
5.034796
4.815106
4.578177
4.383148
4.244569
4.166123
4.092948
4.061501
3.933094
3.833041
3.586077
3.124395
2.18899
1.390746
2.141921
1.166721
0.3767599
0.9377923
1.941716
2.821891
3.113116
3.850725
4.58753
5.300827
5.978351
6.920665
7.45334
7.4261
6.985233
6.381967
5.795528
5.33172
5.005216
4.802995
4.659889
4.554345
4.219737
3.620715
3.602303
3.322871
2.864683
1.779792
2.745423
1.779224
0.7304538
1.085886
2.198125
3.011893
3.58417
4.534467
5.443044
6.308303
7.231624
8.780859
10.02015
10.61234
10.2192
9.171716
7.964403
7.045
6.404003
5.984698
5.70042
5.453741
5.008596
4.029456
3.935053
3.633459
3.224009
2.332568
1.531325
2.138018
0.9492355
0.5122617
1.427233
2.418565
3.16976
4.028779
4.975939
5.62965
6.175267
7.15402
8.471804
9.668098
11.02333
12.36735
12.67112
11.36354
10.05192
9.047544
8.328391
7.88521
7.532697
7.067457
6.141385
5.000083
4.514128
3.865132
3.104596
1.84094
2.344928
1.274844
0.3912256
0.8418771
1.764153
2.54086
3.217194
4.299011
5.047199
5.247041
5.326504
5.977851
6.436507
6.901662
7.66323
8.876291
10.4794
11.77326
11.99985
11.73898
11.16424
10.5548
9.882885
8.966068
7.835916
6.467092
5.84008
4.920179
3.810432
2.069014
2.445281
1.642784
0.7359786
0.9144057
1.843714
2.592844
3.141316
4.252923
5.023547
4.949601
4.813655
5.256152
5.490339
5.752082
6.081249
6.400517
6.713256
7.048509
7.342934
7.500061
7.467928
7.233417
6.904847
6.534106
6.155624
5.740678
5.402275
5.148581
4.52655
3.09818
2.797194
1.910561
0.8601436
0.9454029
1.877827
2.611844
3.041444
3.963392
4.770365
4.873322
4.703333
5.181975
5.529037
5.767143
6.066812
6.31803
6.379696
6.249557
6.00956
5.761497
5.559775
5.400505
5.266866
5.142123
5.027986
4.910498
4.738421
4.499735
4.134037
3.5043
2.648466
1.761495
0.7506967
0.9597448
1.897512
2.621031
2.971081
3.659945
4.327793
4.583845
4.575681
4.726256
4.836918
4.978375
5.369826
5.859486
6.152054
6.197908
6.006607
5.681248
5.347319
5.06729
4.855804
4.680351
4.525306
4.349333
4.081866
3.768602
3.385303
2.905386
2.403599
1.632408
0.7558001
0.955106
1.899299
2.621411
2.931789
3.440848
3.942441
4.209151
4.289837
4.30767
4.21139
4.213616
4.40679
4.709159
5.060659
5.378234
5.526868
5.45409
5.236918
4.978314
4.752129
4.536458
4.327656
4.107303
3.829506
3.523992
3.156458
2.717816
2.251032
1.539681
0.7141873
0.8989202
1.845714
2.590699
2.89175
3.297737
3.676875
3.924347
4.029176
4.029467
3.971337
3.943299
3.995639
4.115799
4.275619
4.450732
4.615227
4.721922
4.731659
4.649052
4.527133
4.357973
4.131769
3.888665
3.625428
3.37281
3.048407
2.716629
2.205812
1.483222
0.6565729
0.5558214
1.520284
2.498113
2.799809
3.160691
3.487616
3.72879
3.867557
3.903855
3.879223
3.873318
3.891466
3.93208
3.980786
4.025853
4.064173
4.094118
4.112439
4.10936
4.088919
4.015372
3.835584
3.625047
3.369286
3.172105
2.87038
2.719023
2.160459
1.236456
0.4201273
1.206994
2.330545
2.646142
2.932621
3.266243
3.529645
3.718452
3.83518
3.898712
3.923095
3.948729
3.949954
3.929854
3.891509
3.842232
3.788279
3.741896
3.706602
3.690698
3.648122
3.503826
3.334868
3.127179
2.985029
2.670895
2.708458
2.036293
0.9846684
1.073716
2.113796
3.005614
3.137504
3.359181
3.579107
3.782681
3.95007
4.049526
4.080527
4.059506
4.009286
3.93928
3.849573
3.750908
3.649492
3.565267
3.495197
3.453249
3.395642
3.279793
3.095352
2.957718
2.868204
2.492134
2.730999
1.862014
0.8931656
0.618044
1.589458
2.542508
2.856431
3.112481
3.392425
3.633121
3.831815
3.972214
4.044727
4.051597
3.99495
3.901123
3.799073
3.685047
3.565638
3.472637
3.381694
3.310059
3.239689
3.10412
2.957754
2.905541
2.873095
2.732132
2.353113
1.431043
0.5381999
0.7574944
1.872698
2.955137
3.196035
3.4277
3.678298
3.859723
3.96602
4.009189
3.991784
3.923657
3.81684
3.701626
3.596958
3.482213
3.398684
3.301518
3.189709
3.14231
2.988377
2.925435
2.964696
2.965172
2.832984
1.761868
0.7013289
1.240934
2.372551
3.172995
3.38456
3.586392
3.733268
3.801664
3.813122
3.781264
3.722761
3.641409
3.547975
3.465582
3.389158
3.317106
3.221036
3.06271
3.103203
2.955727
3.003441
3.128108
3.199007
2.376509
1.210477
0.6660786
1.603713
2.423027
3.13522
3.262186
3.379689
3.480248
3.512551
3.502412
3.471591
3.431473
3.383283
3.337802
3.29323
3.231512
3.129627
2.969814
3.198954
3.019393
3.198377
3.463953
2.675089
1.74023
0.7094958
0.6780015
1.583679
2.300673
2.937017
2.961009
3.157382
3.20351
3.224686
3.232281
3.238373
3.241056
3.23752
3.223629
3.180039
3.094916
2.979158
3.479818
3.182469
3.556994
2.813389
1.913181
0.8029761
0.6370388
1.166852
1.833725
2.558054
3.072659
2.880124
2.92294
2.996071
3.065245
3.122374
3.16966
3.206696
3.213452
3.188169
3.117676
4.004378
3.363396
2.446117
1.584436
0.850635
0.7237727
1.559528
2.109066
2.426713
2.705099
2.877799
2.999047
3.098815
3.196418
3.292565
3.379652
3.445385
3.319829
3.051216
2.266202
1.058421
0.5882225
1.050816
1.260557
1.687796
2.131716
2.300235
2.429333
2.535728
2.618992
2.659501
2.314746
1.861807
1.650547
0.9252951
0.6397641
1.089493
1.229921
1.324731
1.388268
1.423412
1.399657
0.9049821
0.6105936
0.9724441
1.004221
0.9752251
0.8950399
0.5392657
0.6525472
1.145868
1.339618
1.510595
1.893678
2.24128
2.244754
2.173843
2.044018
1.634464
1.212443
1.026222
0.8492287
0.486658
0.6527955
1.266929
1.914659
2.590279
2.939832
2.023283
2.273649
2.477897
2.416062
2.299797
2.125709
1.841427
1.698113
2.219851
1.887269
1.367943
0.8812619
0.4603455
0.7674605
1.754557
2.705795
2.415911
3.012433
3.158802
2.478295
2.690103
2.763395
2.653105
2.520695
2.359986
2.171439
2.098946
2.244625
1.961062
1.730125
1.872298
1.223656
0.53331
0.8394034
1.961414
3.038184
3.07868
2.903503
3.510936
3.535827
2.97524
3.031205
3.017199
2.894977
2.78068
2.664152
2.559976
2.547024
2.561611
2.334635
2.167633
2.152765
2.13173
1.367671
0.5940133
0.8535739
2.068706
2.386425
3.342805
3.454965
3.459505
3.934436
3.871181
3.366628
3.317829
3.26324
3.159777
3.089318
3.033653
3.005218
3.037475
3.016101
2.813741
2.613581
2.375092
2.038821
1.616999
1.439727
0.5936817
0.8057711
2.046231
2.432949
2.773507
3.685417
3.869737
3.88726
4.281132
4.180926
3.698446
3.583663
3.519358
3.446519
3.424727
3.42374
3.450403
3.520973
3.495851
3.285593
3.026062
2.683771
2.260115
1.864263
1.628686
1.412204
0.5803431
0.692991
1.844058
2.3143
2.736388
3.14847
3.924806
4.158321
4.201769
4.556681
4.484492
4.047799
3.882903
3.809684
3.751761
3.755375
3.778698
3.847266
3.98215
3.995614
3.762751
3.429369
3.004167
2.528789
2.154503
1.934036
1.712765
1.382521
0.5260714
0.57158
1.587513
2.807689
2.614341
3.005342
3.386178
4.075815
4.355481
4.442745
4.803194
4.817768
4.477497
4.282965
4.18269
4.116709
4.131069
4.191984
4.27809
4.427967
4.499392
4.297151
3.966215
3.558462
3.065684
2.668782
2.369522
2.207128
2.27518
1.227121
0.4286274
1.07564
2.36213
2.877135
2.825215
3.177961
3.51936
4.204163
4.563565
4.7575
5.177554
5.319672
5.123377
4.924996
4.776552
4.661436
4.616809
4.64131
4.699535
4.802969
4.917381
4.796569
4.484177
4.109958
3.446287
2.604086
2.565474
2.449577
2.294821
1.947757
0.8372443
0.5548315
1.641439
2.336869
2.999362
3.014478
3.274097
3.649298
4.502279
5.048439
5.439581
5.980266
6.248316
6.181962
5.960795
5.692014
5.437256
5.258165
5.175973
5.162512
5.190147
5.255489
5.148559
4.915152
4.573559
3.999915
3.1753
2.437193
3.296202
2.92908
2.212453
1.334682
0.4205434
0.9626407
2.196308
2.486841
3.090969
3.131567
3.424245
4.047726
5.167294
6.075943
6.870386
7.778104
8.318081
8.332947
7.937466
7.359901
6.78255
6.325608
6.023339
5.851262
5.756898
5.703266
5.502053
5.073905
4.743126
4.329464
3.870178
3.163887
3.746735
3.918984
2.869392
1.957649
0.7665289
1.153126
2.527438
2.66127
3.168057
3.257621
3.772759
4.83253
6.262119
7.521169
8.765668
10.26723
11.4419
11.91665
11.50805
10.5057
9.306405
8.349128
7.672152
7.231429
6.945197
6.711752
6.362889
5.687515
5.210752
4.736371
4.293932
3.783314
3.481434
4.021992
3.148448
2.439251
0.9957167
1.341659
2.190233
2.747779
3.228588
3.434261
4.300114
5.736182
7.112795
8.209491
9.375163
10.67777
11.98071
13.37529
14.54568
14.64855
13.35251
12.03415
10.97058
10.19137
9.697174
9.315553
8.868651
8.101494
6.978015
5.972284
5.028301
4.288566
3.614918
3.797233
3.127973
2.181663
1.249701
0.5736768
1.795806
2.262661
2.806992
3.271755
3.592576
4.732377
6.306341
7.103104
7.497556
7.912712
8.265639
8.783552
9.683408
11.10774
12.84478
14.15087
14.41271
14.11428
13.49616
12.77128
11.98279
10.92652
9.77498
8.52131
7.526036
6.363682
5.038746
3.708338
3.583751
3.377659
2.399397
1.774931
0.4161084
0.9446815
2.189243
2.437478
2.875472
3.310339
3.686909
4.8382
6.42296
6.793626
6.635848
6.655878
6.712203
6.931311
7.324975
7.781328
8.246869
8.707144
9.067382
9.231094
9.171782
8.90812
8.574508
8.244928
7.952116
7.689673
7.461344
7.167834
6.488075
5.241132
4.786471
4.238041
2.726842
2.27795
0.7942833
1.022546
2.286523
2.57091
2.959423
3.360313
3.742891
4.708145
6.079997
6.510818
6.279802
6.367985
6.56379
6.81895
7.140558
7.479478
7.645554
7.596585
7.392334
7.138889
6.915585
6.742262
6.616324
6.530738
6.496945
6.524767
6.580854
6.627339
6.596024
6.341216
5.831559
4.975303
3.475447
1.845363
0.6101539
1.041831
2.320193
2.65605
3.046122
3.427521
3.801352
4.508405
5.541006
6.028812
5.956964
5.926835
5.934675
5.972574
6.290959
6.817577
7.187101
7.308183
7.162739
6.838989
6.474997
6.159613
5.928205
5.764544
5.656232
5.595994
5.543117
5.447073
5.266338
4.848523
4.172818
3.265738
2.307388
1.640064
0.6534276
0.9952278
2.281304
2.673055
3.104167
3.496976
3.864845
4.377596
5.05533
5.495677
5.565847
5.455209
5.247339
5.119348
5.252076
5.539707
5.89558
6.225828
6.394792
6.340276
6.123365
5.847688
5.594491
5.368252
5.160068
4.975256
4.778995
4.52024
4.251899
3.915508
3.455495
2.772167
2.103106
1.611294
0.6248284
0.6097798
1.910123
2.452013
3.010923
3.490666
3.897872
4.314237
4.766485
5.08371
5.205604
5.152342
4.969198
4.836008
4.857683
4.987369
5.149324
5.293291
5.398981
5.445334
5.413372
5.309937
5.17047
5.00012
4.783795
4.549789
4.304461
3.96391
3.623625
3.330931
3.114697
2.577759
2.088419
1.343708
0.3976663
1.529884
2.136372
2.666991
3.297983
3.811406
4.237094
4.609004
4.873743
4.995377
5.004877
4.95836
4.914937
4.914266
4.942103
4.965392
4.95795
4.913607
4.843831
4.766765
4.692915
4.625532
4.539
4.385814
4.179939
3.962961
3.641136
3.258426
2.941025
2.85626
2.381943
2.210906
1.045675
1.363104
2.942386
3.119801
3.521117
3.913561
4.270656
4.58676
4.834311
4.990555
5.05963
5.100969
5.142607
5.141835
5.101429
5.01893
4.896801
4.746428
4.584831
4.433102
4.306879
4.216274
4.139184
4.01686
3.849069
3.687825
3.417247
3.04716
2.70734
2.658955
2.149488
2.242648
0.9659619
1.159042
2.602619
3.082958
3.592903
4.02488
4.390391
4.694919
4.945961
5.146066
5.29851
5.376654
5.369381
5.327688
5.235253
5.088862
4.90261
4.694919
4.484696
4.292094
4.124071
3.995012
3.892324
3.75656
3.610533
3.512865
3.273684
2.930277
2.573952
2.586224
2.169387
2.035292
0.8594135
0.6476162
1.928767
2.563075
3.132078
3.772533
4.286988
4.682417
4.993086
5.240507
5.411492
5.488117
5.469222
5.371936
5.247781
5.090513
4.890359
4.668088
4.443253
4.234818
4.035822
3.881175
3.76654
3.605937
3.501196
3.480928
3.235085
2.907754
2.51265
2.630062
2.410011
1.5816
0.5203406
1.27998
2.743707
3.274646
3.771028
4.340398
4.792117
5.137365
5.372358
5.494224
5.514521
5.447308
5.317021
5.170047
5.012162
4.826091
4.615893
4.399681
4.188324
3.958882
3.80972
3.723815
3.555711
3.539677
3.609379
3.302101
2.953505
2.511856
2.759176
2.460002
1.108363
0.645683
1.786489
3.120437
3.685089
4.239448
4.663658
4.969996
5.176888
5.2731
5.272875
5.201134
5.09057
4.963191
4.824424
4.673393
4.502095
4.319703
4.108591
3.844569
3.777347
3.779302
3.625993
3.744661
3.888842
3.44786
3.064796
2.552403
3.100782
1.731436
0.6130497
0.7644778
2.015618
2.570616
3.15226
3.723592
4.175842
4.50895
4.714933
4.804041
4.811573
4.758503
4.663374
4.550359
4.43931
4.326107
4.197223
3.9846
3.706476
3.862061
3.99112
3.837974
4.104804
4.284897
3.611055
3.138806
2.689996
2.137719
0.8005264
0.8375877
2.138532
2.608323
3.055336
3.535074
3.91348
4.168088
4.320957
4.412514
4.383254
4.289391
4.209563
4.158046
4.117367
4.05466
3.854365
3.635059
4.148265
4.35845
4.162689
4.569662
4.614518
3.563183
3.092833
2.55391
0.9906719
0.8420852
2.084781
2.408601
2.963614
3.348371
3.594855
3.791938
3.975407
3.928681
3.849958
3.863825
3.919294
3.96541
3.969595
3.800799
3.726061
4.651754
4.851617
4.400635
4.731489
4.635575
3.313718
2.792973
1.11751
0.7898756
1.859178
2.858825
2.962124
2.961238
3.227736
3.54485
3.383494
3.404577
3.611985
3.814673
3.961902
4.047976
3.927092
3.944234
5.125056
5.049016
4.186075
4.558682
4.42157
2.804364
1.170117
0.6919242
1.628442
2.47596
2.293172
2.756214
3.237027
2.806772
3.042282
3.472395
3.783477
3.990115
4.118005
3.963624
3.855528
5.143783
4.740516
3.713596
4.131823
2.628664
1.119728
0.5986908
1.174608
1.843075
2.617626
3.161135
2.334893
2.759998
3.3675
3.709268
3.910328
4.004193
3.699779
3.470756
4.871429
4.214086
3.002821
1.968827
0.9867042
0.6605077
1.234631
1.530539
1.87372
2.560479
3.272322
3.579701
3.727943
3.747059
3.244503
2.600384
2.278176
1.891311
1.021864
0.8633575
1.486399
1.663016
1.718072
1.662184
1.054987
0.6158531
1.0803
1.25449
1.336086
1.342405
1.309206
1.243668
1.11412
0.9382838
0.5286265
0.6640954
1.261471
1.594824
2.117477
2.738478
1.848051
1.876342
1.831882
1.745738
1.66366
1.669245
2.242458
1.665483
1.185179
0.9437532
0.5147735
0.9343701
2.100862
1.952347
2.343812
2.787485
3.127982
2.523509
2.622239
2.493138
2.330636
2.195076
2.11279
2.165326
1.766644
1.485496
1.402269
1.546989
0.6913962
0.711039
1.505768
1.754298
2.746964
2.774064
3.392713
3.692789
3.805436
3.351217
3.246875
3.022598
2.814962
2.658884
2.545225
2.421771
2.11789
1.872243
1.673198
1.490129
1.203881
1.020327
0.5196916
0.7663436
1.972878
2.237016
2.537862
3.664148
3.862562
4.302129
4.374032
4.280369
3.855864
3.610445
3.348847
3.152139
3.020843
2.917785
2.777277
2.550171
2.337454
2.115926
1.865652
1.588283
1.396925
1.384956
0.5554863
0.7609966
2.057317
2.569511
2.999142
3.564664
4.491076
4.687154
4.915571
4.79829
4.558986
4.126905
3.831518
3.597727
3.463037
3.399225
3.35178
3.261173
3.105739
2.928092
2.71698
2.463079
2.175382
1.869414
1.612717
1.418869
0.5456662
0.7315156
2.017685
2.614612
3.223278
3.940088
4.427196
5.09124
5.226467
5.310606
5.074282
4.74562
4.312883
4.033766
3.87701
3.846407
3.888716
3.933489
3.919183
3.821833
3.658247
3.43463
3.156632
2.832954
2.470469
2.06359
1.71037
1.355001
0.4997782
0.6577532
1.897335
2.484388
3.23871
3.997914
4.639683
5.007063
5.463407
5.569159
5.596804
5.310444
4.934514
4.50882
4.273965
4.211845
4.301426
4.463085
4.606105
4.658792
4.586502
4.395664
4.10535
3.739908
3.332563
2.921102
2.524823
2.104079
1.719163
1.217768
0.4268363
1.329837
2.198598
3.018274
3.888738
4.545413
5.046171
5.326227
5.673227
5.796419
5.837665
5.585248
5.215353
4.792672
4.581349
4.587449
4.801264
5.093616
5.316278
5.403386
5.321934
5.060724
4.664786
4.177048
3.669841
3.227562
2.853354
2.475341
1.988762
1.400217
0.8423295
0.821835
1.982523
2.70995
3.586553
4.34182
4.850478
5.222551
5.456515
5.778568
5.972342
6.100368
5.965234
5.675061
5.294479
5.075024
5.075052
5.305935
5.63422
5.885264
6.000298
5.925071
5.600697
5.110013
4.521694
3.917983
3.434157
3.134214
3.000427
2.653058
1.800113
1.076488
0.4684167
0.5649761
1.883936
2.410115
3.226426
4.009602
4.615474
4.969653
5.239604
5.488569
5.911171
6.234761
6.510695
6.541132
6.361641
6.041802
5.782467
5.682184
5.795355
6.053294
6.294055
6.429824
6.413659
6.103758
5.582467
4.939873
4.155098
3.532568
3.506828
3.746292
3.387153
2.604757
1.739023
1.062422
0.3129429
1.072083
1.939366
2.732411
3.596834
4.28729
4.741422
4.960282
5.23468
5.621686
6.192066
6.702761
7.184496
7.415949
7.368339
7.10546
6.780823
6.52268
6.426404
6.493733
6.622174
6.718617
6.737953
6.512435
6.079639
5.519594
4.822161
4.111575
3.931532
4.809183
4.319713
3.221236
2.062419
1.278928
0.6100213
1.375977
2.138174
3.067978
3.860103
4.440357
4.769071
4.96363
5.314526
6.026118
6.945707
7.838851
8.718839
9.256839
9.32477
8.984187
8.441631
7.892064
7.481717
7.254655
7.161854
7.121061
7.063554
6.837299
6.377531
5.853181
5.332229
4.938979
4.78667
5.724779
5.387587
4.076556
2.815614
1.672391
0.8089561
0.5623745
1.940515
2.502497
3.373465
4.062209
4.528354
4.828404
5.056477
5.697168
6.945469
8.375706
9.819258
11.32942
12.44835
12.89985
12.55053
11.64675
10.52904
9.611104
8.960666
8.541158
8.264985
8.021288
7.668621
7.07918
6.447594
5.82647
5.417885
5.367039
5.941626
6.172864
4.948866
3.53234
2.080446
1.135066
0.303527
0.9958681
2.558031
2.955941
3.687007
4.255662
4.607743
4.926916
5.306074
6.450202
8.096585
9.594869
11.00737
12.4044
13.7713
15.13649
16.15175
16.13869
14.94812
13.72114
12.69857
11.93865
11.44099
11.05318
10.5596
9.714777
8.475405
7.175289
6.074372
5.574866
5.683258
6.160263
5.72424
4.323081
2.459271
1.598086
0.5666527
1.195448
2.155081
3.092633
3.912436
4.424606
4.707395
5.063886
5.625292
7.19333
8.594711
9.307231
9.728206
10.06023
10.63631
11.67986
13.18407
14.90864
16.13434
16.38517
16.06028
15.43125
14.62236
13.66952
12.52581
11.35981
10.11329
8.853006
7.392005
6.028146
5.338006
5.594405
5.99666
5.157866
2.666912
0.9957862
0.683832
1.342444
2.155172
3.236361
4.079068
4.571393
4.832604
5.215094
5.838851
7.452842
8.54597
8.39409
8.090122
7.93842
8.083414
8.487065
9.065881
9.672238
10.23788
10.63528
10.77541
10.66736
10.36899
10.04055
9.760063
9.541542
9.365586
9.161743
8.777885
7.982297
6.985002
6.80033
6.615457
5.456258
3.475084
1.325766
0.7820187
1.421601
2.205327
3.306474
4.186212
4.701679
4.966718
5.344368
5.926712
7.245793
8.179311
7.947249
7.582514
7.541355
7.757255
8.10495
8.522385
8.789836
8.826145
8.663191
8.405601
8.157194
7.968474
7.855255
7.818592
7.869709
8.021871
8.2463
8.480272
8.582009
8.342841
7.715976
6.534184
4.680484
2.840413
1.542823
0.8428455
1.446527
2.23559
3.335905
4.250333
4.814414
5.116189
5.444741
5.942944
6.870238
7.573279
7.499928
7.195634
7.018694
6.963782
7.179538
7.724052
8.146686
8.322732
8.210899
7.884031
7.491275
7.152456
6.926597
6.808431
6.774599
6.811669
6.880703
6.931701
6.862957
6.496911
5.749349
4.692881
3.498948
2.410699
1.516439
0.8600732
1.412954
2.209464
3.302479
4.261965
4.895266
5.259715
5.545266
5.939385
6.554975
7.028762
7.038601
6.766813
6.410298
6.132304
6.189395
6.465203
6.81765
7.128572
7.268759
7.185083
6.938417
6.640401
6.385899
6.200736
6.058711
5.934126
5.767601
5.53817
5.273933
4.902285
4.359252
3.652622
2.921954
2.278073
1.652141
0.8360151
1.308321
2.128032
3.02752
4.12742
4.888763
5.35529
5.665406
5.976791
6.378763
6.704862
6.751391
6.547718
6.214715
5.95085
5.926116
6.066446
6.238593
6.347064
6.362902
6.293287
6.157515
5.986844
5.822373
5.681521
5.541012
5.380744
5.138161
4.759663
4.352551
3.946021
3.518188
2.95638
2.402429
2.004428
1.842442
0.7821828
1.117253
2.885185
3.528369
4.402577
5.062947
5.518661
5.834982
6.09183
6.373884
6.612051
6.711131
6.633543
6.453216
6.33403
6.296778
6.299291
6.280682
6.196865
6.037242
5.8249
5.602344
5.410086
5.272371
5.181731
5.093675
4.980923
4.792955
4.446457
4.008402
3.561395
3.15474
2.611629
2.070264
1.662957
1.874287
0.7018846
0.6206146
2.212379
3.181612
4.31559
5.150444
5.694185
6.047949
6.304728
6.523366
6.725162
6.865634
6.940554
6.9871
6.975743
6.905885
6.77624
6.581055
6.322371
6.016028
5.691104
5.384305
5.130497
4.954759
4.853447
4.781291
4.716707
4.599667
4.341048
3.955372
3.49424
3.048332
2.494528
1.916739
1.513988
1.463149
0.4152015
1.64317
2.633779
3.940116
5.032569
5.774399
6.248654
6.565932
6.802441
6.994619
7.159799
7.308214
7.40798
7.424671
7.322498
7.11663
6.828312
6.480489
6.100473
5.719463
5.370176
5.081276
4.875782
4.752167
4.672127
4.651492
4.591076
4.402753
4.072311
3.599543
3.092099
2.509829
1.840271
1.519125
1.117177
1.253939
2.197026
3.26668
4.594027
5.597523
6.283206
6.744492
7.064641
7.307425
7.491122
7.590094
7.614209
7.574024
7.461573
7.240285
6.935172
6.573188
6.184488
5.799133
5.44629
5.15609
4.954253
4.838123
4.772871
4.831859
4.811976
4.655609
4.336716
3.810222
3.215535
2.573456
1.788019
1.67061
0.9405663
0.634507
2.129077
3.160177
4.380218
5.442
6.249686
6.824175
7.219418
7.47694
7.612923
7.645727
7.623247
7.547743
7.413506
7.190814
6.900778
6.566155
6.21185
5.860749
5.536197
5.289178
5.142225
5.086232
5.08818
5.283709
5.26472
5.084637
4.708961
4.063526
3.351248
2.625286
1.761843
1.734881
0.534297
0.9167304
2.089716
3.095338
4.337804
5.428854
6.239274
6.780275
7.118662
7.299362
7.348326
7.329934
7.260981
7.134578
6.943475
6.705423
6.439168
6.160394
5.880449
5.619172
5.490787
5.467835
5.533245
5.65272
6.00967
5.892822
5.61508
5.110078
4.300185
3.414106
2.604383
1.740724
0.8143129
1.497049
2.423507
3.422749
4.541445
5.442
6.067433
6.46518
6.687538
6.7715
6.778645
6.749673
6.679208
6.555472
6.3987
6.231876
6.061383
5.886253
5.739991
5.853348
6.011281
6.232855
6.465575
6.919067
6.565912
6.149892
5.373823
4.318016
3.287803
2.525612
1.467013
0.6734423
1.976891
2.687313
3.503478
4.36658
5.04187
5.509836
5.810607
5.978638
6.054069
6.102319
6.131035
6.0981
6.045085
6.008201
5.978254
5.946562
5.99382
6.485044
6.791021
7.131084
7.377642
7.795629
7.019917
6.270184
5.221235
3.997628
3.07687
2.253196
0.7749641
0.7183876
2.008495
2.60393
3.254956
3.903125
4.414492
4.817375
5.082896
5.275466
5.429088
5.572759
5.629966
5.710097
5.841684
5.982375
6.1303
6.436149
7.331792
7.641534
7.990183
8.085836
8.195213
6.804601
5.763471
4.588178
3.557129
2.600861
0.9285081
0.7081501
1.958255
2.410317
2.830064
3.315439
3.827506
4.150527
4.487447
4.821259
5.160163