/*--------------------------------*- C++ -*----------------------------------*\
  =========                 |
  \\      /  F ield         | OpenFOAM: The Open Source CFD Toolbox
   \\    /   O peration     | Website:  https://openfoam.org
    \\  /    A nd           | Version:  6
     \\/     M anipulation  |
\*---------------------------------------------------------------------------*/
FoamFile
{
    version     2.0;
    format      ascii;
    class       volScalarField;
    location    "49.8";
    object      alphat;
}
// * * * * * * * * * * * * * * * * * * * * * * * * * * * * * * * * * * * * * //

dimensions      [1 -1 -1 0 0 0 0];

internalField   nonuniform List<scalar> 
203709
(
0.6188114
1.005947
1.002159
0.6044057
0.6880232
1.308411
1.705135
1.977063
1.905967
1.477311
1.083095
0.6222515
0.6191137
1.107157
1.531026
2.106339
2.323426
2.327633
2.257201
2.09839
1.906426
1.418779
1.010822
0.5724518
0.6077857
1.336123
1.858459
2.078255
2.242772
2.350457
2.402596
2.390637
2.29448
2.158891
1.960033
1.735334
1.227307
0.5401668
1.000021
1.774365
2.031632
2.151034
2.213826
2.246913
2.257085
2.248129
2.221142
2.14082
1.987961
1.825065
1.54927
0.8342596
0.6179434
1.334768
1.866387
2.052377
2.146222
2.218736
2.252267
2.244366
2.202178
2.141667
2.075224
1.998879
1.88874
1.687453
1.162196
0.4854291
1.032271
1.696847
1.865087
1.904284
2.079433
2.216078
2.293512
2.321198
2.294279
2.223399
2.134083
2.039656
1.936315
1.788448
1.52051
0.8232206
0.6374647
1.458677
1.922805
2.007271
2.053808
2.14987
2.246937
2.332916
2.38905
2.397358
2.353013
2.270879
2.167437
2.051176
1.90828
1.6857
1.154687
0.4687333
1.022935
1.851423
2.102866
2.190128
2.253033
2.308117
2.361407
2.412997
2.449334
2.463973
2.447949
2.391861
2.304682
2.192582
2.044771
1.838991
1.511004
0.787119
1.021423
1.869626
2.168491
2.297771
2.369984
2.411005
2.447143
2.481838
2.50587
2.515724
2.505195
2.463948
2.396155
2.298578
2.153033
1.935044
1.583844
0.8259893
0.6430512
1.51519
2.126281
2.329476
2.421409
2.466472
2.495782
2.522512
2.544249
2.549899
2.534265
2.498797
2.441436
2.348868
2.198588
1.93699
1.330161
0.5385765
1.11934
1.986838
2.281721
2.414873
2.478323
2.51521
2.541476
2.560032
2.561711
2.543989
2.50893
2.449941
2.350695
2.174919
1.849007
1.023562
0.6833896
1.5528
2.16558
2.368937
2.463301
2.516549
2.547811
2.562011
2.557789
2.535303
2.492187
2.42125
2.300545
2.06867
1.461475
0.6372437
1.113123
1.971757
2.258478
2.405338
2.48707
2.529941
2.540824
2.528378
2.495134
2.434007
2.338895
2.179498
1.886742
1.063866
0.6762598
1.474444
2.021198
2.241997
2.384134
2.45465
2.473204
2.452315
2.396678
2.299528
2.145129
1.923384
1.398886
0.6439502
0.695797
1.168151
1.634184
2.092498
2.238286
2.30481
2.283932
2.180488
2.01193
1.556886
1.11374
0.6603536
0.7107112
1.172505
1.583186
1.959571
1.953375
1.564952
1.162228
0.7042748
0.6656318
1.078779
1.08992
0.6791476
0.6403578
1.052458
1.147996
1.194549
1.201639
1.177403
1.130367
1.060161
0.9524589
0.5664144
0.6258012
1.11283
1.562399
2.000365
2.169219
2.289717
2.337968
2.30536
2.205042
2.053782
1.862291
1.418581
1.003241
0.5640471
0.6532834
1.424716
1.998671
2.283701
2.528464
2.746957
2.980222
3.133201
3.110744
2.928466
2.682946
2.443617
2.166584
1.882737
1.33385
0.5929947
0.6605016
1.48458
2.043233
2.412505
2.7322
3.110024
3.593153
3.338898
3.385892
3.351963
3.181375
3.501375
3.062382
2.707353
2.404926
2.025282
1.394721
0.6073085
0.6489924
1.499872
2.137959
2.581488
3.163467
3.851092
4.030645
4.650107
4.250426
4.066635
3.85454
3.532547
3.633232
3.429537
3.50154
2.985815
2.53783
2.099608
1.412057
0.6043146
0.6159658
1.444505
2.144607
2.749418
3.697793
4.077406
5.197318
5.5403
6.973683
6.910221
6.103557
5.254601
4.466506
4.20539
3.887074
3.877263
2.959701
3.224766
2.582665
2.084115
1.374667
0.5851358
1.047551
1.978532
2.560599
3.339481
3.271562
4.144816
5.369537
6.11061
7.094643
7.84165
8.212068
7.807065
6.33949
5.458344
4.750378
4.336885
3.372495
2.446929
3.088302
2.513295
1.970998
1.04078
0.6063512
1.511507
2.252036
2.83938
3.7675
2.824433
3.94497
4.505661
4.830161
5.22177
5.74292
6.358546
6.995611
7.392012
7.163054
6.561113
5.954198
5.186985
3.718038
4.129273
3.055531
2.354052
1.493642
0.5746566
1.002436
1.945489
2.493097
3.12202
3.350692
2.900288
3.719937
4.010501
4.204845
4.483704
4.818662
5.144428
5.421724
5.648631
5.790128
5.8544
5.768655
5.441469
4.372397
3.409091
3.252521
2.427194
1.78311
0.8734895
1.097389
2.10432
2.70405
3.532052
3.469514
2.874204
3.408134
3.462677
3.628771
3.901673
4.222736
4.563996
4.843789
4.975187
4.924034
4.745362
4.507441
4.190544
3.725451
2.938105
3.043478
2.289689
1.74302
0.8717807
1.145908
2.213535
2.916219
3.456937
3.590219
3.158623
3.240235
3.168655
3.204615
3.376626
3.623338
3.915369
4.205072
4.428488
4.523618
4.457598
4.244292
3.91087
3.445481
2.54713
1.74973
2.37072
1.778545
0.8867631
1.170215
2.275303
3.065383
3.409399
3.616802
3.437241
3.347213
3.228179
3.171823
3.217598
3.352508
3.536002
3.730633
3.900788
4.023737
4.067939
4.009038
3.816327
3.44039
2.908741
2.290329
2.509515
1.83531
0.9132138
1.177547
2.28568
3.073311
3.352744
3.581078
3.576511
3.498932
3.378852
3.291904
3.278907
3.338683
3.437019
3.544185
3.633237
3.694189
3.716242
3.69106
3.577933
3.26504
2.712292
2.299208
2.566224
1.878388
0.9415154
1.167881
2.242949
2.939522
3.220096
3.433021
3.552033
3.54412
3.486182
3.452618
3.452851
3.480888
3.521598
3.55765
3.573739
3.56572
3.530675
3.465367
3.327164
2.939907
2.245454
2.455503
2.497643
1.882928
0.9610142
1.133658
2.148222
2.743715
3.533064
3.624775
3.735853
3.781958
3.775858
3.73624
3.705241
3.688357
3.676542
3.656986
3.617374
3.556557
3.473752
3.366899
3.167839
2.583815
1.850944
3.059737
2.369318
1.841038
0.958367
1.051777
2.000592
2.552966
3.133123
3.407329
3.592002
3.715558
3.778897
3.812378
3.829028
3.830408
3.810013
3.762443
3.685364
3.592861
3.483522
3.363412
3.109132
2.248289
2.061615
2.785863
2.269205
1.759484
0.9114125
0.6468603
1.582461
2.328506
2.825245
3.559278
3.741714
3.872843
3.934645
3.961491
3.97945
3.968738
3.925434
3.84778
3.739263
3.640159
3.530364
3.446092
3.159147
2.128539
3.33892
2.63484
2.1526
1.429052
0.5732198
1.167078
2.11243
2.615793
3.156333
3.416922
3.624248
3.811316
3.9358
4.005196
4.018349
3.971252
3.878815
3.749299
3.690781
3.605221
3.625078
3.364953
2.781178
3.097033
2.560247
2.031297
1.079204
0.6875057
1.596554
2.341773
2.840886
3.486974
3.607434
3.826158
3.945915
4.031078
4.004435
3.930309
3.842043
3.703619
3.755185
3.677865
3.806572
3.567159
3.566085
2.937624
2.440988
1.634539
0.6727438
0.7373386
1.707846
2.450627
2.883095
3.313496
3.8051
3.729026
3.88265
3.823456
3.778293
3.727878
3.607736
3.878846
3.754094
4.1264
3.628575
3.226857
2.806421
1.96387
0.8338287
0.7299913
1.666371
2.32908
2.681027
2.967257
3.308482
3.761072
3.537648
3.615658
3.668875
3.60192
4.214733
3.841776
3.595911
3.3684
3.025512
2.204391
0.9705863
0.701365
1.552758
2.128937
2.458509
2.753453
3.021936
3.337408
3.616687
3.736194
3.681997
3.563081
3.481308
3.311693
3.007078
2.2797
1.049392
0.6685807
1.185616
1.73948
2.278996
2.541975
2.774419
2.951666
3.05648
3.097255
3.081581
2.994458
2.439381
1.775217
1.057639
0.7481778
1.280273
1.45162
1.573518
1.657216
1.711676
1.748762
1.754277
1.678522
1.051531
0.6557066
1.065256
1.140131
1.145747
1.115825
1.059246
0.9518796
0.5631858
0.6685146
1.210356
1.409595
1.812601
2.225368
2.312921
2.30558
2.244634
2.146502
1.990263
1.558893
1.169037
0.9594286
0.5330925
0.8041868
1.713665
2.411696
2.76004
2.996654
3.149632
3.22182
3.200286
3.115494
2.991965
2.827096
2.616423
2.339134
1.971132
1.403994
0.6339316
0.679985
1.263164
1.960165
2.741767
3.424187
3.072106
3.199587
3.37855
3.503486
3.49776
3.397882
3.244386
3.041297
2.81996
2.613149
2.892438
2.321275
1.611926
0.9624921
0.4759308
0.6880585
1.596795
2.38453
3.057783
2.929651
3.572256
3.336013
3.479551
3.674279
3.85403
3.899145
3.813792
3.642708
3.403391
3.153397
2.898339
3.077676
2.620307
2.622522
1.947462
1.191837
0.45652
0.6566718
1.568543
2.376846
3.131185
3.205628
3.151011
3.872556
3.758569
3.852889
4.016116
4.194957
4.278123
4.227885
4.064714
3.809337
3.53279
3.254996
3.325499
2.947884
2.926216
2.725714
1.970465
1.1794
0.4403386
1.17762
2.253857
3.030001
3.306995
3.520405
3.729905
4.614634
4.679556
4.729244
4.751664
4.7633
4.745771
4.661118
4.486083
4.25731
3.995974
3.727316
3.660134
3.372015
3.178754
2.628752
2.739438
1.934601
0.9148997
0.7533946
1.830172
2.855275
3.257561
3.746752
4.317851
4.958111
5.990848
6.377749
6.528171
6.497449
6.171419
5.763374
5.428811
5.120501
4.856022
4.557353
4.302879
4.12086
3.821128
3.516374
2.831877
2.055225
2.670025
1.598786
0.616436
0.6104865
1.617259
2.564217
3.034976
3.697743
4.545962
5.413082
6.346983
7.354197
8.19573
8.855475
9.458582
9.194921
8.132439
7.09224
6.163698
5.622454
5.219276
4.944538
4.559146
4.324196
3.947298
3.415316
2.453956
1.540344
2.393692
1.449804
0.5411134
1.069654
2.177331
3.102933
3.344633
4.280067
5.238251
6.010245
6.657623
7.425526
8.283658
9.160986
10.18347
10.9782
11.17696
10.41983
8.657445
7.35969
6.39001
5.787307
5.168369
4.488338
4.284833
3.918169
3.327025
1.964127
3.066974
2.096825
1.018307
1.262336
2.486806
3.050539
3.590184
4.683938
5.57995
5.901016
5.931086
6.211023
6.418542
6.697471
7.170955
7.884989
8.796966
9.710121
10.18961
9.807684
8.855788
7.92082
7.034956
5.98561
5.642461
5.121733
4.488355
3.147471
1.8875
2.515815
1.234485
0.6023611
1.679494
2.766976
3.131817
3.708989
4.759773
5.625091
5.609196
5.255844
5.280116
5.292923
5.456775
5.775909
6.236626
6.717359
7.161657
7.549265
7.811213
7.925753
7.868621
7.481735
6.697395
5.993449
5.58004
5.056592
4.29154
2.669692
2.900023
1.676464
0.5730347
1.003733
2.083711
2.931571
3.227529
3.764889
4.674923
5.43986
5.399544
4.84984
4.656446
4.476306
4.570782
4.880367
5.314658
5.7938
6.211465
6.453947
6.459798
6.291235
6.049497
5.723926
5.339904
4.900819
4.667754
4.380741
3.877657
2.643678
2.825199
1.942734
0.8796803
1.102443
2.193531
3.020816
3.311075
3.795234
4.539379
5.192591
5.199232
4.742388
4.398831
4.068063
3.970703
4.150424
4.464374
4.850129
5.243151
5.567442
5.742384
5.725677
5.52524
5.190915
4.779768
4.306025
3.929268
3.854573
3.384816
2.388186
2.624362
1.848551
0.8602142
1.15141
2.252728
3.074516
3.374746
3.816667
4.413443
4.951765
5.048143
4.752142
4.435616
4.122083
3.953262
3.971464
4.120531
4.343302
4.58702
4.807307
4.971287
5.049426
5.013236
4.843167
4.530085
4.15547
3.87183
3.662535
3.153839
2.15913
2.528368
1.785327
0.8352722
1.177392
2.292513
3.112379
3.414727
3.826387
4.315662
4.759136
4.933014
4.816045
4.598604
4.344769
4.160652
4.087793
4.121243
4.225417
4.35504
4.468326
4.540056
4.560196
4.525518
4.419723
4.18378
3.847446
3.676817
3.523246
3.044183
2.01089
2.535955
1.786161
0.8354626
1.175137
2.304916
3.130512
3.423884
3.809377
4.228619
4.610778
4.836303
4.861234
4.750417
4.587005
4.43165
4.335338
4.310985
4.338725
4.383642
4.411333
4.400818
4.345147
4.248218
4.103444
3.827195
3.472062
3.477743
3.366569
2.941213
1.942738
2.579471
1.810233
0.843253
1.111236
2.251714
3.108044
3.385456
3.743318
4.115892
4.472502
4.740428
4.866984
4.856017
4.781411
4.676466
4.599847
4.566866
4.56058
4.551009
4.511822
4.431497
4.308807
4.151374
3.952668
3.583958
3.238858
3.361546
3.254907
2.846124
1.962518
2.614172
1.803003
0.8203324
0.6827811
1.875468
3.027206
3.281733
3.605697
3.943258
4.280995
4.571576
4.760158
4.830428
4.828428
4.81679
4.819029
4.82861
4.820789
4.774057
4.678747
4.539996
4.362027
4.158316
3.930249
3.503394
3.35808
3.390301
3.285515
2.823284
2.162651
2.610149
1.525586
0.5264999
1.488134
2.853356
3.159699
3.415269
3.726815
4.035312
4.327473
4.569421
4.74934
4.882364
5.009569
5.096574
5.126351
5.089027
4.988694
4.837742
4.655474
4.439464
4.212048
4.007999
3.62823
3.662195
3.620591
3.507152
2.898216
2.753126
2.521026
1.234115
1.258551
2.533362
3.626046
3.814777
4.027534
4.255347
4.516339
4.797931
5.03484
5.206962
5.325977
5.37823
5.347762
5.245097
5.094853
4.915808
4.725908
4.499078
4.283129
4.195849
3.981838
3.97266
3.978697
3.879749
3.087403
3.559396
2.362259
1.116631
0.6725353
1.816543
2.964292
3.410207
3.783134
4.153041
4.500661
4.812736
5.068217
5.242663
5.326643
5.331496
5.274754
5.172885
5.045742
4.901618
4.746532
4.537636
4.373473
4.499124
4.326817
4.384706
4.437776
4.34054
3.899458
3.151993
1.838295
0.6731912
0.8156826
2.093355
3.323346
3.708792
4.080929
4.406931
4.647675
4.837312
4.94404
4.980356
4.974154
4.957982
4.944407
4.918362
4.856306
4.751784
4.598152
4.512061
4.892422
4.606555
4.792671
4.842464
4.578139
4.014556
2.370397
0.9093789
1.261436
2.466893
3.330649
3.635143
3.928509
4.111172
4.331083
4.414446
4.464088
4.534182
4.642584
4.744336
4.815722
4.849393
4.799011
4.721824
4.731135
5.308563
4.853888
5.146654
5.121346
4.736831
3.359844
1.626301
0.6516542
1.607679
2.457549
3.226089
3.449441
3.553254
3.930064
3.961132
4.079407
4.276149
4.513412
4.712918
4.854702
4.944084
4.944793
4.930764
5.021832
5.701108
5.074309
5.342832
5.291472
3.883319
2.426841
0.9557735
0.664801
1.589186
2.382881
3.142133
3.153151
3.811202
3.697812
3.926711
4.253553
4.592485
4.842088
5.009819
5.124737
5.159505
5.18602
5.233643
5.89257
5.107961
5.361718
4.134983
2.695507
1.104747
0.6576793
1.270688
2.065165
3.001149
3.937085
3.59914
3.951116
4.361603
4.728533
4.96296
5.117592
5.236764
5.280073
5.249911
5.192494
5.893955
4.883941
3.513891
2.23819
1.166299
0.8852804
1.999168
2.947482
3.569556
4.069974
4.490627
4.809109
5.000034
5.131754
5.245098
5.2782
5.163464
4.797811
4.225058
3.108664
1.457024
0.8243302
1.572521
1.926938
2.586206
3.339297
3.631212
3.784325
3.871664
3.918654
3.851513
3.189469
2.502705
2.146544
1.220482
0.9698045
1.655546
1.852614
1.943188
1.981794
1.981119
1.880136
1.170502
0.6987837
1.132795
1.189618
1.165611
1.071433
0.6418625
0.6973627
1.265997
1.495425
1.721558
2.19402
2.640641
2.687117
2.621163
2.465474
1.968991
1.463133
1.211649
0.9760147
0.5482746
0.6904811
1.357512
2.058201
2.860152
3.278125
2.392837
2.719838
3.072634
3.048004
2.913574
2.689602
2.245588
1.947325
2.629894
2.200831
1.589173
1.012134
0.515906
0.8144386
1.872395
2.896249
2.578486
3.323412
3.694229
2.984762
3.383222
3.656165
3.558125
3.355537
3.082767
2.663931
2.371115
2.805094
2.383627
1.987212
2.154576
1.360842
0.5620206
0.8959348
2.101043
3.245386
3.332576
3.082847
3.886411
4.25058
3.696104
4.005059
4.24268
4.103189
3.851176
3.549588
3.148379
2.903105
3.206167
2.805766
2.431287
2.457451
2.335889
1.417257
0.5836951
0.9186666
2.240194
2.548632
3.543708
3.742179
3.665584
4.349806
4.70361
4.305
4.550435
4.805036
4.691436
4.419516
4.09881
3.698731
3.444564
3.68904
3.316645
2.938359
2.818512
2.378006
1.651184
1.44022
0.5832225
0.8727095
2.23199
2.634629
2.987041
3.881662
4.142324
4.089125
4.675002
5.029419
4.767309
4.975214
5.273189
5.261408
5.032444
4.71316
4.307926
3.999754
4.193602
3.881992
3.447036
3.304813
2.793468
2.019906
1.716373
1.410718
0.5529769
0.7645786
2.02594
2.523242
2.979022
3.381209
4.109664
4.384776
4.350256
4.913796
5.309094
5.183654
5.348211
5.643676
5.741642
5.610021
5.332034
4.946153
4.640809
4.759207
4.584337
4.144174
3.950295
3.513967
2.666715
2.273709
1.989239
1.275689
0.478586
0.6407487
1.774237
3.098324
2.990753
3.321043
3.643335
4.277161
4.595908
4.740079
5.482593
5.955885
5.973494
6.060186
6.229586
6.30531
6.225978
6.010898
5.675465
5.352213
5.29264
5.156177
4.799354
4.529885
4.07086
3.501923
2.891187
1.9101
2.266107
1.171505
0.3930315
1.230361
2.660979
3.212802
3.324755
3.588314
3.863115
4.568968
5.139197
5.726837
6.824632
7.496502
7.676309
7.653063
7.461636
7.169137
6.899977
6.618537
6.315634
5.99872
5.814324
5.630215
5.316135
4.990555
4.458679
3.694432
3.480011
2.574046
1.915528
2.239161
0.910686
0.6319339
1.880673
2.559883
3.324504
3.619023
3.823429
4.200453
5.218967
6.231563
7.405726
8.755344
9.776417
10.48654
10.88914
10.5658
9.578799
8.559277
7.628191
7.033862
6.611215
6.326956
6.037087
5.727428
5.360899
4.859576
4.054997
3.086288
3.010984
2.346217
1.478998
1.631871
0.5338629
1.141527
2.56087
2.886236
3.534982
3.861419
4.06808
4.752806
6.143541
7.366181
8.49594
9.504593
10.38527
11.30965
12.30747
13.05953
13.13906
12.23489
10.46944
9.006564
7.891686
7.177869
6.617289
6.0719
5.662971
5.225857
4.633298
3.561934
3.382924
2.908303
1.724638
2.281164
0.9981938
1.396322
3.006074
3.251494
3.773458
4.097964
4.360555
5.319547
6.871136
7.693328
8.030389
8.111076
8.13131
8.350892
8.869762
9.663982
10.71268
11.72565
12.22069
11.7718
10.66807
9.549706
8.5702
7.656411
7.059537
6.49616
5.853199
4.883974
3.662695
3.230072
2.030972
2.760968
1.232237
1.647615
2.394738
3.154432
3.855152
4.283384
4.628589
5.683652
7.153531
7.492388
7.107301
6.673924
6.423503
6.506606
6.826951
7.364283
7.949077
8.506615
8.997317
9.32252
9.445692
9.392827
8.976161
8.33475
7.717055
7.232448
6.702817
6.001409
4.859198
4.326858
3.040078
1.759976
1.499093
0.7006916
2.189793
2.606616
3.235218
3.89998
4.407455
4.822605
5.802042
7.068314
7.283671
6.484424
5.788535
5.385725
5.422571
5.739538
6.257009
6.827042
7.326001
7.628221
7.662029
7.495037
7.248234
6.918403
6.583358
6.267694
6.04367
5.784007
5.38381
4.693624
4.486354
3.853007
2.350959
2.04625
0.6254028
1.184852
2.708149
2.968782
3.415714
3.96784
4.491958
4.954414
5.766349
6.759066
6.977182
6.287946
5.50429
4.910834
4.69414
4.90213
5.286594
5.7487
6.210312
6.58344
6.781344
6.766638
6.554978
6.210053
5.824611
5.465826
5.183048
4.93511
4.564202
4.081575
4.007756
3.515229
2.347388
2.320818
0.9499
1.298503
2.882187
3.192091
3.58275
4.048842
4.551979
5.036384
5.692933
6.418505
6.649904
6.242682
5.609385
5.061537
4.767156
4.758169
4.928903
5.19688
5.488944
5.739358
5.902225
5.954096
5.883719
5.692518
5.402403
5.090429
4.82955
4.531107
4.111177
3.600658
3.534008
3.050431
2.169484
2.13025
0.8705844
1.309979
2.941211
3.318119
3.711424
4.125366
4.590825
5.0681
5.617402
6.163299
6.394393
6.231137
5.842646
5.422762
5.117094
4.972715
4.985751
5.108721
5.272144
5.40566
5.462925
5.432476
5.32862
5.167633
4.942137
4.690042
4.503549
4.260049
3.850091
3.279337
3.215676
2.743161
2.005097
1.972217
0.7978852
1.229506
2.881804
3.355527
3.793681
4.183624
4.605198
5.050644
5.528194
5.977216
6.228399
6.225707
6.0486
5.773558
5.516163
5.343297
5.28764
5.321983
5.384853
5.412243
5.364181
5.233494
5.042582
4.820391
4.558181
4.309817
4.189595
4.012365
3.650984
3.09137
3.028304
2.556207
1.919971
1.868532
0.7459918
0.7449225
2.433117
3.085683
3.678578
4.130096
4.544696
4.960087
5.390625
5.797594
6.083702
6.191336
6.163216
6.033778
5.870439
5.760179
5.725678
5.730699
5.716658
5.636258
5.470713
5.228503
4.945914
4.65615
4.335188
4.08637
3.994936
3.842299
3.502771
3.006736
2.919368
2.386837
1.96983
1.561022
0.4709639
1.890643
2.763952
3.400481
3.993799
4.43092
4.808811
5.189025
5.567883
5.877695
6.064422
6.148036
6.180039
6.199543
6.237534
6.270218
6.250643
6.142646
5.936368
5.644064
5.291621
4.939313
4.61897
4.284066
4.104538
4.033205
3.857745
3.480019
3.052063
2.891945
2.203854
2.301552
1.249372
1.568446
3.538873
4.160821
4.701515
4.995177
5.173013
5.354522
5.596883
5.85277
6.08251
6.333047
6.583453
6.779145
6.889265
6.880353
6.738895
6.48066
6.137673
5.737654
5.312293
4.963902
4.694766
4.426702
4.372233
4.354413
4.091909
3.617558
3.210495
2.957173
2.099211
2.650105
1.147617
1.232852
2.927877
3.663435
4.51533
5.166913
5.591962
5.856583
6.11772
6.41837
6.769917
7.08245
7.336069
7.457827
7.412755
7.211158
6.893287
6.512754
6.106402
5.678909
5.268974
5.061026
4.945833
4.807056
4.909017
4.941371
4.477926
3.880145
3.359926
3.121508
2.347158
2.421442
1.013858
0.6638899
2.086728
2.923891
3.770537
4.614819
5.303539
5.855459
6.346674
6.770791
7.110256
7.355589
7.477962
7.434005
7.220724
6.909488
6.567821
6.236014
5.911596
5.560111
5.279268
5.37136
5.452367
5.422635
5.711166
5.718955
4.903845
4.192502
3.447202
3.372977
2.9652
1.875805
0.6108518
1.293638
2.865061
3.580463
4.2064
4.835162
5.352778
5.832413
6.239249
6.515584
6.67135
6.74105
6.626085
6.402238
6.206884
6.063372
5.941113
5.79165
5.569475
5.511857
5.998872
6.191849
6.216163
6.643115
6.521505
5.272272
4.422404
3.549458
3.60768
2.98468
1.297449
0.6375918
1.798904
3.177299
3.383295
3.867492
4.297354
4.774066
5.182843
5.393897
5.576101
5.769948
5.646474
5.545719
5.639651
5.792544
5.901566
5.914037
5.814957
6.019589
6.853717
7.012385
7.052441
7.473352
7.171641
5.579663
4.608743
3.643048
3.931595
2.084978
0.7073098
0.7278601
1.957497
2.471663
2.949519
3.342959
3.915729
4.322381
4.385677
4.723123
5.155642
4.962478
5.075151
5.507904
5.891163
6.137961
6.245628
6.247888
6.683842
7.661808
7.746268
7.765681
8.060843
7.540478
5.613113
4.551607
3.63185
2.688728
0.9624637
0.8090695
2.09574
2.452948
2.718208
3.503091
3.807861
3.669531
4.300969
4.975891
4.636497
5.026821
5.733161
6.200507
6.477227
6.62258
6.713401
7.248942
8.257964
8.260822
7.985808
8.039909
7.382385
5.190521
4.282201
3.349369
1.252548
0.8553213
2.116015
2.319204
3.377967
3.541327
3.309744
4.302936
5.101703
4.60316
5.26086
6.111736
6.558082
6.819937
6.983243
7.061479
7.44581
8.375891
8.095764
7.42975
7.33248
6.719651
4.53188
3.72541
1.459832
0.8773001
2.141421
3.454057
3.446625
3.152262
4.400562
5.188261
4.53776
5.37306
6.231626
6.609358
6.822302
6.915212
6.809889
6.905083
7.863838
7.298215
6.2397
6.397243
5.8889
3.726814
1.540101
0.8874045
2.137087
3.480462
3.029178
4.263375
4.984128
4.116454
5.05248
5.906098
6.230734
6.382513
6.378362
6.038506
5.751184
6.876055
6.124177
5.039893
5.337613
3.435106
1.462164
0.8388265
1.721685
2.746026
3.975595
4.775897
3.519159
4.324657
5.183713
5.46814
5.565796
5.489308
4.945995
4.562953
5.968439
5.156099
3.789618
2.507667
1.267761
0.9733068
1.803259
2.226263
2.681582
3.55282
4.451059
4.717119
4.788969
4.708982
3.969528
3.142546
2.736119
2.277853
1.276773
1.134374
1.908602
2.079641
2.105844
2.005839
1.253726
0.6835876
1.202085
1.428786
1.541416
1.57442
1.551626
1.483914
1.333941
1.116089
0.6161334
0.6996911
1.354071
1.773452
2.372358
3.079706
2.233479
2.285208
2.27326
2.175274
2.044063
1.972589
2.710923
1.989649
1.380759
1.071709
0.5732075
0.9924669
2.260565
2.118981
2.594551
3.170235
3.775837
3.148565
3.363734
3.259786
3.033794
2.778185
2.548056
2.786042
2.17542
1.741921
1.586686
1.76838
0.7757662
0.7567522
1.621477
2.00847
3.075619
3.023448
3.790915
4.30575
4.768888
4.361506
4.397448
4.159187
3.822629
3.487635
3.225312
3.188102
2.676759
2.315311
2.069361
1.879878
1.400188
1.108331
0.5460126
0.8186575
2.169484
2.493855
2.923208
4.115564
4.226355
4.891642
5.272513
5.584721
5.313946
5.205787
4.859398
4.46143
4.11053
3.862401
3.735635
3.323862
3.007226
2.707246
2.33235
1.802684
1.467728
1.405378
0.5465642
0.8150275
2.258717
2.871334
3.437492
4.06828
5.01496
5.18693
5.717406
5.997401
6.212083
6.036545
5.873369
5.465351
5.034734
4.698687
4.495908
4.380859
4.060202
3.760915
3.397123
2.902244
2.309349
1.844971
1.568557
1.397545
0.5565566
0.8034703
2.226575
2.905485
3.675302
4.48158
5.013435
5.672563
5.849419
6.287844
6.533989
6.709897
6.630008
6.512614
6.109342
5.654842
5.320604
5.153255
5.079602
4.824019
4.523707
4.10188
3.51366
2.835238
2.285574
1.916922
1.727262
1.504667
0.5867981
0.7273043
2.10558
2.804422
3.626662
4.528117
5.243776
5.636007
6.079058
6.257504
6.655304
6.918743
7.110411
7.128687
7.121852
6.834271
6.398423
6.030314
5.847752
5.863379
5.721911
5.456947
4.980857
4.302277
3.509194
2.876921
2.503409
2.262214
1.994848
1.534722
0.5677059
1.517356
2.400158
3.367943
4.351963
5.139005
5.689587
5.951294
6.264928
6.462066
6.904207
7.27753
7.53366
7.66392
7.76763
7.627906
7.281347
6.923899
6.717962
6.700745
6.617541
6.379582
5.878051
5.210665
4.37931
3.638125
3.18355
2.83015
2.418588
1.853522
1.160318
0.9215842
2.017059
2.939464
4.009442
4.895035
5.515875
5.892863
6.045016
6.377711
6.689331
7.260274
7.716764
7.976534
8.143774
8.29983
8.301703
8.097658
7.785599
7.524439
7.407183
7.322221
7.134894
6.699307
6.120868
5.318336
4.505161
3.886737
3.424522
3.264062
2.412746
1.545701
0.6565548
0.6594719
2.110612
2.692301
3.598357
4.549524
5.293987
5.736671
5.964588
6.179295
6.648977
7.226401
8.152236
8.852
9.184492
9.264192
9.173917
8.963746
8.708852
8.402808
8.120348
7.914185
7.767225
7.572248
7.210176
6.72821
6.047682
5.217912
4.729872
4.193431
3.879859
3.451417
2.345408
1.603504
0.4840739
1.293258
1.974692
2.865956
3.9671
4.927916
5.57583
5.88473
6.140263
6.527386
7.399427
8.577978
9.981884
11.10546
11.88627
12.27333
11.99672
11.15891
10.21027
9.301081
8.696747
8.298863
8.030668
7.760612
7.413796
6.977504
6.410851
5.644055
4.763974
4.375586
3.975523
3.218272
2.668325
1.47445
1.003377
1.709216
2.334965
3.290518
4.312553
5.212557
5.795947
6.131218
6.457367
7.253324
8.569121
9.914754
11.09788
12.05281
13.00522
13.98856
14.72711
14.79744
13.9023
12.25711
10.74399
9.536611
8.728528
8.127165
7.582809
7.079825
6.552053
5.925102
5.046317
4.493373
3.99876
3.089185
2.933568
1.767111
1.352616
0.6765089
2.327272
2.910235
3.774003
4.662972
5.461529
6.018717
6.415854
6.901425
8.058901
9.181881
9.71132
9.762513
9.681942
9.848276
10.38738
11.21734
12.31991
13.37332
13.89565
13.46728
12.34338
11.13494
10.06465
9.129746
8.370998
7.666524
6.93995
6.072576
5.027605
4.254544
3.260269
2.966065
1.847656
1.881431
0.5549629
1.237857
3.119126
3.617473
4.31005
5.025805
5.696169
6.254419
6.714837
7.307173
8.512056
9.155982
8.720313
7.985085
7.488898
7.45777
7.769152
8.347277
9.009866
9.64808
10.20041
10.54572
10.65143
10.57923
10.15055
9.56576
8.986369
8.470621
7.922835
7.260471
6.367518
5.624412
4.598936
3.265882
2.220266
2.68617
1.046103
1.509155
2.366415
3.305595
4.351886
5.168046
5.83429
6.432699
6.9751
7.594616
8.600796
8.988631
8.008848
6.894723
6.268987
6.233715
6.555115
7.138585
7.778575
8.330124
8.661224
8.698668
8.517364
8.250745
7.912512
7.605909
7.352584
7.159161
6.941969
6.646543
6.233239
5.972348
5.480142
4.364385
3.280449
1.931272
1.332705
1.666947
2.528549
3.628985
4.570858
5.29671
5.915669
6.534413
7.136354
7.75827
8.510596
8.701403
7.792959
6.612063
5.753067
5.416152
5.656804
6.128727
6.671502
7.190105
7.583243
7.763962
7.710474
7.457255
7.084476
6.703211
6.384321
6.137647
5.90182
5.634883
5.38291
5.296285
5.014842
4.361919
3.950519
2.374503
1.446184
1.736921
2.716562
3.936648
4.859699
5.477437
5.995726
6.5794
7.193939
7.7983
8.372964
8.47
7.786524
6.815023
6.018596
5.599094
5.581278
5.799865
6.135063
6.484552
6.755306
6.888422
6.871787
6.72222
6.4709
6.165391
5.874168
5.625792
5.349846
5.019277
4.706779
4.562518
4.257085
3.841081
3.550543
2.329919
1.257695
1.717021
2.782387
4.154693
5.151382
5.718366
6.120535
6.609935
7.186186
7.756128
8.228564
8.342789
7.921216
7.240682
6.602755
6.175009
5.978859
5.996198
6.155904
6.356089
6.494478
6.506735
6.385465
6.168632
5.908092
5.638523
5.398641
5.208468
4.979114
4.645101
4.257432
4.032321
3.656776
3.259265
2.940592
2.147459
1.042875
1.646308
2.793806
4.310148
5.45569
6.04286
6.341215
6.686664
7.168332
7.683301
8.108947
8.282259
8.108484
7.702109
7.243113
6.875661
6.639014
6.563872
6.602016
6.659837
6.645473
6.508179
6.250155
5.916667
5.569045
5.247874
5.002684
4.853338
4.686287
4.394264
3.988665
3.701127
3.253609
2.805672
2.403426
1.937579
0.9457385
1.481288
2.819775
4.264114
5.702109
6.4649
6.737987
6.911897
7.239304
7.653749
8.039597
8.274747
8.294224
8.111832
7.850005
7.618445
7.464841
7.400608
7.36576
7.277592
7.07706
6.751514
6.330248
5.872963
5.441128
5.06573
4.813133
4.684409
4.545688
4.272917
3.867342
3.520247
2.998289
2.551962
1.987295
2.025484
0.8430915
1.213891
3.276421
4.509013
6.035709
7.084258
7.523496
7.569308
7.67673
7.890343
8.159109
8.391828
8.517486
8.520476
8.519215
8.502871
8.484877
8.425715
8.268537
7.97671
7.552299
7.030391
6.465483
5.930685
5.476933
5.116809
4.931368
4.846814
4.698664
4.37974
3.924434
3.479356
2.856086
2.430586
1.664983
2.019031
0.7402821
0.662029
2.418656
3.538206
5.233206
6.668235
7.635778
8.111974
8.349563
8.520607
8.705029
8.924848
9.169168
9.433899
9.607211
9.670408
9.591343
9.344967
8.934723
8.395204
7.779472
7.141101
6.538881
6.054072
5.703322
5.477002
5.459268
5.439801
5.226652
4.779608
4.177371
3.573752
2.83773
2.326043
1.559337
1.576829
0.4371274
1.651781
2.777646
4.423821
5.969218
7.175593
8.030417
8.665354
9.183494
9.581268
9.954423
10.27909
10.4715
10.50719
10.35903
10.01643
9.512703
8.91045
8.275551
7.658218
7.091048
6.634982
6.380262
6.272608
6.291201
6.501856
6.488425
6.120492
5.453056
4.577345
3.764259
2.949231
2.187654
1.596804
1.202933
1.233999
2.344304
3.619059
5.082088
6.316759
7.287583
8.062988
8.76296
9.316903
9.735145
9.993783
10.0757
9.976998
9.708498
9.289913
8.796139
8.307314
7.864547
7.480982
7.172733
7.037565
7.15144
7.358967
7.6627
8.064296
7.899868
7.296198
6.30812
5.040116
3.974628
3.052385
2.045039
1.862791
1.006538
0.6393833
2.156912
2.952619
4.086942
5.183923
6.129944
6.891454
7.5533
8.042014
8.379823
8.534861
8.552462
8.491957
8.359206
8.133471
7.928805
7.799692
7.719333
7.676674
7.716453
7.991574
8.476101
8.963647
9.495971
9.914546
9.422575
8.557417
7.148864
5.452142
4.143016
3.071854
1.976283
1.894671
0.5688634
0.9070875
2.181535
2.969612
3.928473
4.803067
5.480642
6.023989
6.383387
6.685626
6.815687
6.946249
7.149113
7.343162
7.425427
7.618378
7.894291
8.154429
8.424072
8.814197
9.466659
10.16255
10.82067
11.4123
11.58415
10.69782
9.555189
7.779628
5.747013
4.225336
3.049735
1.944105
0.886335
1.373255
2.200941
2.954446
3.708012
4.257605
4.654405
4.887337
5.310958
5.534177
5.955767
6.54711
7.124264
7.472221
8.021971
8.593658
9.067131
9.569496
10.25315
11.10221
11.77994
12.42557
12.83178
12.70882
11.55937
10.0871
7.986787
5.720323
4.076689
2.967522
1.634617
0.6676888
1.898131
2.341088
2.89325
3.309384
3.662609
3.816597
4.532643
4.912882
5.709216
6.657867
7.57514
8.051985
8.835518
9.536942
10.09251
10.73544
11.53958
12.31181
12.84405
13.39281
13.55275
13.10714
11.56069
9.82697
7.502586
5.232328
3.801595
2.672195
0.8790774
0.7363165
2.017404
2.393908
2.659001
3.03514
3.280625
4.347841
4.82585
5.946295
7.10271
8.216746
8.676404
9.557444
10.24456
10.77359
11.41593
12.18466
12.92063
13.23112
13.43631
13.23687
12.56116
10.57042
8.639569
6.321693
4.574912
3.254604
1.117593
0.7953004
2.165695
2.36617
2.601122
2.924931
4.332147
4.909925
6.289475
7.539665
8.727616
9.138487
10.0456
10.65494
11.10794
11.619
12.17529
12.687
12.60281
12.43725
11.90904