/*--------------------------------*- C++ -*----------------------------------*\
  =========                 |
  \\      /  F ield         | OpenFOAM: The Open Source CFD Toolbox
   \\    /   O peration     | Website:  https://openfoam.org
    \\  /    A nd           | Version:  6
     \\/     M anipulation  |
\*---------------------------------------------------------------------------*/
FoamFile
{
    version     2.0;
    format      ascii;
    class       volScalarField;
    location    "49.8";
    object      Co;
}
// * * * * * * * * * * * * * * * * * * * * * * * * * * * * * * * * * * * * * //

dimensions      [0 0 0 0 0 0 0];

internalField   nonuniform List<scalar> 
203709
(
0.05922146
0.05359259
0.05422974
0.05266742
0.0309362
0.025519
0.0357716
0.04032612
0.04208278
0.04324101
0.04879432
0.03734392
0.05033682
0.04010108
0.03305927
0.02572484
0.02109171
0.02182549
0.02883471
0.03275987
0.03299229
0.03141051
0.03429529
0.04058942
0.06964762
0.06160773
0.05325669
0.04805314
0.04431971
0.04003099
0.03090088
0.0184464
0.01640362
0.02193548
0.02407473
0.02585892
0.03231983
0.04306962
0.07608465
0.0615376
0.05501831
0.04735576
0.05167424
0.05293164
0.04864951
0.04014477
0.03051521
0.0205937
0.01282125
0.01250279
0.01899761
0.02605495
0.06882183
0.05120632
0.04832872
0.04116644
0.03433862
0.04490303
0.05022569
0.05063781
0.04727575
0.04094715
0.03406689
0.02779765
0.02261466
0.01932502
0.02039084
0.03485217
0.053146
0.03874368
0.02582908
0.01337552
0.01219419
0.02667015
0.03596598
0.03998556
0.03985978
0.0369552
0.03302067
0.02907874
0.02587426
0.02366151
0.02393328
0.02775245
0.09617018
0.07212766
0.06058482
0.04814985
0.03545291
0.0385859
0.04708175
0.05054141
0.05008804
0.04739212
0.04373366
0.04017851
0.03687919
0.03453496
0.03333025
0.0335869
0.03614347
0.04458367
0.09723341
0.08549652
0.07336089
0.06153567
0.05000271
0.05982491
0.06752857
0.07043892
0.0698322
0.06683979
0.06266604
0.05831279
0.05401783
0.05020725
0.04719208
0.04532078
0.04540029
0.04588
0.1017983
0.08992816
0.07903184
0.06726583
0.06072338
0.07239723
0.07952753
0.08212022
0.08193087
0.07921699
0.07536655
0.07110254
0.06687931
0.06284618
0.05933474
0.05675422
0.0559351
0.05692657
0.1072167
0.09482769
0.08050684
0.06878973
0.06895757
0.07907192
0.08556607
0.08804161
0.08792065
0.08589694
0.08281015
0.07907036
0.07523399
0.07152657
0.06827633
0.06602442
0.06554324
0.06513658
0.1068043
0.07943941
0.06716818
0.07250784
0.08129652
0.08699436
0.08984259
0.09013408
0.08865221
0.08625303
0.08324563
0.0799964
0.07683762
0.07422886
0.07343207
0.08515519
0.1069921
0.08362086
0.06839638
0.07440401
0.08079613
0.08568068
0.08843768
0.08928817
0.08854422
0.08693076
0.08467489
0.08210509
0.07967132
0.07787935
0.07815216
0.08564468
0.08902968
0.07259733
0.07504117
0.07908023
0.08245027
0.08529786
0.08666603
0.08660713
0.08553581
0.0839969
0.08206294
0.08046167
0.08021252
0.09406581
0.08798731
0.07316656
0.07556602
0.07799747
0.07982512
0.08147628
0.08264072
0.08324587
0.08268085
0.08158142
0.07987411
0.07844576
0.07725543
0.08546902
0.0816705
0.07557143
0.0762033
0.0792223
0.07939087
0.07901264
0.07888849
0.07862976
0.07908444
0.07842726
0.09205125
0.08170843
0.08416409
0.07843066
0.07715873
0.07868901
0.0778949
0.07801142
0.09087191
0.08666757
0.08727435
0.08191893
0.08265339
0.08541408
0.06618515
0.05785001
0.05789242
0.05882239
0.05972932
0.06002757
0.05945014
0.05797463
0.05579451
0.05847829
0.05877481
0.04910776
0.04900227
0.04837844
0.0493291
0.05116302
0.05282189
0.0531521
0.05202475
0.05028548
0.04778512
0.04751601
0.04983806
0.04616657
0.05374179
0.0433543
0.03808732
0.03993022
0.04269741
0.04443632
0.04762254
0.05092222
0.05191138
0.04898814
0.0473632
0.04509819
0.04240016
0.03982812
0.03793469
0.03781264
0.0519565
0.03743783
0.02992836
0.02824612
0.03101969
0.03606658
0.04704454
0.05097263
0.05030033
0.05045257
0.04610145
0.04701448
0.04369176
0.04169353
0.0398429
0.03755162
0.03450778
0.04062424
0.05458398
0.03946767
0.03260068
0.02920116
0.02556643
0.02555816
0.02523881
0.02987864
0.03724158
0.04156963
0.04330522
0.0457141
0.04715341
0.04069969
0.04253165
0.03857321
0.03847788
0.03740002
0.03786111
0.04748595
0.05981094
0.04448592
0.03966971
0.04051155
0.03924429
0.03714494
0.036722
0.03190449
0.02645785
0.02300153
0.02704642
0.03447987
0.03869497
0.03983394
0.04087509
0.04171557
0.03837674
0.03727896
0.03705565
0.03722433
0.04153738
0.05348613
0.04436598
0.04449822
0.04818856
0.05142753
0.05316832
0.05557197
0.05319958
0.05007157
0.04413869
0.0382446
0.02919196
0.0211415
0.0239138
0.03123141
0.03515389
0.03712269
0.03872744
0.03629173
0.03736463
0.03934763
0.04238896
0.04923288
0.06779953
0.04914776
0.04662891
0.05254119
0.05989904
0.06658124
0.06273409
0.05908807
0.05371918
0.0532666
0.05341799
0.04846006
0.04113185
0.0317454
0.02077181
0.01842718
0.02404661
0.02791545
0.03027346
0.03669791
0.03604151
0.04087916
0.04564658
0.06367067
0.05771055
0.0517974
0.04729214
0.0464286
0.05134795
0.05584691
0.05388844
0.04775575
0.04104516
0.04914847
0.05395487
0.05383281
0.04986974
0.04264301
0.03486249
0.02709538
0.02054816
0.01821156
0.02032007
0.02846711
0.03030488
0.03337173
0.03752543
0.04368971
0.06472337
0.06245871
0.05819993
0.05984494
0.05250018
0.04011785
0.03261611
0.02353404
0.02006963
0.03342779
0.0413726
0.04440066
0.04359828
0.04013086
0.03563328
0.03108281
0.02728371
0.02552468
0.02641649
0.02999766
0.03162791
0.03062705
0.03397299
0.03708503
0.0715609
0.07188035
0.07444349
0.07566076
0.06550836
0.05587249
0.04403849
0.03238897
0.03222219
0.04302152
0.04865871
0.05039657
0.04966349
0.04763082
0.04523455
0.04280876
0.04078167
0.03939778
0.03853192
0.03585944
0.03684022
0.03659154
0.03637086
0.03716003
0.07655463
0.07812943
0.08227399
0.08592789
0.08038302
0.07060278
0.05872915
0.04809715
0.05401881
0.06416855
0.06907538
0.0702452
0.0688984
0.06627615
0.06313708
0.05995058
0.05693626
0.05432171
0.05214685
0.05017173
0.04687071
0.04408846
0.04228785
0.04166879
0.07862587
0.08003485
0.0855355
0.08974026
0.08684821
0.07873477
0.06687265
0.05761133
0.06858278
0.07770178
0.08209197
0.08322618
0.08186007
0.07919111
0.07588094
0.07250505
0.06921802
0.06624351
0.0635883
0.06092402
0.05646547
0.05276953
0.04962912
0.04880043
0.07778898
0.07829515
0.08096417
0.08287718
0.08912103
0.0820965
0.07097175
0.064785
0.07708683
0.08508603
0.08912455
0.09020965
0.08917445
0.08688445
0.08386473
0.08061478
0.07740617
0.07447206
0.07183824
0.06807507
0.05966599
0.05795103
0.05680426
0.05681029
0.07462567
0.07415857
0.07752417
0.08264411
0.09083596
0.08126341
0.07052785
0.06916244
0.08016656
0.08736203
0.09135785
0.09274328
0.09218412
0.09042191
0.08791174
0.0850481
0.08215158
0.07952612
0.07744468
0.07846915
0.07063434
0.06454568
0.06283451
0.06408142
0.07052963
0.06816774
0.07049937
0.07422155
0.07596471
0.07889393
0.06794337
0.07151915
0.07983675
0.0863967
0.09028834
0.09201561
0.09203926
0.09089766
0.08893045
0.08652374
0.08402956
0.08173125
0.07893438
0.07196868
0.07025001
0.06747104
0.06661849
0.06972497
0.07113008
0.06366375
0.06202927
0.06429647
0.0658266
0.0722232
0.06691303
0.07232182
0.07751376
0.08279031
0.08689366
0.08911243
0.0897315
0.08903012
0.08743437
0.08529143
0.08302023
0.08155177
0.08463946
0.0764738
0.07074858
0.06800821
0.06631392
0.07053026
0.0641512
0.05343066
0.05380397
0.05540366
0.06712655
0.0655979
0.0717014
0.07595474
0.07879708
0.08186776
0.0842991
0.08548353
0.08503533
0.08330501
0.08088429
0.07778145
0.07533104
0.07120485
0.07044804
0.06897544
0.06743799
0.07570005
0.0581873
0.04712168
0.04568801
0.04732421
0.06112789
0.0651723
0.07194822
0.07170541
0.07596674
0.07708394
0.07832402
0.07902925
0.07863747
0.07721332
0.07531429
0.07791779
0.06752739
0.06701499
0.0666537
0.06528022
0.06415923
0.06470993
0.05086523
0.04353001
0.04845271
0.051187
0.06049428
0.06899764
0.07161446
0.07376648
0.07216855
0.07378821
0.07264321
0.07263222
0.07617037
0.0669794
0.06835418
0.06432325
0.06356943
0.0636867
0.06758198
0.07751872
0.04437908
0.04650475
0.05097004
0.0543727
0.0566321
0.06391276
0.0725019
0.07334416
0.07163551
0.07052637
0.06459452
0.06596102
0.06356087
0.06255312
0.06115557
0.06291835
0.0705517
0.08579992
0.04762086
0.04972353
0.05224655
0.05478695
0.05813452
0.05899946
0.06284179
0.0652303
0.06572816
0.06215948
0.06084221
0.06003527
0.0606552
0.0617693
0.07434605
0.09371139
0.059818
0.05155638
0.05411689
0.05791386
0.05969788
0.06180538
0.06320728
0.0633086
0.06230727
0.06193264
0.06500106
0.07571528
0.08403245
0.09992341
0.070191
0.06525532
0.06713799
0.06884677
0.06989614
0.07149363
0.07525852
0.08058166
0.08684111
0.1068588
0.0728585
0.06343999
0.06366603
0.0640417
0.06415811
0.06386332
0.0637695
0.07167198
0.06655744
0.05974362
0.06301757
0.05959171
0.05510878
0.05552596
0.05579241
0.05570724
0.0553638
0.05516462
0.05412608
0.05301731
0.05304376
0.05971424
0.06459567
0.05553074
0.0508211
0.05030571
0.05224022
0.05251165
0.05294384
0.05324138
0.05313149
0.05224606
0.05043835
0.04794547
0.04410308
0.042847
0.04253474
0.04379204
0.05828064
0.05316683
0.04895621
0.04856799
0.05695523
0.05741684
0.05366437
0.05397282
0.05469501
0.05527485
0.05528479
0.05437291
0.05215212
0.0481628
0.04666328
0.04300839
0.03527622
0.0313298
0.03130297
0.03691605
0.05125561
0.04643195
0.04537009
0.05060512
0.05210308
0.04704048
0.04772156
0.04954196
0.05055256
0.05188571
0.05278822
0.05279298
0.05162592
0.04927616
0.04585664
0.04349219
0.03962331
0.03378306
0.02718956
0.02220654
0.02010225
0.01773986
0.04940657
0.04348031
0.04270752
0.04700207
0.04666392
0.04235692
0.04253398
0.04361283
0.04518587
0.04749658
0.04964658
0.05086726
0.05091971
0.04958654
0.04712368
0.04380781
0.04054895
0.03722323
0.03382159
0.02875862
0.02211756
0.01766034
0.01214891
0.01073606
0.04469975
0.04181767
0.04488967
0.0441931
0.03881672
0.03621933
0.03563781
0.03798162
0.04082768
0.04359587
0.0457513
0.04744193
0.04768909
0.04651816
0.04594873
0.04432893
0.04217794
0.0401466
0.03697707
0.03310928
0.03046694
0.02367176
0.02007802
0.01984539
0.04450717
0.03997804
0.04465889
0.0438411
0.0371207
0.03350063
0.03179835
0.0297811
0.02986866
0.03223051
0.03641448
0.04064443
0.0433225
0.04476959
0.04553123
0.04518894
0.04511203
0.04396641
0.04234419
0.04066488
0.03843629
0.0364254
0.03377204
0.02747291
0.02521429
0.03063691
0.05097877
0.044305
0.0455653
0.04286428
0.03819559
0.03806995
0.04018356
0.04051011
0.03913983
0.03671133
0.03359265
0.02959565
0.02886857
0.034157
0.03989135
0.04324216
0.04426092
0.04474347
0.04417462
0.04397648
0.04273811
0.04143118
0.0400825
0.0398594
0.03814899
0.03636904
0.03928851
0.04700796
0.04854452
0.04479675
0.04811819
0.04504405
0.04152488
0.04612369
0.05100594
0.05406516
0.05530662
0.05452438
0.05182698
0.04668493
0.03980615
0.03216065
0.02673687
0.03025741
0.03679902
0.04026945
0.04182697
0.04251498
0.04234772
0.04172069
0.04315013
0.04511521
0.04641832
0.05378593
0.04770764
0.05312951
0.04808243
0.04950803
0.04944412
0.044784
0.04615195
0.05074573
0.05772789
0.06314106
0.06503225
0.06406177
0.06050858
0.05783398
0.05699235
0.05268066
0.04516002
0.0351952
0.02584249
0.0253092
0.03092773
0.03499383
0.03786953
0.0395171
0.04337637
0.04679216
0.04826523
0.0564918
0.05107917
0.05292647
0.05574657
0.0491746
0.05276316
0.05510294
0.05396912
0.05096909
0.05068955
0.0551746
0.06012124
0.05997855
0.05627097
0.04931229
0.05335166
0.0583863
0.05839246
0.05447943
0.04740318
0.03941738
0.03138558
0.02421496
0.02317701
0.02782163
0.03222022
0.03599023
0.0389919
0.04198696
0.04445496
0.04469541
0.04450415
0.05945392
0.05294425
0.05311529
0.05609642
0.06037626
0.06215776
0.06248739
0.05782535
0.05027214
0.04533927
0.04164262
0.03477651
0.02752964
0.03959473
0.04716819
0.04986264
0.04883747
0.04522896
0.04056255
0.03581323
0.03158455
0.03037232
0.03193692
0.03350421
0.03525894
0.03661305
0.03765555
0.03844475
0.03832279
0.03918377
0.04187707
0.05348683
0.05432152
0.05925683
0.06528767
0.06945906
0.072632
0.07189034
0.06518964
0.05560358
0.04474143
0.03263191
0.02798211
0.04098646
0.04847072
0.05185339
0.05255033
0.05170222
0.05021064
0.04848337
0.04685307
0.04558125
0.04462036
0.04350576
0.04235777
0.0412115
0.04003159
0.03857235
0.03713593
0.03610683
0.03592541
0.05405523
0.05514829
0.06114061
0.06853663
0.07421619
0.07939558
0.08132702
0.0777946
0.0688795
0.05910661
0.04832233
0.05004081
0.06224894
0.06896975
0.071619
0.07158835
0.07005574
0.06784736
0.06542877
0.06302132
0.0607438
0.05851686
0.05608564
0.05288706
0.04961714
0.04645437
0.04284463
0.03979353
0.03696227
0.03474331
0.05344891
0.05477423
0.06128832
0.06943966
0.07572081
0.08202294
0.08556651
0.08438915
0.07766425
0.0674205
0.05810647
0.06559222
0.0765418
0.08257511
0.08489659
0.08461413
0.08282775
0.08031224
0.077602
0.07491977
0.07234383
0.06972223
0.06671199
0.06282492
0.05859648
0.0542416
0.04927321
0.04482744
0.04042375
0.0369339
0.05147831
0.05296422
0.05954358
0.06788211
0.07391599
0.08031306
0.08432695
0.08545553
0.08071762
0.070891
0.06348901
0.07520545
0.08478482
0.0901782
0.09229976
0.09208928
0.09044496
0.08802177
0.08530851
0.08256922
0.07988938
0.0771086
0.07384101
0.06956688
0.06560381
0.06119512
0.05608787
0.05074697
0.04535356
0.0416236
0.04860654
0.04980728
0.05591185
0.06399326
0.0692467
0.07493741
0.07999187
0.08269224
0.07903768
0.07037381
0.06708324
0.07944345
0.08788525
0.09285584
0.09502675
0.09512661
0.09387873
0.09181765
0.08934476
0.08671519
0.08402859
0.08124174
0.07816862
0.07361063
0.06955204
0.06595267
0.06175512
0.05604281
0.05044087
0.04744389
0.05284689
0.04786542
0.05109275
0.05806866
0.06254332
0.06732059
0.07250949
0.07458826
0.07303429
0.06600654
0.06993826
0.07993577
0.08740625
0.09204792
0.0943908
0.09494312
0.09420002
0.09256002
0.0903625
0.08783633
0.08506852
0.0820337
0.07834775
0.07485624
0.07102811
0.06802626
0.06502937
0.05933352
0.05241705
0.050523
0.04624415
0.04332589
0.04814657
0.0552044
0.05834743
0.06204662
0.06435973
0.06407675
0.06362445
0.07039941
0.07761382
0.08422618
0.08879893
0.09147145
0.09250471
0.09214931
0.09074014
0.0885837
0.08594364
0.08322425
0.08064472
0.07650594
0.0729397
0.0699679
0.06623769
0.06028223
0.0576406
0.06125133
0.03995806
0.03737175
0.03849719
0.04797586
0.04840739
0.05035946
0.05420133
0.05709864
0.06299606
0.06888228
0.07476627
0.07933254
0.0837177
0.08680904
0.08820566
0.08794257
0.08631923
0.08375678
0.0804735
0.07763901
0.07516851
0.07255322
0.06962429
0.06757737
0.06995116
0.06297463
0.0584024
0.05952842
0.0425142
0.03401921
0.03431932
0.0418487
0.04018933
0.04332017
0.04815103
0.0544308
0.06015692
0.06607007
0.07098276
0.07491553
0.07753722
0.08025922
0.08177751
0.08121305
0.07895485
0.07606212
0.07235022
0.07035737
0.06829296
0.06632714
0.06410784
0.06261786
0.05745116
0.05594571
0.05580617
0.0570337
0.0357463
0.03290777
0.0402641
0.04163926
0.0420626
0.04679778
0.05181116
0.05757326
0.06281183
0.06689242
0.07017965
0.07227406
0.07325423
0.07301138
0.07224574
0.0705864
0.06855478
0.06617487
0.06402712
0.06268565
0.0616732
0.0639603
0.06228577
0.05808972
0.05993183
0.070286
0.03587032
0.03600152
0.04237378
0.04421805
0.04486661
0.04899497
0.05392878
0.0586229
0.06254444
0.06536277
0.06684326
0.06752507
0.06711616
0.06574015
0.06469271
0.06315647
0.06131857
0.05984674
0.06173772
0.06740274
0.0670107
0.06173169
0.06062415
0.05604986
0.0397114
0.03620631
0.03763381
0.04472177
0.04676613
0.04716301
0.05049656
0.05401209
0.05751972
0.06012885
0.06158624
0.06198841
0.06164779
0.06068216
0.05946124
0.0590155
0.06214667
0.06580614
0.07172353
0.07670948
0.07229693
0.06416865
0.07045303
0.08432164
0.03772812
0.03857847
0.04005797
0.04819369
0.05133281
0.04992901
0.05250895
0.05616894
0.05831475
0.05999949
0.06083238
0.06099587
0.06274212
0.06671267
0.07121609
0.07390837
0.07748128
0.08837603
0.08425541
0.07307434
0.07915069
0.09525058
0.05013251
0.04475486
0.04475041
0.04805438
0.05860836
0.0613752
0.06009373
0.06200711
0.06402152
0.0673199
0.07174607
0.07624503
0.08072346
0.08525228
0.09558721
0.0987108
0.08764971
0.08745215
0.09435
0.1027092
0.0664777
0.05862503
0.05452716
0.05798434
0.06361498
0.06662468
0.07026695
0.07412217
0.0782606
0.08258157
0.08661323
0.09016042
0.09027977
0.09357422
0.1006241
0.11174
0.07956935
0.07401466
0.08045503
0.07809544
0.07482438
0.07765061
0.08118825
0.08511428
0.0895515
0.09512038
0.0959779
0.09933004
0.111458
0.1312043
0.09954583
0.08997879
0.09222386
0.09567753
0.09950843
0.1037745
0.1097188
0.132087
0.07175366
0.063879
0.06383778
0.06448886
0.06604964
0.07479918
0.0645074
0.05824707
0.05778892
0.06325208
0.06260789
0.05926238
0.05966277
0.06030785
0.0611186
0.05737239
0.05386953
0.05626921
0.05839064
0.06274156
0.05471112
0.05378575
0.05331528
0.05458859
0.05947447
0.06072842
0.0586305
0.0597892
0.06052282
0.06094147
0.06094812
0.06053
0.06291545
0.06212816
0.05470945
0.04838812
0.04746979
0.05685719
0.05225919
0.04631969
0.0532344
0.05635171
0.05484685
0.05704146
0.05739434
0.05667215
0.05752739
0.05823191
0.05853911
0.05834922
0.0576698
0.05502011
0.05392647
0.05255
0.05337178
0.05207128
0.04427944
0.04813553
0.04498126
0.04439145
0.05418356
0.05537169
0.05260968
0.05451278
0.0547171
0.05428649
0.05411454
0.05501097
0.05580416
0.05595345
0.05539228
0.05420875
0.05258564
0.05049563
0.04836294
0.04591206
0.04800972
0.04734866
0.03872676
0.03432696
0.03898869
0.04507479
0.05078567
0.04891032
0.05073193
0.05300886
0.05328609
0.0531456
0.05302474
0.05273271
0.05253318
0.05203333
0.05120278
0.05006801
0.04839056
0.04629865
0.04403465
0.04219616
0.04085438
0.03819944
0.03747364
0.03531949
0.02833428
0.02822218
0.03766303
0.04359871
0.04849251
0.04689279
0.0494689
0.05043765
0.05025558
0.04979624
0.0495249
0.04947271
0.04971192
0.05001946
0.04988275
0.04875293
0.04634387
0.04276484
0.03833228
0.03517562
0.03325775
0.0317944
0.03034442
0.0280696
0.02444932
0.02111135
0.01750447
0.02557824
0.04039998
0.04065407
0.04549946
0.04522691
0.04718858
0.04737287
0.04672321
0.0453506
0.04400929
0.04393385
0.0445764
0.04570394
0.04672837
0.04710027
0.0463213
0.04415612
0.04141848
0.03879221
0.03562067
0.03208217
0.02787996
0.02467665
0.02161449
0.0171357
0.01142762
0.007118641
0.01570501
0.02034636
0.04507585
0.03839036
0.0469169
0.04711105
0.04615672
0.04558627
0.0438552
0.0414347
0.03947285
0.03990067
0.04147671
0.0432644
0.04471237
0.04552511
0.04602636
0.04564168
0.04456333
0.04381408
0.04265993
0.04086226
0.0382339
0.03474722
0.03059433
0.02626327
0.02041903
0.01381598
0.007100491
0.009124486
0.01004051
0.01313735
0.03762609
0.04577881
0.04691663
0.04466548
0.0454882
0.04314449
0.03972092
0.03829405
0.03776249
0.0371519
0.03771639
0.03956087
0.04216104
0.04475586
0.04678301
0.04769219
0.04779397
0.0470659
0.04616665
0.04469134
0.04272849
0.04031946
0.03736316
0.03407647
0.03057852
0.02590761
0.02049164
0.02112263
0.02151982
0.01674545
0.04846858
0.03962668
0.04580826
0.04492741
0.04645824
0.04476477
0.04157915
0.04060882
0.04176853
0.04277669
0.04184984
0.03987654
0.03702395
0.0334678
0.03427843
0.03984888
0.04423507
0.04676044
0.04735502
0.04733723
0.04656898
0.04556242
0.04407987
0.04226887
0.04029425
0.03821868
0.03702767
0.03637698
0.03527588
0.03798602
0.03215905
0.04055674
0.04424663
0.04442243
0.04621345
0.04737635
0.04765639
0.04559146
0.04420667
0.04628407
0.05138551
0.05493677
0.05661543
0.0564759
0.05423078
0.04969037
0.0433047
0.0359943
0.03159137
0.03506372
0.04066692
0.04357262
0.04473752
0.04507743
0.04475136
0.044096
0.04566621
0.04718684
0.04885503
0.05036025
0.0503453
0.04936781
0.04845264
0.04952899
0.0423088
0.04947107
0.04815031
0.04935972
0.05006277
0.04943934
0.04875095
0.0514114
0.05865408
0.06447769
0.0678399
0.06841138
0.06617927
0.06145714
0.06109423
0.05685805
0.04930269
0.03939343
0.03057774
0.03035489
0.03572173
0.03965094
0.04254341
0.0446248
0.04852369
0.05196282
0.0545754
0.05611015
0.05649545
0.05492498
0.05922016
0.05122056
0.04055207
0.04910473
0.04800569
0.05172731
0.05373223
0.05526337
0.05535791
0.05456956
0.0581961
0.06369908
0.06568548
0.06378472
0.05820052
0.05677676
0.06243247
0.06288598
0.05934033
0.05265986
0.04486505
0.0369396
0.02981508
0.02922837
0.03406099
0.03828229
0.041933
0.04501451
0.04757246
0.04919142
0.04993355
0.04824887
0.05349642
0.04473526
0.05112799
0.0422279
0.04808567
0.05074576
0.05431476
0.05790005
0.06128477
0.06351318
0.06059502
0.05456273
0.05133241
0.04997859
0.04490961
0.0361359
0.04463199
0.0523168
0.05511089
0.05419339
0.05070628
0.04609358
0.04132703
0.03716556
0.03608332
0.03755145
0.03907105
0.04058903
0.04187073
0.04278348
0.0429256
0.04237657
0.04147809
0.04090624
0.03714379
0.04829139
0.04467731
0.04440794
0.0480054
0.05153316
0.05642383
0.06153602
0.06651143
0.07070944
0.07106423
0.06645064
0.05880022
0.04806482
0.03556236
0.0255141
0.03951588
0.04855275
0.05338504
0.05531462
0.05546152
0.05472709
0.05355883
0.05222621
0.05097275
0.04980333
0.04859323
0.04736482
0.04614483
0.04474345
0.04267262
0.04004611
0.03730777
0.03466584
0.0323753
0.03262263
0.04299944
0.04309108
0.04758367
0.05158243
0.05738998
0.0636556
0.07009602
0.07585265
0.07833109
0.07686372
0.0704263
0.06212042
0.05092252
0.04659801
0.06059389
0.06901345
0.07310282
0.07425568
0.07363593
0.0721202
0.07020093
0.06809363
0.06586351
0.06343171
0.06069296
0.05753239
0.05425378
0.05081668
0.04673019
0.04215073
0.03740352
0.03273963
0.02858437
0.02592886
0.04319943
0.04121625
0.04622119
0.05048496
0.05676421
0.0636529
0.07078076
0.07773866
0.08215467
0.08220986
0.07812846
0.07058036
0.06092139
0.06274468
0.0754617
0.08317412
0.08681528
0.08756677
0.08653032
0.0845604
0.08220664
0.0797184
0.07711827
0.07424819
0.07089653
0.06693616
0.06264688
0.05804152
0.05272508
0.04681826
0.04050143
0.03417546
0.02827083
0.02371871
0.04520776
0.03915352
0.04360809
0.04802186
0.05435342
0.06131939
0.0683988
0.07566532
0.08112939
0.08299904
0.0801486
0.07330627
0.06539601
0.0734735
0.0846828
0.09154308
0.09480712
0.0954309
0.09434684
0.09229743
0.08979123
0.0870892
0.08423404
0.0811014
0.07749207
0.07332473
0.06894153
0.06413274
0.05855182
0.0520727
0.04489343
0.03788782
0.03088068
0.02566205
0.05169079
0.03849022
0.03964099
0.04422436
0.05017779
0.05674407
0.06322474
0.07011039
0.07601708
0.07895129
0.07722351
0.07174235
0.06748503
0.07924946
0.08891233
0.09496576
0.09799213
0.09871975
0.09787707
0.09605052
0.09364844
0.09088987
0.08782629
0.08444525
0.08068131
0.07646374
0.07221224
0.06777151
0.06265328
0.05623434
0.04885711
0.04200399
0.03357292
0.03006153
0.03889913
0.04137591
0.03991178
0.04480954
0.0503451
0.05592946
0.0619205
0.06762275
0.07063669
0.07020898
0.065996
0.06987077
0.08106415
0.08928907
0.09466136
0.09760139
0.09859705
0.0981343
0.09662735
0.09438717
0.09158426
0.08829082
0.08462189
0.08063428
0.07664536
0.07261197
0.06854115
0.0640875
0.05813449
0.04975937
0.04158975
0.03979491
0.03942323
0.04297884
0.03837129
0.03915984
0.0420729
0.04714022
0.05233731
0.0573026
0.06011157
0.06009907
0.06237209
0.07064368
0.07978658
0.08683462
0.09177354
0.09479578
0.09610242
0.09593581
0.09458331
0.09232004
0.08932539
0.08584078
0.08212377
0.07804395
0.07413485
0.07034198
0.06655849
0.06235738
0.05769042
0.05508221
0.04665735
0.04279266
0.0419404
0.03904756
0.03778804
0.03668206
0.0372607
0.03979913
0.04288086
0.04732717
0.05139647
0.05450007
0.06183773
0.06914494
0.07648236
0.08267303
0.08732961
0.090417
0.0918326
0.09163688
0.0900748
0.08749469
0.08410966
0.08048834
0.07692121
0.07327981
0.06963841
0.06605077
0.06300315
0.05857579
0.05444052
0.05167506
0.04637534
0.04384156
0.04344901
0.03472107
0.03959886
0.03675401
0.03743886
0.03730872
0.03866224
0.04276402
0.04801295
0.05402516
0.06014449
0.0666517
0.07240379
0.0776989
0.08180718
0.08464307
0.085777
0.08519246
0.08318284
0.08032073
0.07677527
0.07336804
0.07013454
0.06676614
0.06328986
0.05972972
0.05690764
0.05344081
0.05068469
0.04421308
0.03981521
0.04377287
0.03439838
0.03936424
0.03924312
0.0370037
0.03854553
0.03966987
0.04357011
0.04811484
0.05338176
0.0592722
0.06453072
0.06892698
0.07267365
0.07550805
0.07749988
0.07800601
0.0770511
0.07494248
0.07238376
0.0691585
0.06590559
0.06291323
0.05953839
0.05686252
0.05480236
0.05454602
0.05631874
0.05290655
0.04526142
0.04358146
0.0381006
0.033132
0.03970222
0.03802435
0.03834882
0.03957268
0.04334536
0.04741036
0.05162557
0.05709643
0.06161409
0.06520978
0.0678599
0.06936408
0.06996341
0.06972165
0.06877687
0.06699873
0.06462149
0.06163535
0.05897307
0.05799621
0.0588366
0.05933855
0.05949701
0.05935267
0.05655278
0.05329194
0.05087034
0.05504473
0.03488049
0.03418781
0.03745575
0.03735414
0.03951245
0.04217405
0.04593822
0.0497209
0.05313065
0.0570582
0.0603035
0.06218731
0.06277341
0.06257413
0.06182045
0.06066417
0.0605892
0.06184392
0.06370253
0.06650981
0.07061755
0.07184116
0.07051754
0.06740994
0.06766081
0.05997335
0.05483952
0.06708796
0.03673829
0.03872706
0.03978708
0.03938233
0.0427652
0.04549176
0.04778437
0.0509056
0.05390341
0.05621742
0.05789964
0.05860182
0.05853755
0.05962407
0.0627158
0.06701663
0.07172639
0.07640249
0.08027176
0.08345889
0.0837721
0.08060954
0.0775024
0.07586404
0.07105442
0.07746084
0.04741014
0.04561796
0.04496458
0.04567842
0.04945423
0.05147071
0.05377378
0.05644539
0.05867832
0.06007228
0.06231657
0.06617427
0.07052385
0.07510737
0.07981751
0.08450179
0.08845225
0.09183712
0.09421228
0.09063288
0.08640448
0.0859734
0.08444925
0.08885766
0.0589501
0.05169505
0.05650131
0.05966455
0.05957509
0.06011365
0.0636236
0.06634582
0.06888975
0.07216967
0.07591357
0.08006616
0.08461164
0.08941148
0.09434098
0.098046
0.1003941
0.09930446
0.1050381
0.102172
0.08809713
0.09890972
0.07150686
0.06057705
0.06239046
0.06744112
0.07049441
0.07572038
0.07707681
0.0771822
0.07992328
0.08330106
0.08716994
0.09151577
0.09637093
0.09906002
0.1034559
0.1065034
0.112866
0.1069343
0.09505659
0.1078431
0.07921648
0.07603222
0.07359581
0.07554617
0.07979703
0.08247902
0.08493083
0.08810457
0.09129966
0.09480259
0.09863725
0.1027503
0.1143115
0.1187941
0.1095616
0.1008696
0.09837334
0.1181675
0.0942074
0.08487075
0.08528001
0.09349403
0.09430943
0.09131656
0.09375909
0.09706346
0.1013952
0.09831317
0.09744006
0.1071586
0.1172266
0.1353867
0.1123047
0.1023679
0.1037051
0.106596
0.112028
0.1313545
0.06219656
0.05378736
0.0536784
0.0564971
0.05727407
0.05791618
0.05810504
0.05659837
0.05644613
0.06342516
0.05195761
0.05103697
0.0577452
0.05548198
0.05436513
0.05595089
0.0572367
0.05861832
0.05953833
0.06015906
0.06343192
0.06364363
0.05312649
0.05044328
0.0526539
0.0505985
0.05129072
0.05173614
0.05337653
0.05418091
0.05648626
0.05852951
0.05885816
0.06018139
0.06149508
0.06239202
0.06274542
0.06115129
0.06077744
0.05816695
0.05510332
0.05503415
0.05137012
0.04752015
0.04014064
0.03901782
0.04384483
0.04864863
0.05207521
0.05505857
0.05703768
0.0584625
0.05983659
0.06130823
0.06267823
0.06354003
0.06362038
0.06277888
0.06107884
0.05878266
0.05579112
0.05261831
0.05308664
0.0471224
0.05056721
0.04591904
0.03298411
0.0396587
0.04603686
0.04704021
0.05144428
0.05418934
0.05581807
0.05647691
0.0569245
0.05786301
0.05929334
0.06065464
0.06142337
0.06131682
0.0603982
0.05893455
0.05706364
0.05472841
0.05298553
0.05104746
0.04770772
0.04843967
0.04091779
0.04014001
0.03180399
0.03853749
0.04508753
0.04586541
0.05063758
0.05341373
0.055163
0.05596482
0.05551904
0.0541793
0.05407903
0.0555692
0.05694798
0.05755412
0.05715408
0.05595456
0.05433478
0.05253908
0.05064981
0.04918399
0.04744723
0.04494894
0.04023244
0.03715131
0.0299025
0.03999582
0.03142429
0.0374894
0.04369908
0.04480054
0.04890796
0.05175316
0.053427
0.05422365
0.05417158
0.05339049
0.05210226
0.05064457
0.05012057
0.05083026
0.05121575
0.05047557
0.04893411
0.04703575
0.04516649
0.04347531
0.04217175
0.04060056
0.03796969
0.03371781
0.02690286
0.02874983
0.03133725
0.04017302
0.03767759
0.037241
0.04252473
0.04337202
0.04718767
0.04923665
0.05081306
0.05137179
0.05109963
0.05026233
0.04928177
0.04828791
0.04745696
0.04655257
0.04512035
0.04305108
0.0411003
0.03931668
0.03900357
0.03840092
0.03729829
0.03574024
0.03318303
0.02973561
0.02480693
0.01917982
0.02544461
0.02918631
0.0312477
0.03824498
0.03624474
0.04149878
0.04192678
0.04553021
0.04735831
0.04821225
0.0483275
0.04745478
0.04584199
0.04418515
0.04482924
0.0453808
0.04571377
0.04538042
0.04425575
0.04230944
0.03955543
0.03674681
0.03536288
0.03509849
0.03477475
0.0333939
0.03077575
0.02693716
0.02125147
0.01427973
0.01871231
0.02372216
0.02521831
0.02975481
0.03771261
0.03729661
0.0407338
0.0443027
0.04612302
0.04676862
0.04618543
0.04452081
0.04272634
0.04311572
0.04453825
0.04608155
0.04752904
0.04863035
0.04889159
0.04825974
0.04697919
0.04536566
0.04346544
0.0412278
0.03838196
0.03487727
0.03078521
0.0264139
0.02226593
0.01717975
0.01109319
0.01407387
0.01631236
0.01671273
0.0166754
0.02092524
0.0434083
0.04094258
0.04065624
0.04336968
0.04529245
0.04617267
0.04565341
0.04347934
0.0427683
0.04351269
0.04360849
0.04355389
0.04415893
0.04561825
0.04769189
0.04964463
0.05080588
0.05088178
0.05013727
0.04862332
0.04678238
0.04449155
0.04177066
0.03865296
0.03496804
0.03061735
0.02542744
0.0190959
0.01754538
0.01683962
0.01656084
0.01675186
0.0199255
0.0225041
0.03978946
0.04187017
0.04125215
0.04425223
0.04571183
0.04599002
0.04454147
0.04454777
0.04509207
0.0445601
0.04472794
0.04461932
0.04311456
0.04059691
0.03872759
0.04057293
0.0449486
0.04828623
0.05001244
0.05001173
0.04934686
0.04801474
0.04631673
0.04427415
0.04190594
0.03918592
0.03620187
0.03502718
0.03521241
0.03425442
0.03332901
0.03122625
0.03237461
0.03103571
0.04230773
0.04016344
0.04300973
0.04509996
0.04632677
0.04640699
0.0467943
0.04830733
0.04882391
0.05182139
0.05626419
0.05846234
0.05877538
0.05699022
0.05297438
0.04704307
0.04000959
0.03601734
0.03908043
0.04380577
0.04614813
0.04688292
0.04682079
0.0462039
0.04632913
0.04768486
0.04851194
0.05035797
0.05064249
0.04971836
0.04811371
0.04615454
0.04426672
0.03962072
0.05344521
0.04160145
0.04157877
0.04447952
0.04628889
0.04751676
0.04854669
0.05102292
0.05288254
0.05445397
0.05958187
0.06624805
0.07051795
0.0721504
0.07090149
0.06682232
0.0647049
0.0608291
0.05359136
0.04404782
0.03515583
0.03447041
0.03957177
0.04332596