/*--------------------------------*- C++ -*----------------------------------*\
  =========                 |
  \\      /  F ield         | OpenFOAM: The Open Source CFD Toolbox
   \\    /   O peration     | Website:  https://openfoam.org
    \\  /    A nd           | Version:  6
     \\/     M anipulation  |
\*---------------------------------------------------------------------------*/
FoamFile
{
    version     2.0;
    format      ascii;
    class       volScalarField;
    location    "49.8";
    object      Co;
}
// * * * * * * * * * * * * * * * * * * * * * * * * * * * * * * * * * * * * * //

dimensions      [0 0 0 0 0 0 0];

internalField   nonuniform List<scalar> 
203709
(
0.06142328
0.05518422
0.05478963
0.05214303
0.03258031
0.02666983
0.03931699
0.04326982
0.04305793
0.04304064
0.0482713
0.03598995
0.04224328
0.03861075
0.02773054
0.02324325
0.02230309
0.02554999
0.03135207
0.0333137
0.0333485
0.03175347
0.03311671
0.0414515
0.06370329
0.05651084
0.05012446
0.04548033
0.03874116
0.03358727
0.02464301
0.01609093
0.0175357
0.02286323
0.02408091
0.02535633
0.03269605
0.04390883
0.0752019
0.06207961
0.05692164
0.05089642
0.04844036
0.04884547
0.04424218
0.0370246
0.02855924
0.01904094
0.01202438
0.0119051
0.01865191
0.02536645
0.070034
0.05509724
0.05339318
0.04722815
0.0375676
0.04325527
0.04858089
0.04892872
0.04569911
0.03961184
0.03304847
0.02722776
0.02251691
0.01968899
0.0213801
0.03637173
0.0488215
0.03829198
0.03151978
0.02201689
0.01307911
0.02662924
0.03574993
0.03956425
0.03933405
0.03638959
0.03245334
0.02857664
0.02550866
0.02382215
0.02523876
0.02986266
0.09105585
0.06826443
0.05756152
0.04634141
0.03364868
0.0295778
0.04048515
0.04596804
0.04717317
0.04589845
0.04342519
0.04082227
0.0382563
0.03644035
0.03559664
0.03613416
0.03844677
0.04667743
0.09356115
0.08285378
0.07181777
0.06123259
0.04923687
0.05370813
0.0633207
0.06775184
0.06831206
0.06628035
0.06290644
0.05923001
0.05551731
0.05219082
0.04955613
0.04798766
0.04841036
0.04929105
0.09903425
0.08850913
0.07881118
0.06805554
0.05819676
0.06866111
0.07714902
0.08084788
0.08150786
0.07945126
0.07611022
0.07226228
0.068401
0.06468964
0.06146544
0.05915371
0.05866438
0.06014864
0.1041655
0.09355597
0.08106934
0.07013099
0.06527372
0.07672086
0.08432069
0.0876699
0.08819511
0.08663303
0.0838766
0.080387
0.07675765
0.07323054
0.07013615
0.06802274
0.06761343
0.06766187
0.1065669
0.08049881
0.06842552
0.07005506
0.07992226
0.08651381
0.09003731
0.09080859
0.08964859
0.0874637
0.0846074
0.08147774
0.07841656
0.07587546
0.0751107
0.08702656
0.1067421
0.08456127
0.06790169
0.07278707
0.08012111
0.08567432
0.08893005
0.09012678
0.08960825
0.08814053
0.08598288
0.08348995
0.08111306
0.07932992
0.07935041
0.08673795
0.09051979
0.07069068
0.07397992
0.0786935
0.08261136
0.08587019
0.08749931
0.0876098
0.08664731
0.08518134
0.08330474
0.08173716
0.08147627
0.09530781
0.08925534
0.0727798
0.07488441
0.07785132
0.08009589
0.08205502
0.0833856
0.08412352
0.08364811
0.0826009
0.08092709
0.07976862
0.0780312
0.08601455
0.08286306
0.07517673
0.07618885
0.07952904
0.07993304
0.07971875
0.07971237
0.07955213
0.08009269
0.07965666
0.09357258
0.08371326
0.08396983
0.0786505
0.07757
0.07926203
0.07858209
0.07881929
0.09192935
0.08804663
0.0874578
0.08232408
0.0832018
0.08610553
0.06928607
0.06023683
0.0598826
0.06049635
0.06107579
0.06096562
0.05991484
0.05793584
0.05524509
0.05739476
0.06289656
0.05284088
0.05177305
0.05059124
0.05107631
0.05259512
0.05396515
0.05391371
0.05236184
0.05022722
0.04733993
0.04655146
0.04846481
0.04435733
0.05741306
0.04718249
0.04220733
0.04301027
0.04500541
0.04603092
0.04886174
0.05192701
0.05250979
0.04913909
0.0472244
0.04465163
0.0416902
0.03888986
0.03658848
0.03553682
0.05492153
0.04158583
0.03518164
0.03371607
0.03550086
0.0395469
0.04949434
0.05267321
0.05145545
0.05097465
0.04605177
0.04674534
0.04309707
0.04133983
0.03931854
0.03699548
0.03438996
0.04106168
0.05572707
0.0401264
0.03249072
0.02871857
0.02500585
0.02908289
0.03210979
0.03489945
0.04041312
0.04344856
0.04402141
0.0455877
0.04680901
0.04031105
0.04213442
0.03786361
0.03775977
0.03665876
0.03763756
0.04788412
0.05951345
0.04321567
0.03730716
0.03702776
0.03524875
0.03238069
0.03282407
0.02704433
0.02341429
0.02421021
0.03054234
0.03620699
0.03922104
0.04011736
0.04087667
0.04107121
0.03789449
0.0363845
0.03593336
0.03650372
0.04390017
0.05513194
0.04296052
0.04151286
0.0446092
0.04725914
0.0486042
0.05037016
0.04874643
0.04603751
0.04066753
0.03414429
0.02693782
0.02210733
0.02568286
0.03154449
0.03458604
0.03627489
0.03765113
0.03566674
0.03759017
0.03982897
0.04505525
0.04969232
0.06519858
0.04709713
0.04436277
0.05036376
0.05768955
0.06492373
0.06202428
0.05981558
0.05598173
0.05202383
0.05132561
0.04693894
0.03924289
0.02967795
0.01980264
0.01788597
0.02296066
0.02630611
0.02910891
0.03621905
0.03579278
0.04063382
0.04422006
0.06250377
0.05588553
0.05005807
0.04628034
0.046495
0.05228379
0.05756027
0.05729414
0.053016
0.04566697
0.04690892
0.05199822
0.05193906
0.0481096
0.04151902
0.03430979
0.0273893
0.02170091
0.01937773
0.02090071
0.02884318
0.03091782
0.03376956
0.0377015
0.04345972
0.0620695
0.05964137
0.05508669
0.05576629
0.05200259
0.04510551
0.03957638
0.03174067
0.02239781
0.0331553
0.04102623
0.04390461
0.04303046
0.0396511
0.03527019
0.03092072
0.02742556
0.02676609
0.02857268
0.03218102
0.03369957
0.03233711
0.03553113
0.03827255
0.06860657
0.06876048
0.07106246
0.07130062
0.06173445
0.05296114
0.04214657
0.03089648
0.02379457
0.03663719
0.04395643
0.04720126
0.04784067
0.04701933
0.04563969
0.04405788
0.04269817
0.041788
0.04121422
0.03857295
0.03963848
0.03910854
0.03863054
0.03917938
0.07370124
0.07522141
0.07917073
0.08254932
0.0773067
0.06846681
0.05773494
0.04750743
0.04783356
0.05966707
0.06597785
0.06829994
0.06794895
0.06618299
0.06377118
0.06120815
0.0587242
0.05654391
0.05471141
0.05300313
0.04982754
0.04683205
0.0448133
0.04406638
0.07614118
0.07766843
0.08310055
0.08727489
0.0848584
0.0777154
0.0667554
0.0575278
0.06426379
0.07480631
0.08035055
0.08238394
0.08173668
0.07964549
0.07680357
0.07381358
0.07084982
0.06815087
0.06574442
0.06333456
0.05912821
0.05531919
0.05203405
0.05119642
0.07580503
0.07660649
0.07939996
0.08135997
0.08790784
0.08205622
0.07162915
0.06316056
0.07431041
0.08344687
0.08838688
0.09016207
0.08964338
0.08773659
0.08500271
0.08196994
0.07892718
0.07611814
0.07359078
0.06995097
0.06159693
0.05993107
0.05881423
0.05889578
0.07316041
0.07312401
0.07689024
0.08251567
0.09084395
0.08190332
0.0717055
0.06638993
0.0784578
0.08656626
0.09127709
0.09318948
0.09299744
0.09148146
0.0891344
0.08637995
0.08355121
0.08095992
0.07891215
0.08014768
0.07221601
0.06607829
0.06437002
0.06568578
0.06954441
0.06767634
0.07045188
0.07446354
0.07638291
0.07973628
0.0690213
0.06959987
0.07889226
0.08615646
0.09058935
0.09270018
0.0929754
0.091988
0.09010884
0.08774827
0.08526326
0.08293702
0.08003587
0.07304694
0.07136523
0.06861899
0.06773848
0.07085117
0.07000827
0.06322645
0.06239708
0.0651464
0.06715572
0.0737031
0.06640088
0.07098567
0.07687671
0.08278803
0.08732441
0.08982336
0.09062104
0.09002109
0.08847274
0.08634104
0.08404136
0.08253262
0.08572415
0.07750738
0.07168665
0.06888252
0.06687844
0.07100494
0.06415408
0.05403312
0.05482503
0.05662578
0.06702381
0.06412617
0.07080246
0.07561649
0.07892486
0.08231474
0.08492066
0.08623696
0.08586234
0.08415408
0.08171582
0.07872953
0.0759477
0.07181683
0.07111731
0.06967819
0.06808276
0.07606952
0.05839914
0.04783719
0.04566684
0.04756299
0.05962069
0.06401757
0.07142859
0.07151269
0.0761268
0.07752944
0.07886686
0.07969273
0.07937864
0.07799215
0.07615459
0.07878218
0.0683579
0.06763767
0.06723471
0.0657444
0.06542542
0.06535884
0.05134253
0.04187906
0.04698497
0.05007587
0.05974488
0.06839827
0.07132768
0.07391639
0.0724662
0.07426266
0.0732347
0.07321377
0.07694503
0.06762945
0.0690993
0.06509681
0.06426712
0.064383
0.06862739
0.07945524
0.04286387
0.04531053
0.04999539
0.05365697
0.05617021
0.06373018
0.07242004
0.07342182
0.07192732
0.0709316
0.06505018
0.06651499
0.06413752
0.06312654
0.06173344
0.06350991
0.07143084
0.08738402
0.04641356
0.048788
0.0515193
0.05428088
0.05781197
0.05884281
0.06288043
0.06537117
0.06597357
0.06247775
0.06122204
0.06043112
0.06106641
0.06221208
0.07499837
0.09489533
0.05856726
0.05077638
0.05350449
0.05743997
0.05938989
0.06165026
0.06318555
0.06339761
0.06247692
0.06205755
0.06517243
0.07607215
0.08444149
0.1006796
0.06912997
0.06455285
0.06661771
0.06849857
0.06970145
0.07121508
0.07493068
0.08046726
0.08696353
0.1072768
0.07422724
0.06438435
0.06445132
0.06465476
0.06460776
0.06414955
0.06386558
0.07145497
0.06812703
0.06116433
0.06448078
0.06085274
0.0560245
0.05621711
0.05626092
0.05598184
0.05547902
0.05512257
0.05352125
0.05216357
0.05273896
0.05948798
0.06629154
0.05736862
0.05277359
0.05220564
0.05405052
0.05418574
0.05443465
0.05449971
0.05407316
0.05274378
0.05041918
0.04759109
0.0436599
0.04238323
0.04216499
0.04360754
0.06007264
0.05474402
0.05081474
0.05092002
0.05958796
0.05990709
0.05573297
0.05578861
0.05625674
0.05653246
0.05615636
0.05479514
0.05207954
0.04757853
0.04573033
0.04210435
0.03453856
0.03060135
0.03053935
0.03612577
0.05159756
0.04784799
0.04768785
0.05357002
0.05526958
0.04997436
0.05026109
0.05175579
0.05238818
0.05338287
0.05392294
0.05349943
0.05188176
0.04910545
0.04527276
0.04247349
0.03832566
0.03226848
0.02563922
0.02069785
0.01842968
0.01576916
0.05032328
0.0450132
0.04499207
0.05025087
0.0502637
0.04584341
0.04610111
0.04662614
0.04760413
0.04935897
0.05107326
0.0518845
0.05146567
0.04966575
0.0468214
0.04317186
0.04014089
0.03655546
0.0328487
0.02780087
0.02168478
0.01767882
0.01175806
0.01175102
0.04613268
0.04389735
0.04804185
0.04683626
0.04174838
0.04085317
0.03951377
0.0410045
0.04317298
0.04529301
0.04730086
0.04846325
0.04812665
0.04669045
0.04593297
0.04410339
0.04209172
0.03987713
0.03665881
0.03302961
0.030437
0.02359261
0.02042566
0.02137319
0.04552386
0.0414718
0.04731214
0.04547907
0.03919531
0.0365824
0.0346845
0.03373438
0.03454901
0.03671098
0.03993539
0.04297581
0.04468652
0.04540348
0.04562701
0.04510395
0.04515079
0.04381345
0.04203765
0.04029275
0.03814508
0.03651635
0.03404886
0.03054658
0.02753205
0.03244694
0.05189312
0.04513219
0.04699433
0.04424615
0.0391523
0.03708054
0.03742869
0.03741317
0.03572466
0.03319765
0.03030281
0.0286283
0.0313811
0.03712323
0.04136762
0.04369569
0.04446992
0.04464596
0.04386975
0.04347537
0.04212619
0.0407894
0.03958086
0.04065411
0.04316068
0.04054638
0.04323867
0.05229146
0.04889869
0.04518057
0.04919934
0.04669596
0.04078461
0.04276989
0.0470516
0.04953932
0.0503686
0.04967677
0.04730015
0.04282912
0.03694921
0.03032988
0.02750413
0.03173296
0.03693598
0.03969413
0.04096374
0.04139842
0.04102128
0.04254258
0.04424302
0.04723889
0.050466
0.0573993
0.05091685
0.05646794
0.04782048
0.04911267
0.04951609
0.0452144
0.04503785
0.04810674
0.0549229
0.06055745
0.06321878
0.06348785
0.06128189
0.05659426
0.05484886
0.05048423
0.04280509
0.03322934
0.02495666
0.02475069
0.02994892
0.03360568
0.03598976
0.0395824
0.0435376
0.04691739
0.04825074
0.05628586
0.05129096
0.05307397
0.05552746
0.04848497
0.05176008
0.05391331
0.05287777
0.05050542
0.0501916
0.05513707
0.06093942
0.0623591
0.06038175
0.0547539
0.05185906
0.05600417
0.05622073
0.05257903
0.04626801
0.03905858
0.03199617
0.02589568
0.02460526
0.02839588
0.03270816
0.03632409
0.03915006
0.04181829
0.04403675
0.04399065
0.04327371
0.05716162
0.0522194
0.05201387
0.05459202
0.05845005
0.06002949
0.0602302
0.05610968
0.0509856
0.04968709
0.04777411
0.04233978
0.03305753
0.03899236
0.04655855
0.0491901
0.04816386
0.04472661
0.04025696
0.03575801
0.03262042
0.03254098
0.03429215
0.03577564
0.03734671
0.03841361
0.03906462
0.03943355
0.03887423
0.0392297
0.04136163
0.05253012
0.05299239
0.05747276
0.06301008
0.06686531
0.06980597
0.06897549
0.06245708
0.05403957
0.0436003
0.03183495
0.02150947
0.03461207
0.04362715
0.04848959
0.05057214
0.05097137
0.05053542
0.049698
0.04880206
0.04806653
0.04743296
0.04644188
0.04521418
0.04383069
0.04229802
0.04042055
0.03855757
0.03709427
0.0363655
0.05295409
0.05374333
0.05931523
0.06625189
0.07164892
0.07665798
0.07856735
0.07530969
0.06774266
0.05851762
0.04799738
0.04354303
0.05742161
0.06553579
0.06938402
0.07040535
0.06978204
0.0683415
0.06657526
0.06472738
0.06291397
0.06104656
0.05885757
0.05572544
0.05231744
0.0488969
0.04497764
0.04154577
0.03831823
0.03567695
0.05230988
0.05342159
0.05960338
0.06739368
0.07351058
0.07977461
0.08344585
0.08270513
0.07677904
0.06761315
0.05836399
0.06073371
0.0731707
0.0804486
0.08375549
0.0842624
0.0831079
0.08109455
0.07878575
0.07643126
0.07412859
0.07174177
0.06893594
0.06517548
0.06090724
0.05641391
0.05129526
0.04653928
0.04180645
0.03801521
0.05038274
0.05174812
0.05810674
0.06620858
0.07222619
0.07873817
0.08302664
0.08465272
0.08069376
0.07167901
0.06312807
0.07185171
0.08270949
0.0891271
0.09202586
0.09239439
0.09117384
0.08905603
0.08656117
0.08397584
0.08140096
0.07869913
0.07551446
0.0712946
0.06733122
0.06287836
0.05775972
0.05218937
0.04654741
0.04260703
0.04761283
0.04876664
0.05476481
0.06273089
0.06810016
0.07405234
0.07948425
0.08269787
0.07970464
0.0715697
0.06519788
0.07736775
0.08681483
0.09258128
0.09534078
0.09584929
0.09486941
0.09297534
0.09060006
0.08801588
0.08533146
0.08252769
0.07944394
0.07483565
0.07072794
0.06711493
0.06297208
0.05709965
0.05132271
0.04819086
0.05185405
0.04692292
0.05021801
0.05719054
0.06184728
0.06699866
0.07260997
0.07517452
0.07411827
0.06747803
0.0677989
0.07875323
0.0870085
0.09225287
0.09501855
0.09584209
0.09525676
0.09369605
0.09152507
0.08898215
0.08615734
0.08304846
0.07927969
0.07570294
0.07179753
0.06875043
0.06579586
0.05997135
0.05282141
0.05086139
0.04544202
0.04271393
0.04720038
0.05473518
0.05837444
0.06252577
0.06531222
0.06539849
0.06347863
0.06906601
0.07697937
0.08421919
0.08921086
0.09216911
0.09337931
0.09311888
0.09174502
0.08958075
0.08689288
0.08409451
0.0814327
0.07717658
0.07350035
0.07041547
0.06654245
0.06057552
0.05789017
0.06138141
0.0392248
0.03666153
0.03784795
0.04800648
0.04870356
0.05108457
0.05378712
0.05701615
0.06149356
0.06811173
0.07448632
0.07946335
0.08413075
0.08741647
0.08894224
0.08875072
0.08714565
0.08455922
0.08120918
0.07828507
0.07572661
0.07300783
0.0699782
0.06778041
0.07016131
0.0631515
0.05848277
0.05938073
0.0415078
0.03288341
0.03349987
0.04123412
0.03951913
0.04298593
0.04640507
0.05292141
0.05924587
0.0655334
0.07079397
0.07503575
0.07790548
0.08071708
0.08235261
0.0818572
0.07960849
0.07668715
0.07290737
0.07084392
0.06869087
0.06660569
0.06425746
0.06309165
0.0575438
0.05584857
0.0564208
0.05817975
0.03467412
0.03170688
0.03868491
0.03993146
0.04046871
0.04534052
0.05081306
0.0568163
0.06233264
0.06668566
0.07021746
0.0725163
0.07366111
0.07353381
0.07275668
0.07121694
0.06905668
0.06677907
0.06458775
0.06316233
0.06205122
0.06474503
0.06307823
0.05861402
0.0606266
0.07140333
0.03476649
0.03480442
0.04094524
0.04279147
0.04365792
0.0481377
0.0532609
0.05816518
0.06229595
0.06531605
0.06696827
0.0677865
0.06747776
0.06616451
0.06514604
0.06361161
0.06174223
0.06021742
0.06229207
0.06801934
0.06832933
0.06307664
0.06116244
0.05694035
0.03855753
0.03512989
0.03651861
0.04348829
0.04558651
0.04620882
0.04969638
0.0535588
0.05722853
0.05999549
0.06159279
0.06211261
0.06185984
0.06094766
0.05974494
0.059339
0.06262722
0.06656668
0.07233432
0.07771017
0.07330601
0.06466998
0.07128417
0.08579162
0.03667998
0.03755546
0.03902169
0.04708607
0.05025343
0.04911851
0.05181358
0.05561199
0.05791914
0.05975869
0.06072895
0.06100106
0.06266151
0.06660882
0.07133618
0.07428803
0.0781454
0.08934078
0.08548604
0.0744243
0.08053913
0.09646874
0.04885959
0.0435348
0.04368606
0.04711924
0.05760822
0.06048135
0.05944156
0.06150734
0.06345845
0.06669169
0.07127147
0.07593206
0.08058499
0.08531102
0.0959185
0.09928911
0.08845358
0.08811669
0.09467692
0.1037172
0.06513019
0.05758489
0.05361214
0.05712796
0.06279072
0.06588766
0.06962747
0.07358783
0.07784112
0.08228552
0.08645526
0.0901638
0.0905223
0.09403456
0.1009734
0.1120382
0.07845424
0.07311837
0.07958771
0.07734685
0.07420124
0.07710563
0.08072234
0.08473437
0.08926536
0.09494109
0.09577824
0.09932421
0.1119073
0.1319628
0.09877235
0.08939422
0.0917054
0.09522556
0.09912715
0.1034711
0.1095087
0.1319343
0.07275489
0.06465712
0.06456847
0.06513965
0.06655984
0.0750968
0.06544298
0.05908831
0.05860863
0.06416532
0.06347634
0.05996983
0.06028567
0.06083262
0.06151262
0.05760773
0.0539585
0.05616231
0.05829381
0.06262217
0.0554868
0.05461078
0.05420868
0.05551627
0.06078195
0.06202016
0.05949399
0.06055244
0.06115333
0.06142453
0.06126969
0.06068255
0.0627956
0.06191626
0.05462114
0.04851309
0.04784681
0.057163
0.05278656
0.04723743
0.05470641
0.05798447
0.05624877
0.05821998
0.05855132
0.05769999
0.05837987
0.05886631
0.05895149
0.0585566
0.05768884
0.05485043
0.05369977
0.05234939
0.05325928
0.05220666
0.04447542
0.04842934
0.04513216
0.04521379
0.055726
0.05682288
0.05412943
0.05648509
0.05663299
0.0560504
0.05551935
0.05599338
0.05647465
0.05631182
0.05548418
0.05408169
0.05227577
0.050066
0.04795457
0.04561448
0.04788471
0.04726423
0.03880814
0.03464233
0.03970775
0.04620196
0.05223251
0.05067562
0.05274446
0.05530195
0.05563853
0.05535856
0.05498806
0.0544145
0.05388926
0.05298722
0.05160958
0.05000185
0.04806484
0.04577823
0.0433734
0.0414824
0.04018023
0.03764
0.03704602
0.03493922
0.02812227
0.02840644
0.03831073
0.04458732
0.04987279
0.04857482
0.05162899
0.05297533
0.05305642
0.052616
0.05205838
0.05163564
0.05146906
0.0513561
0.05075171
0.04910798
0.04621157
0.04221172
0.03749135
0.03418876
0.03279537
0.03115173
0.02916799
0.02684078
0.02326125
0.01997749
0.01669153
0.02430817
0.04105244
0.04138074
0.04671392
0.04675588
0.04926758
0.05002748
0.04984761
0.04876658
0.0474344
0.04694559
0.04704342
0.0475914
0.04807293
0.04790614
0.04655492
0.04384774
0.04135785
0.03849082
0.03565094
0.03192253
0.02741574
0.02390926
0.02063234
0.01606962
0.00968346
0.006185421
0.01314264
0.01774828
0.04597177
0.03904448
0.04793179
0.04828862
0.04793598
0.0480431
0.04706054
0.0452588
0.04258844
0.0421393
0.04309438
0.04449311
0.04558784
0.04642612
0.046563
0.04587827
0.04481438
0.04405293
0.04280827
0.04087602
0.03813461
0.03460277
0.03059211
0.02658389
0.02125158
0.01543294
0.01002657
0.01231027
0.01144148
0.01434566
0.03806689
0.04648648
0.0478504
0.04594064
0.04739973
0.04589171
0.04306599
0.04080919
0.04059715
0.04048522
0.04112508
0.04258972
0.04446436
0.04623373
0.04759461
0.04811731
0.04796091
0.04718421
0.04619102
0.04460222
0.04255859
0.04013923
0.03731954
0.03433136
0.03131537
0.02742794
0.0241928
0.02632936
0.0271776
0.02129741
0.04935638
0.03997638
0.04647813
0.04565165
0.04757044
0.04653033
0.04365638
0.04175098
0.04089329
0.04017478
0.03918766
0.03720594
0.03474609
0.03492557
0.03843668
0.0424713
0.04549896
0.04708733
0.04746682
0.0472034
0.0462743
0.0451574
0.04364185
0.04192063
0.04023712
0.03974811
0.04049762
0.04185128
0.04037596
0.04282375
0.03574682
0.04445505
0.04466978
0.04467619
0.04646135
0.04772365
0.04826314
0.04675213
0.04521426
0.04532402
0.04761527
0.05074423
0.05203793
0.05182105
0.04982157
0.04591119
0.04048424
0.03414345
0.0321464
0.03636139
0.0407354
0.04300849
0.04389671
0.04403642
0.04360427
0.04532574
0.04739262
0.05022069
0.05339699
0.05458316
0.05414332
0.05258881
0.05102092
0.05137513
0.04248632
0.0495813
0.04794015
0.04916882
0.0498689
0.04936251
0.04925252
0.05046863
0.05558049
0.0615031
0.06537392
0.06690956
0.06578987
0.06191993
0.05793379
0.05397063
0.04671246
0.03754059
0.0297758
0.02978815
0.03480287
0.03841482
0.0409342
0.04503471
0.04908721
0.05247307
0.05508333
0.05653992
0.05682745
0.05525526
0.05901815
0.05060647
0.04027739
0.04895806
0.04752891
0.05095706
0.05268278
0.05422668
0.05500546
0.05410791
0.05743997
0.06380419
0.06715026
0.06689236
0.06276254
0.0576341
0.05976524
0.06051244
0.05732281
0.05147525
0.04457215
0.03767646
0.03152581
0.0305735
0.03459697
0.0386862
0.04214991
0.0450106
0.04725886
0.04851424
0.04885542
0.04677361
0.05142766
0.04265251
0.0512184
0.041866
0.04751265
0.04987887
0.05306173
0.05618628
0.05958235
0.06182596
0.05985925
0.05577002
0.05481032
0.05522792
0.05167431
0.04359459
0.04350284
0.05141081
0.05424089
0.05338738
0.05012838
0.04576639
0.04127538
0.03828423
0.03831291
0.03989133
0.04130352
0.04258545
0.04353342
0.04400944
0.04364429
0.04247778
0.04094832
0.0398831
0.03557481
0.04573934
0.0443558
0.04387696
0.04724076
0.05042104
0.05487692
0.05946107
0.06421494
0.0686483
0.06925759
0.06498489
0.0582172
0.04755918
0.03522501
0.02265362
0.03298127
0.043601
0.04992168
0.05325109
0.0546683
0.0550078
0.05474106
0.05415855
0.05345225
0.052608
0.05149644
0.05015635
0.04866057
0.04686424
0.04432828
0.04113144
0.03780865
0.03465276
0.03179689
0.03160876
0.04308844
0.0424336
0.0466975
0.05036452
0.05575585
0.06152546
0.06752101
0.07333014
0.07656519
0.07543556
0.07003218
0.0618924
0.05095715
0.0409346
0.05558674
0.06531745
0.07063001
0.07288792
0.07323266
0.07252649
0.07128392
0.06974908
0.06798505
0.06589912
0.06336128
0.06021976
0.05678402
0.053067
0.04863831
0.0436245
0.03840297
0.03330752
0.02871498
0.02573221
0.04365773
0.04048512
0.04529045
0.0492777
0.05521111
0.06170248
0.06851745
0.07538407
0.0800682
0.0813228
0.07777571
0.0709547
0.06135405
0.05757192
0.07173195
0.08069496
0.08538049
0.086997
0.08666159
0.08524479
0.08332179
0.08117163
0.07883886
0.07617942
0.07297978
0.0690754
0.06471608
0.05994529
0.05442035
0.0482093
0.04154243
0.03489288
0.02863077
0.02378557
0.0454461
0.03877137
0.04269615
0.04690252
0.05298596
0.05968591
0.06661314
0.07393473
0.07970777
0.08227897
0.08049413
0.07424189
0.06627273
0.06966639
0.08216075
0.09012524
0.09426112
0.09555029
0.09495761
0.09325885
0.09099443
0.08845121
0.08569105
0.08261055
0.07902843
0.07485079
0.07040733
0.06549907
0.05980974
0.0531263
0.04569815
0.0384676
0.03114503
0.02560891
0.05177489
0.03817204
0.03881241
0.04323947
0.0490431
0.05547405
0.06195384
0.06903017
0.07535653
0.07886964
0.07816096
0.07301649
0.06650946
0.07669831
0.08746256
0.0944196
0.09812534
0.09933183
0.09880609
0.0971752
0.09488163
0.09216553
0.08908993
0.08565834
0.08181855
0.0775011
0.0731411
0.06860713
0.06342539
0.05687141
0.0493247
0.04232177
0.03353856
0.03066885
0.03840825
0.04068667
0.03909316
0.04392102
0.04942419
0.0551147
0.06192185
0.06804014
0.07154638
0.07157354
0.06763563
0.06741764
0.07958565
0.08867446
0.09472529
0.09814847
0.0994576
0.09917816
0.09776216
0.0955491
0.09272245
0.08935964
0.08558523
0.08145875
0.07731628
0.07313104
0.06894524
0.06442632
0.05837397
0.04985905
0.04160433
0.03959785
0.03919686
0.04246313
0.03761753
0.03820424
0.0414903
0.04671952
0.05274112
0.05811304
0.06136298
0.06170947
0.06238451
0.06926188
0.07911418
0.08676127
0.09214999
0.09548059
0.09697953
0.09691689
0.09560298
0.0933303
0.09028219
0.08670457
0.08285802
0.07861012
0.07451941
0.07054739
0.06663349
0.06235907
0.05763232
0.05503295
0.04654174
0.0425136
0.04167447
0.03859005
0.03705883
0.03561741
0.03643263
0.03891908
0.04256232
0.04715211
0.05144993
0.05480366
0.06055014
0.06849764
0.07625425
0.08280129
0.08773522
0.09102711
0.09258041
0.09246241
0.09092398
0.08832363
0.08487233
0.08114806
0.07743986
0.07362298
0.06979417
0.06602083
0.06285502
0.05837392
0.05419845
0.05142874
0.04606915
0.04340401
0.04315109
0.03431114
0.03887989
0.03580133
0.0361743
0.03576789
0.03737721
0.04137457
0.04661572
0.05278302
0.0594006
0.06619636
0.07222474
0.07777356
0.08209563
0.08510702
0.08636726
0.08585642
0.0838655
0.08097897
0.07736021
0.07384734
0.07046788
0.06692002
0.06325647
0.05953426
0.05662853
0.05316233
0.05085628
0.04423117
0.04002215
0.04429365
0.03401645
0.03867932
0.03831943
0.03589905
0.03718993
0.03850225
0.04234668
0.04693734
0.05255913
0.05861296
0.06408493
0.06871172
0.07268096
0.07570458
0.07785333
0.07847025
0.07757777
0.07547863
0.07289094
0.06958534
0.06622297
0.06307995
0.05953273
0.05710954
0.05502265
0.05525418
0.05705108
0.05347403
0.04554589
0.04320252
0.03762514
0.03258554
0.03885715
0.03701058
0.03719024
0.03858515
0.04232007
0.04642944
0.05094648
0.05654429
0.06123202
0.06501554
0.06784389
0.06950559
0.07023317
0.07007705
0.06917468
0.06739732
0.06497879
0.06190596
0.05933553
0.05878908
0.0600068
0.060203
0.06016771
0.06006941
0.05729578
0.05373882
0.05136265
0.0559
0.03433568
0.03349466
0.03655462
0.03636173
0.03839737
0.04130425
0.04508633
0.04895784
0.0525055
0.05674297
0.06013129
0.06215487
0.06286568
0.0627613
0.06206672
0.06093561
0.06071816
0.06196132
0.06402965
0.06721147
0.07155504
0.07302496
0.0719099
0.06856084
0.06846104
0.06116623
0.05603827
0.06796024
0.03630471
0.03798488
0.03878763
0.03836917
0.04167212
0.04439136
0.047071
0.05029749
0.05341598
0.05586575
0.05767728
0.05850089
0.05853905
0.05947956
0.06246307
0.06689121
0.07181644
0.07673342
0.08086532
0.08429643
0.08486585
0.08193621
0.07861472
0.07708781
0.07242384
0.07847131
0.04675054
0.04473719
0.04400121
0.04477741
0.04844493
0.05043073
0.05282615
0.05562699
0.05800924
0.0595607
0.06176805
0.06557937
0.07006475
0.07479403
0.07966638
0.08453466
0.08870668
0.09234312
0.09497187
0.09166654
0.08775897
0.08765399
0.08593039
0.08997533
0.0581466
0.05099916
0.05554956
0.05863344
0.05873369
0.05927509
0.06281513
0.06558467
0.06820066
0.07156523
0.07540149
0.07965414
0.08431103
0.089242
0.09433082
0.09823712
0.1008358
0.09999979
0.1061688
0.1036192
0.08940806
0.09995036
0.07066544
0.05994284
0.06158884
0.06659524
0.0698001
0.07504844
0.0764506
0.07660885
0.07941194
0.08285701
0.08679962
0.09122925
0.09619026
0.09901755
0.1036159
0.1069018
0.1135656
0.1080128
0.09593744
0.1086243
0.07848512
0.07540674
0.07298899
0.07497292
0.07921414
0.0819116
0.08444471
0.08766244
0.09090818
0.09446621
0.09836334
0.1025627
0.1142366
0.1189022
0.1099243
0.1009678
0.09859354
0.119846
0.09354703
0.08433811
0.08479384
0.09299737
0.0938592
0.09093284
0.09341823
0.09676441
0.1011391
0.09802811
0.09727656
0.107237
0.117556
0.1359425
0.1118336
0.1019971
0.1033767
0.1063059
0.1117702
0.1310818
0.06287693
0.05433283
0.05428479
0.05718273
0.05798354
0.05859662
0.05867745
0.05701282
0.05663799
0.06329662
0.05245331
0.05157346
0.05838972
0.05612975
0.05525687
0.05689009
0.05795305
0.05932925
0.06018869
0.06068174
0.06372937
0.06376538
0.05311189
0.05053039
0.05281875
0.05061753
0.05176986
0.0525409
0.05423669
0.05489635
0.05725531
0.05932834
0.0596961
0.06101107
0.06225634
0.06302363
0.06319304
0.06137253
0.0608396
0.05808976
0.05505516
0.05504453
0.05157147
0.04790649
0.04068951
0.03974225
0.04469727
0.04946604
0.05284379
0.05598982
0.05804425
0.05951624
0.06088232
0.06228653
0.06350689
0.06415637
0.0639973
0.06293046
0.06105123
0.05865595
0.05571201
0.05267417
0.05343035
0.04739796
0.05106446
0.04603408
0.0334123
0.04034615
0.04692974
0.04811575
0.0527822
0.05571457
0.05743719
0.05794742
0.05822866
0.05912842
0.06042124
0.06154109
0.06201413
0.06162022
0.06046617
0.05883697
0.05686857
0.05458485
0.05298141
0.051184
0.04790393
0.04867198
0.04107707
0.04147696
0.03221095
0.03913766
0.04594117
0.04691434
0.05200531
0.0550721
0.05701911
0.05790609
0.05735288
0.05582842
0.0555826
0.05685307
0.05788387
0.05809761
0.05735063
0.05589236
0.05410936
0.05222383
0.05035312
0.04897244
0.04734577
0.04493701
0.04032403
0.0374629
0.03086185
0.04129398
0.03185061
0.03803935
0.04444711
0.04579481
0.05024485
0.05344956
0.05544808
0.0564902
0.05650347
0.05555234
0.05394357
0.05210818
0.05136601
0.05179101
0.05167334
0.05051154
0.04866626
0.04656381
0.04457845
0.04286121
0.04158995
0.04009634
0.03760302
0.03358304
0.02702342
0.02913211
0.03193995
0.04042016
0.03837126
0.03779702
0.04320758
0.0442453
0.0484181
0.05086394
0.05287385
0.05383427
0.05385838
0.05306854
0.05183631
0.05043261
0.04910403
0.04765287
0.04559538
0.04313385
0.04091922
0.03960408
0.03909054
0.03826327
0.03757219
0.03573376
0.03254863
0.02905221
0.02418655
0.01863855
0.02476763
0.02863667
0.0308271
0.0369666
0.03667095
0.04214118
0.04267425
0.04657208
0.04879814
0.05014443
0.05079953
0.05045563
0.04923459
0.04758098
0.046681
0.04683832
0.04672867
0.04598324
0.04452615
0.04229312
0.03927684
0.03693812
0.03562656
0.03531359
0.0346863
0.03298962
0.03010886
0.0261651
0.02053587
0.01369685
0.01816379
0.02167953
0.0233582
0.02769827
0.03957467
0.03792577
0.04137532
0.04512716
0.04726659
0.04837916
0.04840122
0.04745256
0.04544813
0.04467658
0.04591459
0.04732163
0.04844548
0.04915423
0.04908084
0.04827832
0.0469769
0.04538169
0.0435289
0.04127758
0.03840364
0.03493312
0.03094977
0.02629582
0.02135383
0.01584092
0.009808338
0.01322337
0.01568173
0.01641608
0.01597476
0.01972073
0.04532035
0.04217993
0.04112185
0.04399586
0.04609936
0.04731329
0.04731807
0.04590217
0.04474987
0.04518424
0.04578415
0.0461339
0.0468511
0.04804122
0.04953315
0.05078624
0.05137359
0.05108852
0.05010152
0.04857772
0.04672157
0.04441808
0.0417388
0.03873443
0.0352908
0.03142142
0.02697335
0.02280519
0.02284244
0.0221503
0.02159974
0.02104277
0.02169037
0.02044598
0.04156102
0.04249745
0.04171951
0.04475889
0.04635724
0.04693923
0.04603994
0.04563293
0.04660813
0.04616429
0.04446016
0.04253452
0.04096804
0.04044298
0.04181463
0.04440007
0.0473028
0.04937229
0.05020312
0.04999505
0.04914724
0.04772843
0.04602016
0.04405244
0.04188626
0.03964697
0.03963781
0.04009085
0.04066576
0.03931635
0.0377517
0.03496181
0.03552763
0.03292516
0.04416971
0.04050123
0.04329817
0.04536781
0.0466408
0.0468991
0.04747449
0.04903655
0.04882981
0.04936449
0.05220658
0.05413478
0.05434623
0.0527623
0.0493311
0.04429596
0.03816243
0.03642069
0.04024979
0.04380225
0.04554761
0.04603064
0.04584121
0.04592194
0.04805466
0.04977048
0.0531945
0.0550372
0.05506004
0.05359086
0.05122237
0.04834171
0.0454145
0.04036545
0.05493987
0.04262966
0.0417495
0.04454656
0.04623697
0.04736095
0.04836006
0.05081408
0.0530516
0.05293788
0.05619385
0.06297975
0.06762184
0.07000889
0.06969489
0.06653791
0.06094584
0.05755896
0.05091072
0.04232217
0.03441589
0.03385419