/*--------------------------------*- C++ -*----------------------------------*\
  =========                 |
  \\      /  F ield         | OpenFOAM: The Open Source CFD Toolbox
   \\    /   O peration     | Website:  https://openfoam.org
    \\  /    A nd           | Version:  6
     \\/     M anipulation  |
\*---------------------------------------------------------------------------*/
FoamFile
{
    version     2.0;
    format      ascii;
    class       volScalarField;
    location    "49.8";
    object      Co;
}
// * * * * * * * * * * * * * * * * * * * * * * * * * * * * * * * * * * * * * //

dimensions      [0 0 0 0 0 0 0];

internalField   nonuniform List<scalar> 
203709
(
0.07485355
0.06725311
0.06674968
0.06879454
0.06470993
0.05624089
0.05757959
0.05890507
0.05777983
0.05847402
0.06537897
0.05752425
0.04389713
0.03888262
0.04731798
0.05198333
0.05388689
0.05434434
0.0541163
0.05328994
0.05265515
0.04981247
0.05542704
0.05176812
0.01841324
0.01957958
0.02448815
0.03523918
0.04353842
0.04909174
0.05215706
0.05286984
0.05225069
0.05117608
0.04929004
0.04821651
0.05056489
0.06294373
0.02929821
0.02043238
0.01434533
0.01513974
0.02647362
0.03828326
0.04453921
0.0460573
0.04642226
0.04582121
0.04455999
0.04375384
0.04461552
0.05792009
0.04915242
0.04208316
0.03480038
0.03207481
0.02952241
0.0229877
0.01845138
0.02539157
0.03233287
0.03462458
0.03468884
0.03404663
0.03344856
0.03578403
0.04602743
0.06104733
0.0632707
0.04980855
0.04370437
0.04698666
0.04957316
0.04558888
0.03836915
0.02935118
0.01777377
0.01345446
0.01475835
0.01644745
0.01720888
0.01949372
0.02391406
0.02939841
0.04390172
0.05050133
0.04439697
0.03939512
0.04919804
0.05593559
0.05779327
0.05523849
0.04889447
0.04177432
0.03635779
0.03109034
0.02764343
0.02605099
0.02578028
0.02644256
0.02840405
0.03766173
0.03737591
0.02576212
0.01831576
0.01856773
0.03418793
0.04461737
0.04947344
0.05019692
0.04831584
0.04526976
0.04207733
0.03958065
0.03777836
0.03674651
0.03631881
0.03605038
0.03596574
0.03921712
0.06317339
0.04774586
0.03323911
0.0295208
0.03412884
0.03256136
0.03196309
0.03530794
0.03764765
0.0384453
0.03855219
0.03873697
0.03887271
0.0391229
0.03926616
0.03889814
0.04075576
0.04387672
0.08411719
0.06787395
0.04664811
0.049601
0.05515247
0.05546018
0.0519069
0.04576548
0.03884461
0.03261772
0.02951537
0.03071437
0.03333356
0.03551656
0.03689749
0.03695047
0.03894676
0.0444068
0.08685733
0.05819984
0.06012861
0.06533428
0.06674591
0.06507257
0.06136944
0.05645522
0.0511833
0.04615813
0.04158153
0.03763257
0.03442103
0.03233849
0.03185603
0.03566954
0.1005143
0.07452522
0.07026025
0.07086605
0.07235899
0.07153132
0.06914516
0.06585255
0.06206555
0.05825702
0.05441434
0.05060991
0.04706187
0.04336684
0.04181855
0.05321259
0.08581561
0.0765757
0.07487815
0.074312
0.07362018
0.07247526
0.07045792
0.06779936
0.06484166
0.06191455
0.05887818
0.05622455
0.05398888
0.05751052
0.09699771
0.08027815
0.0787488
0.07722523
0.07534977
0.07353987
0.07206975
0.0704262
0.06811799
0.0657475
0.06313044
0.0609419
0.05904798
0.05800411
0.09304281
0.08209534
0.07825799
0.07871175
0.07605304
0.07327172
0.07096442
0.06907461
0.06723174
0.06419552
0.07497772
0.06595697
0.08941494
0.08224325
0.07711572
0.07664789
0.07370396
0.06884989
0.07946433
0.06908933
0.08842409
0.08166332
0.07926289
0.07193415
0.07530135
0.06615544
0.06533681
0.0655331
0.06600927
0.06641171
0.06653949
0.06664994
0.0674556
0.07715928
0.07134362
0.06577662
0.05991449
0.05518192
0.05526626
0.05596823
0.05611305
0.05464377
0.0529169
0.05245377
0.05282716
0.05162942
0.05219645
0.06498842
0.0664911
0.05463793
0.04990012
0.05040281
0.05245376
0.05269926
0.05430057
0.05672901
0.05613967
0.05111772
0.04649463
0.04231653
0.04025941
0.03991062
0.03899882
0.03903526
0.06048932
0.04829612
0.04346046
0.04565197
0.04744059
0.05162479
0.06185196
0.06319879
0.05987366
0.05819416
0.05212746
0.04955443
0.04512858
0.04046701
0.0350249
0.03049736
0.0280892
0.02820526
0.05586759
0.04207252
0.03621439
0.03655271
0.04113697
0.05223483
0.0556207
0.05446122
0.05547454
0.0567452
0.05561642
0.05567693
0.05565836
0.04658005
0.04483383
0.03960719
0.03670683
0.03233276
0.02673099
0.03001568
0.05239027
0.03884436
0.02966286
0.02696572
0.03315385
0.03879771
0.04134288
0.04601076
0.05098387
0.05296221
0.05464308
0.05493943
0.05425386
0.05284278
0.05087543
0.05095065
0.04383846
0.04079095
0.0381281
0.03399038
0.03131725
0.0353971
0.03405873
0.03080075
0.02762212
0.02322233
0.02035829
0.02368818
0.0315428
0.03895293
0.04599347
0.05129579
0.05453772
0.05549991
0.05509106
0.05392856
0.05231671
0.05089365
0.05074747
0.04752161
0.04385057
0.03907642
0.03825718
0.04139943
0.05349536
0.03661789
0.03261899
0.03096883
0.02944103
0.02821043
0.02227762
0.01703155
0.01979573
0.03127866
0.04101844
0.04679468
0.0488732
0.04965236
0.04939726
0.04865501
0.04825699
0.04862682
0.05073684
0.05271292
0.04393603
0.04540884
0.0453866
0.04915855
0.03710326
0.03785561
0.0389242
0.04008837
0.0401637
0.04114659
0.03753782
0.03300474
0.03041952
0.02393149
0.02069315
0.02613799
0.03322828
0.03645187
0.03743887
0.03753621
0.03772979
0.0407996
0.04543318
0.05187021
0.04716717
0.04588674
0.04329835
0.04151438
0.03867732
0.03981112
0.04430668
0.04978116
0.05505738
0.05233447
0.04849655
0.04784744
0.05120069
0.04797232
0.04270056
0.03445968
0.02433315
0.01671206
0.01595299
0.01896068
0.02079765
0.02435873
0.02855033
0.03246743
0.0331837
0.02903548
0.02758263
0.02553207
0.04927477
0.03895154
0.03825147
0.04208898
0.0512179
0.0497716
0.04540896
0.05105359
0.05827806
0.06038731
0.05819445
0.05255099
0.04587524
0.03987005
0.03513518
0.03199086
0.03034513
0.02969898
0.02919841
0.02707792
0.02582111
0.02237932
0.01930872
0.01374611
0.06378007
0.05654472
0.04938709
0.04034763
0.03312385
0.03034783
0.02621178
0.03775763
0.04777851
0.05241992
0.05304623
0.05114809
0.04819315
0.04519031
0.04278551
0.04109428
0.04014126
0.03956141
0.03860194
0.03671919
0.03626753
0.03426345
0.03160493
0.02891495
0.07516979
0.07026419
0.06681536
0.06053724
0.04923839
0.03839891
0.02644286
0.03346365
0.03578307
0.03579775
0.03760913
0.03958186
0.04010031
0.04020507
0.04046463
0.04090786
0.04144726
0.04165983
0.04069862
0.03987113
0.04038486
0.03844882
0.03624322
0.03486257
0.08208726
0.07804846
0.07438478
0.0693492
0.06789631
0.05318987
0.04530214
0.054311
0.05750279
0.05641357
0.05256175
0.04752661
0.04250251
0.03823776
0.03495857
0.03443016
0.03645842
0.03812669
0.03777436
0.037007
0.03815481
0.03672549
0.03403339
0.0324248
0.08496988
0.080745
0.07890276
0.07923025
0.07928472
0.06315165
0.05569065
0.06458971
0.06857516
0.0687804
0.06661775
0.06316377
0.05921371
0.05530243
0.0516509
0.04835119
0.04526993
0.0419369
0.03747978
0.03755216
0.03537166
0.03085525
0.03003651
0.02774903
0.08572573
0.07993417
0.077921
0.07736551
0.07533599
0.07213452
0.06570016
0.068991
0.07340632
0.07452709
0.07354204
0.07136369
0.06860708
0.06571309
0.06280455
0.05993511
0.05698987
0.05337108
0.04880924
0.04255045
0.03720596
0.03535778
0.03240018
0.02896438
0.08846619
0.07949559
0.07404689
0.07221445
0.07186262
0.07298668
0.07195377
0.07312951
0.07387745
0.07551132
0.07587313
0.07494692
0.07323999
0.07108126
0.06879385
0.06646739
0.06402902
0.06135654
0.05946945
0.05398501
0.04762847
0.04368582
0.04208814
0.04783533
0.08689769
0.06977534
0.06655865
0.06535478
0.07586183
0.0729749
0.07617636
0.07685619
0.07600918
0.07523277
0.07531373
0.07467672
0.07315231
0.07108112
0.06887362
0.06601108
0.0630704
0.05674151
0.05587196
0.05373055
0.05070064
0.05229008
0.08570418
0.0703187
0.06074729
0.05940743
0.07216064
0.07479406
0.08011358
0.07610332
0.07786913
0.07643469
0.07408469
0.07335809
0.07250244
0.07030921
0.06778812
0.07038367
0.06065327
0.06103036
0.05944761
0.05709104
0.05675963
0.06193368
0.08262899
0.06285912
0.05991768
0.06197306
0.07166843
0.07777378
0.07838975
0.08035065
0.07504683
0.07501686
0.07197164
0.06994562
0.07352619
0.06369731
0.06754099
0.0621788
0.06170648
0.06019921
0.06095101
0.07016341
0.07592112
0.06094707
0.06306144
0.06573537
0.06643347
0.07369705
0.07890666
0.07740233
0.07524252
0.07246973
0.06428717
0.06898215
0.06400868
0.06393942
0.06236558
0.0613313
0.06305632
0.07270786
0.06673322
0.06117079
0.06385016
0.06546222
0.06768959
0.06678111
0.07080806
0.07100927
0.0699639
0.0652193
0.06498032
0.06334619
0.06237144
0.06220937
0.06519048
0.07489359
0.06859218
0.06424583
0.06302792
0.06609703
0.06680339
0.06797324
0.06848898
0.06772532
0.06612929
0.06486958
0.06409632
0.06590488
0.07593386
0.07810159
0.07177494
0.06848888
0.06907913
0.07007599
0.07078287
0.07073957
0.07036537
0.07023127
0.07163408
0.07833879
0.08000035
0.07218402
0.07240911
0.07297507
0.07350082
0.07374968
0.0746408
0.0829642
0.07543401
0.07016271
0.07394864
0.06889526
0.06498685
0.06545523
0.06616412
0.06691509
0.06764696
0.06867804
0.06610674
0.06736561
0.07235984
0.07942077
0.07511038
0.06279349
0.05819986
0.0596544
0.06263442
0.06322188
0.06418701
0.0650343
0.0657345
0.06618563
0.0661648
0.06590565
0.06457965
0.06392024
0.06470703
0.06748672
0.06773084
0.06466597
0.05714178
0.05475085
0.06225958
0.06300333
0.06148641
0.06271815
0.06365951
0.06438158
0.06490092
0.06512557
0.06503435
0.06493699
0.06822122
0.06858167
0.06218878
0.05515921
0.05789419
0.06407788
0.06408322
0.05221796
0.04854273
0.05473441
0.05810587
0.0578079
0.05757298
0.05530732
0.05590676
0.05688017
0.05761695
0.05793743
0.05779128
0.05730078
0.05685042
0.055347
0.05684653
0.0593346
0.05657946
0.04777518
0.04330894
0.04129659
0.06127429
0.04865376
0.04435837
0.05090089
0.05531078
0.05255691
0.05171413
0.05271884
0.05373139
0.05487683
0.05539723
0.05452335
0.05213516
0.04990823
0.04862695
0.04726358
0.04668433
0.04598933
0.04408205
0.04462541
0.03970666
0.02935792
0.02118233
0.034504
0.04436704
0.04160059
0.04691958
0.05107302
0.04819338
0.0470669
0.04867767
0.05111588
0.05333181
0.05473663
0.05517719
0.05469273
0.0525483
0.04880949
0.04561283
0.0413686
0.03825041
0.0365477
0.03396927
0.02885495
0.0252388
0.01803236
0.01398269
0.02240156
0.05408254
0.04181744
0.04346938
0.04696729
0.04369693
0.04124807
0.04239557
0.04493119
0.04792863
0.05061029
0.05285958
0.05363904
0.05336693
0.05286565
0.05166729
0.04938616
0.04599037
0.04202937
0.03754565
0.03245998
0.02604805
0.01837118
0.01168665
0.01424653
0.02043274
0.02871518
0.05265344
0.04292949
0.04134064
0.04180973
0.04009372
0.03577338
0.03611989
0.03792067
0.04047615
0.04425896
0.04819164
0.05153788
0.05370404
0.05589975
0.05655595
0.05569459
0.05380626
0.05128965
0.04792703
0.04537221
0.04140504
0.03649959
0.03044593
0.02402284
0.02720699
0.02353181
0.02177405
0.02250995
0.04238431
0.03829486
0.03883746
0.03874981
0.03638128
0.03476716
0.03276083
0.03259856
0.03489225
0.03959079
0.04527427
0.0509205
0.05513808
0.05762084
0.05832381
0.05782613
0.05654587
0.05470414
0.05259292
0.0506869
0.04849861
0.04493557
0.0394729
0.03781367
0.03645897
0.03505715
0.02300738
0.01664484
0.04246606
0.0412872
0.04173361
0.03951656
0.03833015
0.03667779
0.03406337
0.03067049
0.02651237
0.02552099
0.03071606
0.03894474
0.04634846
0.05104535
0.05288587
0.05348298
0.0531363
0.05229671
0.05148397
0.05088472
0.05020238
0.04982026
0.04859411
0.04776567
0.04205914
0.03868867
0.02554256
0.01903034
0.050332
0.04314597
0.04285315
0.04081866
0.04167909
0.04276729
0.04366094
0.04396686
0.04338479
0.04088867
0.03683558
0.03201239
0.02733058
0.02564289
0.03096224
0.03733119
0.04047011
0.04162138
0.04184409
0.04205143
0.04524436
0.04813575
0.05114887
0.05245024
0.04925936
0.04292371
0.03391198
0.02569271
0.01801592
0.01617329
0.04827421
0.04745521
0.04704719
0.04442626
0.04395115
0.04696238
0.05113918
0.05479149
0.05591294
0.0543829
0.05155518
0.05326689
0.05194656
0.04714681
0.03922645
0.03003158
0.02206254
0.02024351
0.02322967
0.02557251
0.03017228
0.03452332
0.03712799
0.03717047
0.03485793
0.02993531
0.02325203
0.02055016
0.01820995
0.01806797
0.05074514
0.051405
0.05340399
0.0533061
0.04620658
0.04544421
0.05059271
0.05611748
0.05661116
0.05403141
0.0531173
0.06123083
0.06385896
0.06195002
0.05669526
0.05034892
0.04456951
0.04006609
0.03713676
0.03557432
0.0347724
0.03383988
0.03197842
0.02886449
0.02441989
0.01763042
0.01194515
0.01210311
0.01362745
0.01586881
0.05456481
0.05587707
0.05987106
0.06285084
0.05842661
0.05140136
0.04385115
0.04096499
0.04065184
0.03791995
0.04107233
0.05172593
0.05656582
0.05717696
0.0552538
0.05223875
0.04922579
0.04680249
0.04518069
0.04425474
0.04361011
0.04253717
0.04028505
0.03716611
0.0337854
0.02913016
0.02309206
0.01655844
0.01147913
0.00846558
0.05792063
0.05961885
0.06500508
0.07044077
0.06997257
0.06548225
0.0591686
0.05216041
0.04326798
0.03232537
0.03205167
0.03765107
0.03962093
0.04165526
0.04318767
0.04332532
0.04316449
0.04325919
0.04373925
0.04442463
0.04486674
0.0443538
0.04237608
0.04048185
0.03825016
0.03439611
0.03048193
0.02558628
0.02138576
0.01897817
0.06030674
0.06196412
0.06798075
0.07485774
0.07681608
0.07587296
0.07097421
0.06421536
0.05557863
0.0473919
0.05222236
0.05870307
0.06012148
0.05822759
0.05473012
0.05083048
0.04729954
0.04442479
0.04215116
0.0404385
0.04054702
0.04122982
0.04001643
0.03911148
0.03748725
0.03431719
0.03001855
0.02533379
0.02112732
0.01854192
0.06208198
0.06291676
0.06864411
0.07594562
0.07878226
0.07955727
0.07787005
0.07277742
0.06241722
0.05421282
0.06358658
0.06991984
0.07208762
0.0714555
0.06924201
0.06633425
0.06328249
0.06031708
0.05747984
0.05461481
0.05136255
0.04718162
0.04220722
0.03782811
0.03511004
0.03244435
0.02834583
0.02415432
0.01990688
0.0160347
0.06543136
0.06299506
0.06752029
0.07404046
0.07703151
0.07849285
0.07876181
0.07494617
0.06710818
0.0599559
0.06820827
0.07448109
0.07718175
0.07747144
0.07633822
0.07448702
0.07235886
0.07012333
0.06777932
0.06514709
0.0618016
0.05722746
0.05205395
0.04759119
0.04323112
0.03871147
0.03302705
0.02892726
0.02488437
0.02799365
0.06846399
0.06253249
0.06563402
0.07323882
0.07442984
0.07463525
0.07253724
0.06754644
0.06739352
0.07038589
0.07416011
0.07753754
0.07884866
0.07881865
0.07794322
0.07655274
0.07488542
0.07300926
0.07081911
0.06808873
0.06437563
0.05951849
0.05508825
0.05073057
0.04671187
0.04035165
0.03517024
0.03573007
0.06369415
0.05988282
0.06261633
0.0717988
0.06918416
0.06854502
0.06741656
0.06623736
0.07078771
0.07383787
0.0751941
0.07587582
0.07716934
0.07835309
0.07848077
0.07771559
0.07629209
0.07447618
0.07213541
0.06979693
0.06683789
0.06359549
0.05967969
0.05567569
0.05400553
0.04826533
0.0429046
0.04148166
0.06512306
0.05878696
0.05713504
0.0597516
0.06421202
0.062328
0.06152501
0.06580788
0.07083248
0.0741962
0.07606525
0.07596953
0.0755939
0.07571394
0.07683767
0.07660001
0.07507033
0.07325766
0.0704494
0.06876147
0.06657797
0.06407134
0.06082706
0.05812799
0.05184675
0.04747184
0.04807914
0.05162568
0.06715025
0.0546884
0.050373
0.06098727
0.05786405
0.0587644
0.06411053
0.06850913
0.07227892
0.07438848
0.07505362
0.07441725
0.07409245
0.07348051
0.0736004
0.07193122
0.07094714
0.06885074
0.06644566
0.0649002
0.06265233
0.06146569
0.05885498
0.05428498
0.05404872
0.06323105
0.05735482
0.04695634
0.05158117
0.05939062
0.05684091
0.0619842
0.0653535
0.0688213
0.07110677
0.07248743
0.07229702
0.0717516
0.07120545
0.06984083
0.06910712
0.06733597
0.06591519
0.06413118
0.06240754
0.0623045
0.0608558
0.05790586
0.05675015
0.05599298
0.0553368
0.0445594
0.04564222
0.05546903
0.05930062
0.05883096
0.06289303
0.06524243
0.06717269
0.06881952
0.06917272
0.06853198
0.06793306
0.06681887
0.06539242
0.06393973
0.06256962
0.06126588
0.06234509
0.06196428
0.05958224
0.05977518
0.06180921
0.07019871
0.05017703
0.0458322
0.04879665
0.05822716
0.05989014
0.06303465
0.06127936
0.06446106
0.06550388
0.06609081
0.06597527
0.06514095
0.06374992
0.06224521
0.06113354
0.06236432
0.06570512
0.0607851
0.06035034
0.06215985
0.06581148
0.07783834
0.0516367
0.04923313
0.04821255
0.0569445
0.06280133
0.06299688
0.06309851
0.06389057
0.06460798
0.06490849
0.06465648
0.06409565
0.06354951
0.06323417
0.05937065
0.06090832
0.06259108
0.06727555
0.07840377
0.08202112
0.05084528
0.0527994
0.05389586
0.05701728
0.05922365
0.06022892
0.06100268
0.06130871
0.06123019
0.06101518
0.06113371
0.06239705
0.0608643
0.06217386
0.0712812
0.08729857
0.06123511
0.0575751
0.05491762
0.05606339
0.05904591
0.05889554
0.05914775
0.05934233
0.05963248
0.06093506
0.06859467
0.07517346
0.07498022
0.08814602
0.06904404
0.06246385
0.06277119
0.06362299
0.06448473
0.06571512
0.06883497
0.08613851
0.07493297
0.06892019
0.06845084
0.06853891
0.06955489
0.07561576
0.07126441
0.06573834
0.06506216
0.07014468
0.06839733
0.06586118
0.06606099
0.06651578
0.06721242
0.06344161
0.0626153
0.06335157
0.06671367
0.06950982
0.06509433
0.06409346
0.06107246
0.06305596
0.06073665
0.06239695
0.06680477
0.06799
0.06869863
0.06919961
0.06940948
0.06961641
0.07205493
0.07282054
0.06690207
0.06013007
0.05911622
0.06613909
0.06517711
0.05521027
0.05458647
0.05942272
0.06409455
0.06718436
0.06694851
0.06706885
0.0680102
0.06883578
0.06950364
0.06990515
0.07004681
0.06784934
0.06971655
0.06865459
0.06893871
0.0680152
0.05662025
0.06034988
0.05976917
0.05294196
0.05606343
0.060448
0.06140024
0.06270011
0.0643864
0.06569553
0.06669858
0.06787157
0.06885611
0.06956836
0.06992155
0.06990772
0.06966603
0.06929176
0.06864715
0.06573815
0.06863994
0.06610873
0.05532647
0.05099247
0.05455937
0.05099602
0.05392587
0.05697503
0.05866307
0.05885182
0.06019325
0.06132243
0.06288639
0.06417342
0.06541399
0.06640269
0.06703681
0.06726132
0.06710468
0.06678131
0.06658083
0.06621559
0.06510684
0.06102881
0.06114332
0.05552519
0.04605799
0.05091583
0.04860342
0.04759408
0.05128688
0.05069478
0.05205499
0.05372254
0.05490549
0.056299
0.05668368
0.05722025
0.05814859
0.05924149
0.06009517
0.06053108
0.06052095
0.06014787
0.05972842
0.05968203
0.05934134
0.0582765
0.05578432
0.05115852
0.04312858
0.03949466
0.03565768
0.04473415
0.04237543
0.04172816
0.04480838
0.04600692
0.04881782
0.05050961
0.05143178
0.05206412
0.05242871
0.05239859
0.05231104
0.05177585
0.05148439
0.0517223
0.05168129
0.05121665
0.05112701
0.05112206
0.05068849
0.04952453
0.04739403
0.04384808
0.03839138
0.02968269
0.02570249
0.03048814
0.03404287
0.03944567
0.04010823
0.03693131
0.0450897
0.04727021
0.04653707
0.0476436
0.04802413
0.04816267
0.04831091
0.04897438
0.04985501
0.05068899
0.05085445
0.04996251
0.04820459
0.04618598
0.04448694
0.04517629
0.04627136
0.04619977
0.04498469
0.04174676
0.03677785
0.03074094
0.02143755
0.02581055
0.03132125
0.03510445
0.03356183
0.03524143
0.03729963
0.0435896
0.04505573
0.04337683
0.0451282
0.04454586
0.04365724
0.04274576
0.04348751
0.04515707
0.04722761
0.04927842
0.05085376
0.05152177
0.05167
0.05156009
0.05034276
0.04796191
0.04473648
0.0406919
0.03764966
0.03444615
0.02918725
0.02206286
0.01600869
0.02445793
0.02878507
0.03019918
0.0304655
0.03377077
0.04122725
0.03816506
0.04191362
0.04222685
0.04374042
0.04213467
0.0400691
0.03993723
0.04148641
0.04304471
0.0449759
0.04774962
0.05099601
0.05413383
0.05650949
0.05788675
0.05805048
0.05704713
0.05503316
0.05224827
0.04859778
0.0446011
0.03960281
0.03329178
0.02552344
0.02321708
0.02504738
0.02407547
0.02502501
0.02471952
0.02560186
0.02796565
0.04041858
0.04164644
0.04268507
0.04331292
0.04244477
0.04000449
0.04014864
0.04002605
0.04002559
0.04070902
0.04275919
0.04648114
0.05110046
0.05558881
0.05893583
0.0607806
0.06111647
0.0603986
0.05889589
0.05679442
0.05419497
0.05131507
0.04792605
0.0433562
0.03874636
0.03837687
0.03535978
0.02861862
0.02018996
0.01776045
0.02153829
0.02365536
0.03898115
0.04465173
0.04503369
0.04358154
0.04178294
0.041388
0.0415549
0.0412637
0.03910371
0.03578292
0.03357206
0.03502421
0.03985967
0.04621608
0.05201796
0.05574396
0.05715323
0.05738291
0.05673435
0.05557205
0.05423183
0.05275776
0.0510864
0.05157558
0.0509517
0.04858009
0.04188086
0.03223437
0.02200993
0.01607868
0.01608951
0.01709699
0.04135834
0.0441713
0.04340337
0.04510765
0.04484854
0.04538857
0.04580574
0.04697508
0.04721852
0.04654453
0.04453028
0.04111974
0.03677427
0.03231518
0.03161521
0.0369202
0.04227513
0.04489655
0.04577073
0.04571989
0.04590322
0.04934179
0.05150327
0.05508195
0.05507869
0.0506511
0.04218945
0.032223
0.02334999
0.01607188
0.01480817
0.01289155
0.0467687
0.04208488
0.04626476
0.04753024
0.04841085
0.04912941
0.04890809
0.0495946
0.05375564
0.05745259
0.05963818
0.05961968
0.05767621
0.05704061
0.05593022
0.05120679
0.0437456
0.03541913
0.02832506
0.02567047
0.02744892
0.03021008
0.03576883
0.03986047
0.04189062
0.04131037
0.0377335
0.03126392
0.02470833
0.0214395
0.01762143
0.01706236
0.01410629
0.01130345
0.04566147
0.04599985
0.04824274
0.05067451
0.05311402
0.05472606
0.05347441
0.05127489
0.054307
0.06002425
0.06252272
0.06177258
0.05853895
0.06368815
0.067056
0.06562605
0.0608599
0.05495751
0.04958778
0.04548915
0.04299025
0.0416998
0.04084868
0.03959514
0.03718286
0.03311539
0.02701432
0.01943138
0.01458445
0.01510982
0.01530247
0.01526782
0.01324433
0.01080966
0.04661874
0.04739106
0.05077301
0.05408581
0.0581262
0.06111752
0.0607821
0.05729317
0.05087183
0.04799073
0.04901644
0.04776146
0.04437063
0.05509061
0.0604614
0.06133427
0.05955977
0.0566281
0.05371481
0.05144362
0.05006078
0.04935562
0.04880405
0.04769309
0.04536
0.04168891
0.03653958
0.02952274
0.02164731
0.01554776
0.01090675
0.007648877
0.006038492
0.006710884
0.0481251
0.04892655
0.05293522
0.05689537
0.06221345
0.0671764
0.06849535
0.06641575
0.06286756
0.05761538
0.04896775
0.03855753
0.03112045
0.03924217
0.04315149
0.04585586
0.04722255
0.04716703
0.04685781
0.04692614
0.0475604
0.04852263
0.04926925
0.04907709
0.04747184
0.04464735
0.04071017
0.03529714
0.02974831
0.02484003
0.02009556
0.01588433
0.01279295
0.0115809
0.0497493
0.05002199
0.05424074
0.05848573
0.06452042
0.07066304
0.07435498
0.07393259
0.07132196
0.06712964
0.06108451
0.05304402
0.05093573
0.05996912
0.06358474
0.06342924
0.0612999
0.05841803
0.0555506
0.05301176
0.05077469
0.04856833
0.04640945
0.04563868
0.04530786
0.04380212
0.04124779
0.03727119
0.03213771
0.02730016
0.02232382
0.01758026
0.01335053
0.01116059
0.05392638
0.05117252
0.05433985
0.05867147
0.06479738
0.07122061
0.07594079
0.0778885
0.07627274
0.07225836
0.06572006
0.05908895
0.06288892
0.07138583
0.07545724
0.07628528
0.07516706
0.073084
0.07063404
0.06806817
0.0654007
0.06247447
0.05901614
0.05473572
0.04971325
0.0445622
0.04033961
0.03700702
0.03303994
0.02854565
0.02321623
0.0178811
0.01433806
0.01670656
0.05294149
0.0500409
0.05740266
0.06346523
0.06916811
0.07392344
0.0769329
0.07721336
0.07359681
0.06716313
0.05993291
0.06867789
0.07634292
0.08042722
0.08185479
0.08159209
0.08039098
0.07872665
0.07679895
0.07459046
0.07192544
0.06851866
0.06410883
0.05901517
0.05388074
0.04890022
0.04408326
0.03933473
0.03488724
0.0301115
0.02581907
0.02325003
0.04971515
0.05004637
0.05881427
0.06072738
0.06495286
0.06951699
0.07252925
0.07345552
0.07140357
0.06583968
0.06281601
0.06973148
0.07645438
0.08063543
0.0827367
0.08338208
0.08304845
0.08207154
0.08065669
0.07885751
0.0765809
0.07364071
0.0697588
0.06508511
0.06017779
0.05518407
0.05014394
0.04547765
0.04145105
0.03881238
0.0339635
0.0307981
0.04812727
0.04942339
0.05378379
0.05669356
0.06035818
0.06430818
0.06640646
0.06710591
0.06582153
0.0636108
0.06702062
0.07100731
0.07487298
0.0780998
0.08088768
0.08247102
0.08298883
0.08258587
0.08144036
0.07973301
0.07748813
0.07484629
0.07158705
0.06771077
0.06326612
0.05848035
0.05376702
0.04895607
0.04488152
0.04129916
0.03759671
0.03551235
0.05082307
0.04525537
0.04634573
0.05232174
0.05542854
0.05764154
0.05933801
0.05962551
0.05980084
0.06268752
0.0677655
0.07125095
0.07359676
0.07578506
0.07771051
0.08002158
0.08118453
0.08115126
0.08003981
0.07828682
0.07595169
0.07351376
0.07070677
0.06731561
0.06321229
0.05855586
0.05403867
0.04980725
0.04736326
0.04120856
0.03713426
0.04299417
0.04541393
0.03972486
0.04828103
0.05057451
0.05112415
0.05209186
0.05418289
0.05705715
0.06189032
0.06592628
0.06900874
0.07142693
0.07361342
0.07471715
0.07665061
0.07802074
0.07815295
0.07706392
0.0754438
0.07325965
0.07076111
0.06811312
0.06482366
0.06090638
0.05681705
0.053603
0.05282928
0.05032173
0.04392582
0.04354684
0.04385891
0.038454
0.04055064
0.04548618
0.04604667
0.04832918
0.05267143
0.05673899
0.06037013
0.06347191
0.06601044
0.06882054
0.07096727
0.07202839
0.07294985
0.07393202
0.07407065
0.07314405
0.07147626
0.06944619
0.06697582
0.0641056
0.06071947
0.05788557
0.05638252
0.05503674
0.05431593
0.05139241
0.049031
0.05261408
0.04387054
0.0358155
0.04301256
0.04301201
0.04800821
0.05229597
0.0560124
0.05901081
0.06143024
0.06326395
0.06567989
0.06767956
0.06868969
0.06881069
0.06898914
0.0687017
0.06786685
0.06634847
0.06420117
0.0613996
0.05908134
0.0582121
0.05919184
0.05912139
0.05896209
0.05295195
0.0506259
0.06198334
0.03803646
0.03956784
0.04526361
0.04587348
0.05102087
0.05469949
0.05753669
0.05975217
0.06120935
0.06208379
0.06378316
0.06470251
0.06478932
0.06414733
0.06295829
0.06149031
0.05992372
0.05882436
0.05770462
0.05965543
0.06211466
0.0628709
0.06355386
0.06058896
0.05647625
0.06737708
0.03475849
0.04178431
0.0464803
0.05029038
0.05132449
0.05564473
0.05781129
0.05930583
0.06023246
0.06085825
0.06102086
0.06067309
0.05986677
0.05886907
0.05816346
0.05821811
0.05900783
0.06065791
0.06381602
0.06775752
0.06946955
0.06285692
0.06032361
0.07200433
0.03608656
0.04093777
0.05069519
0.05236911
0.05200317
0.05542176
0.05721999
0.05824664
0.05896339
0.05917051
0.05902752
0.05864516
0.05836956
0.05879443
0.06045197
0.06257256
0.0641273
0.06868979
0.07033817
0.0681622
0.06668413
0.07659561
0.04072322
0.04098106
0.05074208
0.05310345
0.05321633
0.05442463
0.05512954
0.0571488
0.05723194
0.05737704
0.05756336
0.05817063
0.05983369
0.06441212
0.06786337
0.06822889
0.07252471
0.07037977
0.06853479
0.08207472
0.04943117
0.04047246
0.0443428
0.05125705
0.05887355
0.05928835
0.056586
0.05712645
0.05788976
0.05959745
0.0630063
0.06721733
0.07669539
0.08036955
0.07234241
0.0732119
0.07794433
0.08255787
0.05828619
0.0525478
0.05192801
0.05804507
0.06111022
0.05942683
0.06233562
0.06574932
0.0700436
0.07503754
0.07442026
0.07558832
0.08098272
0.09326489
0.07982847
0.07271725
0.07463263
0.07761946
0.08269328
0.1001792
0.06490214
0.0588825
0.05793859
0.06054993
0.06062938
0.06037335
0.05973302
0.05805858
0.05666433
0.06043096
0.06021821
0.05816584
0.06440681
0.06044927
0.056772
0.05760862
0.06226332
0.06308441
0.06328726
0.06328999
0.06505143
0.06590998
0.05581741
0.05588992
0.05765092
0.05265958
0.06145519
0.05383587
0.05538591
0.06121518
0.063115
0.0657471
0.06509328
0.06691179
0.0678137
0.06815706
0.06802753
0.06584591
0.06690156
0.06383037
0.06171953
0.06081069
0.05675476
0.05189546
0.0494142
0.05011353
0.05353979
0.05828429
0.06042935
0.06346552
0.06542794
0.06728933
0.06898656
0.07046714
0.07150609
0.07202008
0.07193239
0.07124921
0.07010066
0.06826345
0.06589649
0.06220609
0.063086
0.05373292
0.05813764
0.05615925
0.04621796
0.04325891
0.05022403
0.05398744
0.05745078
0.06091037
0.06428096
0.06670595
0.06826943
0.06981046
0.07129112
0.07246744
0.07318707
0.07334211
0.07299589
0.07224203
0.07110104
0.06928516
0.06708509
0.06389445
0.05859354
0.05869829
0.05252212
0.05461586
0.0403909
0.04120432
0.0474511
0.05011
0.05339474
0.05674778
0.05998063
0.06289253
0.06522332
0.06717554
0.06898653
0.07062504
0.07195432
0.07278717
0.07306405
0.07287613
0.07235645
0.07157972
0.07026093
0.06821903
0.06528897
0.06088868
0.05452072
0.05228378
0.04617889
0.05325315
0.03396022
0.03817078
0.04448092
0.04549403
0.04925588
0.05276538
0.05510268
0.05752569
0.05998549
0.06198964
0.06398926
0.06590069
0.06759672
0.06893745
0.06974503
0.07002543
0.06990277
0.06954435
0.06901887
0.06803372
0.06619004
0.06313556
0.05857528
0.05221406
0.04340345
0.04535905
0.0401439
0.04668457
0.03253876
0.03610297
0.04193767
0.04321757
0.04786165
0.05116296
0.05381117
0.0552989
0.05601682
0.05626082
0.05695046
0.0584643
0.060085
0.06156998
0.06267553
0.06321124
0.06324957
0.06293384
0.06244114
0.0618743
0.06083474
0.05884527
0.05537592
0.04993669
0.04206413
0.03669443
0.03709702
0.03504255
0.03352923
0.03779145
0.03734264
0.04050704
0.04155285
0.04617853
0.04907228
0.05140407
0.05300084
0.05363029
0.05374294
0.05320197
0.05190558
0.05125361
0.0519522
0.05290677
0.05376948
0.05542049
0.05645311
0.05742806
0.05787382
0.05686145
0.05445099
0.05042327
0.04521032
0.03842719
0.03055625
0.032099
0.03303921
0.03079189
0.02940051
0.03047459
0.03207636
0.03495921
0.03990943
0.0444598
0.04711531
0.0489244
0.0499652
0.05025058
0.04991916
0.04951603
0.04917229
0.04896377
0.04898334
0.04834087
0.04703923
0.04752358
0.05054171
0.05312754
0.05483487
0.05541631
0.05465262
0.05240882
0.04828528
0.04221846
0.03402006
0.03081736
0.03565953
0.03593751
0.0333832
0.02883722
0.02592835
0.02813477
0.03444618
0.03604826
0.04059289
0.04276843
0.04543631
0.04695201
0.0473416
0.04676304
0.04556806
0.04612473
0.04746553
0.04896215
0.05054502
0.05192334
0.05290933
0.05329303
0.05296927
0.05170955
0.04943902
0.04846143
0.04878449
0.04784851
0.04551452
0.04127587
0.03486805
0.02607755
0.03004191
0.03477004
0.03523392
0.03340235
0.02961497
0.02883279
0.02452106
0.02602982
0.03554238
0.03811828
0.03968454
0.04354864
0.04531998
0.04567436
0.04448401
0.04422266
0.04625597
0.04777553
0.04923023
0.0510202
0.05340204
0.05597384
0.05825106
0.05974353
0.06024301
0.05961013
0.05792177
0.05535556
0.0520601
0.04790353
0.04297617
0.03682991
0.02902016
0.02137618
0.02536355
0.02895646
0.03080363
0.03008273
0.02820709
0.0258
0.02227119
0.02172716
0.03463374
0.03872334
0.04190666
0.04398826
0.04487797
0.04410503
0.04488041
0.04665265
0.04729111
0.0475838
0.04833899
0.05017176
0.05326782
0.05703676
0.06061634
0.06316624
0.06433211
0.0640992
0.0628459
0.06084571
0.05827528
0.05514596
0.05148112
0.04701536
0.04115076
0.03948324
0.03828107
0.03249198
0.02566221
0.02370286
0.02442816
0.02340833
0.02215366
0.02132343
0.03924946
0.0355009
0.04028954
0.04328171
0.04465993
0.04478928
0.04480119
0.04765008
0.04783481
0.04617874
0.04408839
0.04256851
0.04254266
0.04450283
0.0483951