/*--------------------------------*- C++ -*----------------------------------*\
  =========                 |
  \\      /  F ield         | OpenFOAM: The Open Source CFD Toolbox
   \\    /   O peration     | Website:  https://openfoam.org
    \\  /    A nd           | Version:  6
     \\/     M anipulation  |
\*---------------------------------------------------------------------------*/
FoamFile
{
    version     2.0;
    format      ascii;
    class       volScalarField;
    location    "49.8";
    object      epsilon;
}
// * * * * * * * * * * * * * * * * * * * * * * * * * * * * * * * * * * * * * //

dimensions      [0 2 -3 0 0 0 0];

internalField   nonuniform List<scalar> 
203709
(
0.008016003
0.005062029
0.004988704
0.007368448
0.008445676
0.007610681
0.005061939
0.003294143
0.00292933
0.003311689
0.004408707
0.006236608
0.006816258
0.00527351
0.003379496
0.003352429
0.003415027
0.002814468
0.002514672
0.002360023
0.002389643
0.0027403
0.003759035
0.005476781
0.006347314
0.00305971
0.002431537
0.002299746
0.002326529
0.002392961
0.002372369
0.002277729
0.002088317
0.00198139
0.001900887
0.001962246
0.002410357
0.004613706
0.003635902
0.002087133
0.001854064
0.001745828
0.00168874
0.001665947
0.001645944
0.001632717
0.001622426
0.001536221
0.001384471
0.001350047
0.001401848
0.002137707
0.006129497
0.00233896
0.001678926
0.001549161
0.001517038
0.001538139
0.001551743
0.001513036
0.001430114
0.001333486
0.001248867
0.001186638
0.001154684
0.00118159
0.001481736
0.002988492
0.003753004
0.001675203
0.001295874
0.001143676
0.001280313
0.001468123
0.001599706
0.001638789
0.001581854
0.001458738
0.001318358
0.001201632
0.001131819
0.00112138
0.001217653
0.001977458
0.008707039
0.003150083
0.001750908
0.001335849
0.001204392
0.001296678
0.00147492
0.001651078
0.001764511
0.001784609
0.001708316
0.001567627
0.001409481
0.001282611
0.001214455
0.00124217
0.001635279
0.003630351
0.00533807
0.002655983
0.001946565
0.001622961
0.00154453
0.001605151
0.001699588
0.001802534
0.001891941
0.001935077
0.001908811
0.001816612
0.001674896
0.001521815
0.001405212
0.00136678
0.001493744
0.002519288
0.005315684
0.00274996
0.002163189
0.001914304
0.001856627
0.001874014
0.001919179
0.00197585
0.002031866
0.002062443
0.002048981
0.001988435
0.001882378
0.001750241
0.001633195
0.001583383
0.001712109
0.002891311
0.008998744
0.003594466
0.002429974
0.002154897
0.002074827
0.002059005
0.002077749
0.002110972
0.002142743
0.002159509
0.002147669
0.002097741
0.002014449
0.001917284
0.001840515
0.001864441
0.002456288
0.005369338
0.004896088
0.002701778
0.002321859
0.002196304
0.002163528
0.002174073
0.002201748
0.002224223
0.002230035
0.00221044
0.002161349
0.002094833
0.002031461
0.002019282
0.002190399
0.003770498
0.008344204
0.003590368
0.002547518
0.002328635
0.002266159
0.002262195
0.002277886
0.002288182
0.002279424
0.002248437
0.002201107
0.002153915
0.00213143
0.002220523
0.003002236
0.006782681
0.005045174
0.002853022
0.002520399
0.002414201
0.002382503
0.002369998
0.002354668
0.002324406
0.002284415
0.002248967
0.002237543
0.002280274
0.002512295
0.004424489
0.008801296
0.004068661
0.003024336
0.002774097
0.002619979
0.002522554
0.002449353
0.00239355
0.002364818
0.002376278
0.002466082
0.002652645
0.003553842
0.007791174
0.009602166
0.005736062
0.004114739
0.003125785
0.002829442
0.002641857
0.002570958
0.002621614
0.002792187
0.003586464
0.00500633
0.008352475
0.009307516
0.005588752
0.004052311
0.003161505
0.003122037
0.003903161
0.005393836
0.008996858
0.009779181
0.006144454
0.006310122
0.01030414
0.008019872
0.004781008
0.00444163
0.004335359
0.004160447
0.003896533
0.003624278
0.003418543
0.003432944
0.005311263
0.006792492
0.004435464
0.003177037
0.002455214
0.002328295
0.002283768
0.002217468
0.002115549
0.002010271
0.00193015
0.001920839
0.00229406
0.003119305
0.004669017
0.006120528
0.002830488
0.002262381
0.002045423
0.001876546
0.001814984
0.001772892
0.001720814
0.00167605
0.001657311
0.001648398
0.001635732
0.001678177
0.001807575
0.002221083
0.004322734
0.005753116
0.002672813
0.001809784
0.001658322
0.001599772
0.001545541
0.001485451
0.001657818
0.001658533
0.001624264
0.001603952
0.001372278
0.001461973
0.001525085
0.001585368
0.001690112
0.002137644
0.004309761
0.005721923
0.002658478
0.001795546
0.001550788
0.001557164
0.001577441
0.002791583
0.003340991
0.002597377
0.002152627
0.001875483
0.001695368
0.00154191
0.001529566
0.001336134
0.001450667
0.001569725
0.00171405
0.002236665
0.004684094
0.006037914
0.002781317
0.001935042
0.00182185
0.001966497
0.003565193
0.004566828
0.005556171
0.007276945
0.006740809
0.00484633
0.003516952
0.002549496
0.002046681
0.001801228
0.001665834
0.001876249
0.001472207
0.001664973
0.00186985
0.00251308
0.005406286
0.003533204
0.002067095
0.001849641
0.00197836
0.003170546
0.003861692
0.00504819
0.006481389
0.008494001
0.01011588
0.01068661
0.009311776
0.005745494
0.00400005
0.002939398
0.002389312
0.002146929
0.002287654
0.001652736
0.001872165
0.002157673
0.003628843
0.006534398
0.002732301
0.001861866
0.001755015
0.001707963
0.002753752
0.002729311
0.002966997
0.003298125
0.003880156
0.00482677
0.006193885
0.007567477
0.008206869
0.007528118
0.006054184
0.00500458
0.004180879
0.003338985
0.00222177
0.002171196
0.002117412
0.002601788
0.005284308
0.004030605
0.002170426
0.001718962
0.00155318
0.00176559
0.002163515
0.001959513
0.001973951
0.002098512
0.002322205
0.002610068
0.002867718
0.003102415
0.003356756
0.00358591
0.003722688
0.003631729
0.003330366
0.002836902
0.00240335
0.001549454
0.001463467
0.001563946
0.002493796
0.003828383
0.002069245
0.001675532
0.001413637
0.001648444
0.001755941
0.001532098
0.001571033
0.001780811
0.002013588
0.00229082
0.002511096
0.002595233
0.002499349
0.00225236
0.001960958
0.001708344
0.001497625
0.001324895
0.001205709
0.0008428383
0.0009985987
0.001165989
0.00191347
0.003816773
0.002035945
0.001631504
0.001542148
0.001588447
0.001540963
0.001345274
0.001265753
0.001278157
0.001460406
0.001706584
0.001948375
0.002125132
0.002188462
0.002107653
0.00190283
0.001636903
0.001375568
0.001164871
0.001077346
0.001210851
0.0008911158
0.001083541
0.001828188
0.003862302
0.002039627
0.001602719
0.001542176
0.001516861
0.001428611
0.001281464
0.001178939
0.001138716
0.00119794
0.001317284
0.001458107
0.001585501
0.001675758
0.001709817
0.001674387
0.001568666
0.001414134
0.001247362
0.001126827
0.001098368
0.0008986484
0.001104991
0.001910381
0.003929937
0.002069978
0.001619514
0.001540518
0.001485715
0.001397164
0.001276269
0.00117945
0.001130144
0.001137852
0.001181979
0.001242348
0.001298437
0.001340965
0.001365116
0.001369329
0.001347929
0.001299772
0.001241051
0.001217013
0.001196789
0.0009566745
0.00117892
0.002080261
0.004022545
0.002125272
0.001687814
0.001574381
0.001512883
0.001428351
0.001330684
0.001252267
0.001203588
0.001184344
0.001185153
0.001193237
0.001198451
0.001197735
0.001191273
0.001182209
0.00117187
0.001164844
0.00119507
0.001331417
0.001150125
0.001045781
0.001284609
0.002310074
0.004185501
0.002213246
0.001779329
0.001419346
0.001466481
0.001439995
0.001387511
0.001334206
0.001294415
0.001265544
0.001243747
0.001222645
0.001198004
0.001170696
0.001143432
0.001121212
0.001107519
0.001118847
0.001247506
0.001557246
0.0009267171
0.001158748
0.001426256
0.002607753
0.004585526
0.002368427
0.001873245
0.001567037
0.00154192
0.001522707
0.001481872
0.001436906
0.001397389
0.001364996
0.001332456
0.001295199
0.001255351
0.001217272
0.001181763
0.001156955
0.001142606
0.001175579
0.001471569
0.001468296
0.001109501
0.001333436
0.001659426
0.003092568
0.007760189
0.003111913
0.002068842
0.001714361
0.00139095
0.001481901
0.001497986
0.001506819
0.001500822
0.001479617
0.001446709
0.001403322
0.001360892
0.001326306
0.001292211
0.001278062
0.00126213
0.001326793
0.001814107
0.001151588
0.001411223
0.001668952
0.002392802
0.005623647
0.004790154
0.00249729
0.001973587
0.001658021
0.001687645
0.001703362
0.001702926
0.001683779
0.001645309
0.001592809
0.001541353
0.001507876
0.001497275
0.001470162
0.001489767
0.00146004
0.001567031
0.001776947
0.001598839
0.001909975
0.002298929
0.003955274
0.008321813
0.003687457
0.002491472
0.002102309
0.001781305
0.001868529
0.001837265
0.001822341
0.001770707
0.00172305
0.001695611
0.001698414
0.001743643
0.001714208
0.001821464
0.001763187
0.001923231
0.00193693
0.002388959
0.002931089
0.004115667
0.008067523
0.008205683
0.003868432
0.002681173
0.002265534
0.001958666
0.001701227
0.00180742
0.001786439
0.001831612
0.001884453
0.001956304
0.002101227
0.002018215
0.002213608
0.002114822
0.002521983
0.003132398
0.003997475
0.005900605
0.0120886
0.007575653
0.003641305
0.002558742
0.002192419
0.001999162
0.001831117
0.001684979
0.001978046
0.002158177
0.002319633
0.002531798
0.002320769
0.002791427
0.003449545
0.004206488
0.005452966
0.008249533
0.01748922
0.007173462
0.003518012
0.002614573
0.002425527
0.002303989
0.002309794
0.002388065
0.002562703
0.002824395
0.003192935
0.003742289
0.004584104
0.005837407
0.007221196
0.01091552
0.02368697
0.007707312
0.005059234
0.004098031
0.003416187
0.003547132
0.003869885
0.004296029
0.004785005
0.005420425
0.006359758
0.007797924
0.01145622
0.01709079
0.03069425
0.01178861
0.008055306
0.008504794
0.00948766
0.0105771
0.01170685
0.01317469
0.01527606
0.01857951
0.03381195
0.00796166
0.004640102
0.004188927
0.00386777
0.003544397
0.003280433
0.003201469
0.004879501
0.007431303
0.004763053
0.004073744
0.002919746
0.002281766
0.002131514
0.001984512
0.001819162
0.001670867
0.001579261
0.001811853
0.002248635
0.002288244
0.003581584
0.006361338
0.002921176
0.002365832
0.002103119
0.001813742
0.001686689
0.001617716
0.001518098
0.001393513
0.001276012
0.0011874
0.001163999
0.001236877
0.001250923
0.001534311
0.002933944
0.006580564
0.003969299
0.002619629
0.001828934
0.001668975
0.001772882
0.00163452
0.001549948
0.001498653
0.001420921
0.001315402
0.001211625
0.001133687
0.001109089
0.001138975
0.0009678525
0.001062246
0.001386284
0.001679448
0.00213645
0.006091364
0.002744006
0.002007615
0.001640117
0.001585283
0.001528905
0.001604108
0.001529732
0.001477409
0.00143946
0.001376698
0.001284862
0.001189817
0.00111555
0.001089489
0.001110714
0.001026006
0.001064896
0.0009787101
0.001051599
0.001088098
0.001661513
0.006055481
0.002603631
0.001753762
0.001469334
0.001448256
0.001454869
0.001496259
0.00156338
0.001538581
0.00150233
0.001462701
0.001399631
0.001311957
0.001219696
0.001141054
0.001104424
0.001110409
0.001075953
0.001095166
0.001091886
0.0009293187
0.0009559493
0.001077514
0.001833831
0.003265358
0.001718315
0.001326764
0.00134389
0.001410256
0.001523537
0.001750826
0.001883335
0.00189285
0.001820147
0.001712913
0.001578611
0.001444745
0.001323283
0.001222125
0.001164426
0.001150354
0.001142504
0.001165082
0.00119599
0.001345629
0.0009545111
0.001069145
0.001553855
0.005158858
0.002135295
0.001328442
0.001284087
0.00141081
0.001681673
0.002106576
0.002710982
0.00315998
0.003501596
0.003429355
0.002986211
0.002435306
0.002001016
0.001681323
0.001469382
0.001339002
0.001268888
0.001246474
0.001262176
0.001294032
0.001412657
0.001671489
0.001064946
0.001427151
0.002897871
0.005619563
0.002424
0.00149749
0.001316475
0.001387117
0.001788028
0.00247841
0.003443247
0.004779944
0.006065815
0.007337596
0.008314891
0.007799769
0.005851131
0.004223206
0.002988891
0.002267795
0.001846393
0.001619977
0.001526487
0.001441866
0.001430528
0.001455076
0.001608757
0.002036681
0.001210856
0.001769108
0.00407764
0.003285353
0.001742052
0.001234277
0.001361831
0.001651095
0.002365404
0.003323825
0.004538733
0.005942016
0.007639093
0.009635456
0.0118936
0.01364259
0.01385293
0.01168492
0.007443415
0.005015693
0.003515117
0.002689814
0.002237762
0.002015228
0.001811351
0.001753867
0.001727455
0.002027541
0.00124524
0.001609731
0.002923449
0.002935469
0.001533077
0.001325891
0.001431086
0.001888273
0.002727708
0.003420744
0.003985974
0.004334884
0.004643776
0.005097471
0.005923253
0.007222953
0.009056385
0.01075716
0.01130763
0.01022931
0.007980255
0.006352716
0.005173678
0.004233894
0.003510783
0.002984202
0.002571995
0.002288637
0.002461342
0.00165206
0.002845008
0.006182717
0.002338979
0.001414586
0.001361354
0.001463115
0.00193907
0.002755738
0.003075615
0.003013453
0.00276377
0.002563815
0.00254205
0.002701122
0.003090961
0.003525141
0.003983477
0.004475608
0.004912362
0.005153029
0.005059855
0.004589753
0.003880905
0.003275734
0.002682134
0.00233403
0.002056683
0.00192636
0.001535074
0.002188025
0.004927516
0.003892118
0.001870195
0.001353198
0.001374933
0.00146998
0.001863875
0.00251743
0.002689696
0.002358944
0.001969627
0.001816514
0.001935232
0.002142598
0.002457921
0.002745436
0.002910293
0.002888489
0.00268483
0.00240537
0.002148072
0.001912042
0.001719386
0.001543921
0.001376919
0.001314823
0.001272298
0.001274894
0.001117365
0.001406986
0.002427239
0.003781906
0.00181882
0.001338625
0.00137967
0.001459992
0.001746936
0.002209674
0.002306285
0.001995922
0.001608906
0.001377059
0.001287846
0.001439126
0.001694298
0.00196424
0.002186063
0.002303904
0.002268594
0.00208749
0.001817018
0.001530888
0.001287611
0.001118878
0.001018658
0.0009241588
0.0008979581
0.0009446032
0.0008473123
0.001057672
0.001758024
0.003937059
0.001862242
0.001358458
0.001387728
0.001447285
0.001638395
0.001934721
0.002002435
0.001783048
0.001488227
0.001251762
0.001106677
0.001112454
0.001212033
0.001352719
0.001493449
0.001606752
0.001669296
0.001663178
0.001580068
0.001434347
0.001260911
0.001104651
0.000977917
0.0008794141
0.0008460397
0.0009162644
0.0007595746
0.0009348458
0.001531668
0.004202556
0.001957117
0.001404628
0.001405497
0.001440848
0.00156122
0.001738142
0.001794543
0.001669726
0.001468379
0.001265533
0.001120026
0.001061374
0.001070246
0.001116404
0.001172195
0.001220643
0.001253742
0.001268446
0.001259223
0.001221317
0.001160134
0.001090279
0.001001055
0.0009201318
0.0009028824
0.001027555
0.0007745419
0.000944505
0.001542047
0.004543423
0.002092363
0.00147555
0.001436914
0.001444109
0.001516456
0.001622528
0.00167263
0.00161895
0.001489866
0.001337417
0.001213458
0.001136927
0.001103732
0.001096887
0.001099155
0.0010997
0.001094812
0.001085775
0.001074571
0.001062272
0.001058052
0.001059268
0.0009979435
0.0009669088
0.0009824369
0.001173046
0.0008443997
0.001036156
0.001717716
0.005160077
0.002314363
0.0015853
0.001495627
0.001465756
0.001499342
0.001566568
0.001617855
0.001611505
0.001539015
0.001439214
0.001341261
0.001266852
0.001218177
0.00118589
0.001159665
0.00113366
0.001107055
0.001082433
0.001063665
0.001055264
0.001080454
0.001114961
0.001059354
0.001068917
0.001110508
0.001328261
0.0009682061
0.001217967
0.002123807
0.008641945
0.003129107
0.001795758
0.001618259
0.001530675
0.001519857
0.001557126
0.001605905
0.001624167
0.001595495
0.00153834
0.001475351
0.001422127
0.001379438
0.00134168
0.001305407
0.001270433
0.001238795
0.001214872
0.001203304
0.001207749
0.001267735
0.001285619
0.001287248
0.001312724
0.001364465
0.001496826
0.001187614
0.001741361
0.004074622
0.004619125
0.002216469
0.001890367
0.001709895
0.00161413
0.001596739
0.001617219
0.001644078
0.001656341
0.001648125
0.001635865
0.001617717
0.001592318
0.001560095
0.001526829
0.001497999
0.001478134
0.001475246
0.001494913
0.001531755
0.001641568
0.001677093
0.001742889
0.001756129
0.001816843
0.001628921
0.001579425
0.002702657
0.005193893
0.002619195
0.001863639
0.001797057
0.001724066
0.001699923
0.001718815
0.00177737
0.001830945
0.001865914
0.001881788
0.001879007
0.001859686
0.001833914
0.001814976
0.001809631
0.001822909
0.001870977
0.001961351
0.00205997
0.002225739
0.002365144
0.002443084
0.002394044
0.002407555
0.001808958
0.002178736
0.003659166
0.007363849
0.003325648
0.002194736
0.002076549
0.002009248
0.001975911
0.002000849
0.002038087
0.002081093
0.00211202
0.002123828
0.002125744
0.002121205
0.002126115
0.002148405
0.002191659
0.002267331
0.002408155
0.002619397
0.002805994
0.003095082
0.003299041
0.003332602
0.003169291
0.00288119
0.002675102
0.003485163
0.007344614
0.006437936
0.003042865
0.00201113
0.002031536
0.002075264
0.00209847
0.002137537
0.002176795
0.002209202
0.002247751
0.0022862
0.002337146
0.002416479
0.0025141
0.002633293
0.002807602
0.003094563
0.003445272
0.003694247
0.004115049
0.004334577
0.00431493
0.003936591
0.003549598
0.004468742
0.008861624
0.003861548
0.002158359
0.001696294
0.001819951
0.001947743
0.002039115
0.002118126
0.002208481
0.002314349
0.002426575
0.002573642
0.00274176
0.002926225
0.003159678
0.003470345
0.003932672
0.004421858
0.004643926
0.005222269
0.005471702
0.005328521
0.004864352
0.005404187
0.008204188
0.005660433
0.002684744
0.001861858
0.001526399
0.001748856
0.001941328
0.002057688
0.00228065
0.002492574
0.002695402
0.002930877
0.00319691
0.003479393
0.003829076
0.00430871
0.00493679
0.00555049
0.005699669
0.006503039
0.006704744
0.006711912
0.007351337
0.009301218
0.01778394
0.005300206
0.002555369
0.00191285
0.00166706
0.001961716
0.002122062
0.002606722
0.002888219
0.003161044
0.003496425
0.003863143
0.004229643
0.004688108
0.005324207
0.006106537
0.006853702
0.006869032
0.007970304
0.008444682
0.01012615
0.01268479
0.02462905
0.005735309
0.003810311
0.002835907
0.002224386
0.002336028
0.003198092
0.003506505
0.003834516
0.004275152
0.004722033
0.005154298
0.005705934
0.006469551
0.007430435
0.008394859
0.008192212
0.0099512
0.01445141
0.0215549
0.03305374
0.007771379
0.004230615
0.004033105
0.004291216
0.004309201
0.004693809
0.005239732
0.005745314
0.00623316
0.006863085
0.007754176
0.009001813
0.0107038
0.01233981
0.01689652
0.03678001
0.0130079
0.009858652
0.009977843
0.008228607
0.007512806
0.008103727
0.008718867
0.009344184
0.01022299
0.01164377
0.01578968
0.0223348
0.02596388
0.04426277
0.02493081
0.01713331
0.01777726
0.01881106
0.01996324
0.02179211
0.02532419
0.0449899
0.006749118
0.003997839
0.003625516
0.003365239
0.003291726
0.005033967
0.006804255
0.004476395
0.00374465
0.003300808
0.002359739
0.001842402
0.001687477
0.001548842
0.001459126
0.001644536
0.001941743
0.0018909
0.001933056
0.003115926
0.006393352
0.003867801
0.002594975
0.002143472
0.001841238
0.002268646
0.001882164
0.001595962
0.00147863
0.001364201
0.001283725
0.001334618
0.001343659
0.0009111452
0.00092443
0.001144562
0.001536868
0.002523639
0.005740415
0.002650221
0.00195129
0.002044652
0.001856742
0.00166707
0.00187622
0.001638279
0.00145121
0.001347607
0.001240585
0.001158561
0.001155907
0.001137726
0.000898266
0.000898948
0.0009320513
0.000768302
0.0009610483
0.001772987
0.005110306
0.00249474
0.001685235
0.001700297
0.001779693
0.001692053
0.001567215
0.001662115
0.001523197
0.001386858
0.001289394
0.001181567
0.001093397
0.001067025
0.001041655
0.0009059981
0.0008993057
0.0008787763
0.0007396429
0.0005980366
0.0007212284
0.001322003
0.00492355
0.002285653
0.001981132
0.001576051
0.00155941
0.001617722
0.001591175
0.001513233
0.001552667
0.001471196
0.001374521
0.001285593
0.001175912
0.001078071
0.001035488
0.001016493
0.0009352993
0.0009297791
0.0009037131
0.0007954295
0.0006786766
0.0006340641
0.0005665878
0.001142517
0.004731304
0.002256395
0.001871012
0.001687208
0.001481616
0.001463105
0.001509872
0.001519803
0.001479869
0.001498761
0.001455088
0.001392714
0.00131849
0.001213266
0.001108165
0.001047712
0.001030484
0.0009826612
0.0009869806
0.0009768291
0.0008961861
0.000786524
0.0006728431
0.0005699758
0.0005194799
0.001088762
0.004761611
0.002222215
0.001866186
0.001617311
0.001499262
0.001391415
0.001386552
0.001436919
0.00149054
0.001501521
0.001524724
0.00150391
0.001459602
0.001392305
0.001290622
0.001179292
0.001101951
0.001074964
0.001054631
0.001067335
0.001072194
0.001025502
0.0009418145
0.0008269971
0.0007141589
0.0007471543
0.0005189855
0.001015914
0.005159802
0.002236357
0.001480307
0.001577112
0.001454402
0.001372753
0.001321668
0.001354309
0.001475596
0.001669135
0.00180595
0.001870311
0.001842009
0.001754946
0.001630344
0.00148568
0.001342171
0.001232305
0.001172483
0.001146994
0.001152754
0.001168435
0.001148368
0.001117031
0.000998631
0.0009171811
0.0009689856
0.0006266109
0.0006603981
0.001166269
0.002904002
0.001528106
0.001440711
0.001440325
0.001353701
0.001304113
0.001322715
0.001517593
0.001934405
0.002538846
0.003067319
0.003401652
0.003394349
0.003062632
0.002576261
0.00214127
0.001794288
0.001549315
0.001392748
0.001309018
0.001273851
0.001271257
0.00126831
0.001258701
0.001249545
0.001101252
0.001110127
0.001313399
0.000868247
0.001242042
0.004973512
0.001980756
0.00157909
0.001425727
0.001380429
0.001316461
0.001317894
0.001544831
0.002204545
0.003298486
0.00474176
0.006212749
0.007563418
0.008422331
0.007981794
0.006288046
0.004666134
0.003357697
0.002528208
0.002021798
0.001730272
0.001567972
0.00147906
0.00143163
0.001400044
0.00138549
0.001432577
0.001227391
0.001266735
0.001607084
0.001240169
0.003005214
0.003254662
0.001520515
0.001471167
0.001413164
0.00137368
0.00133852
0.001471746
0.002129896
0.00336142
0.004989755
0.006866643
0.008913289
0.01117678
0.01350197
0.01521128
0.01528743
0.0128699
0.008581803
0.005843015
0.004075496
0.003053302
0.002459415
0.002114467
0.001921841
0.00181697
0.00171172
0.001654166
0.001387387
0.001280085
0.001584607
0.001086453
0.002185137
0.003022341
0.001412742
0.001428409
0.001424215
0.001412045
0.001414287
0.001716259
0.002768269
0.003986054
0.005009151
0.005670041
0.006119163
0.006690953
0.007670631
0.009149056
0.01108281
0.01278421
0.01317776
0.01189591
0.00923577
0.00728401
0.005868718
0.004858945
0.004111802
0.003489674
0.002954392
0.002487637
0.002166832
0.001718572
0.001742673
0.001135438
0.002122969
0.002897131
0.001865756
0.001546281
0.001470819
0.001472324
0.001515082
0.001913932
0.003049807
0.003882448
0.003977132
0.003636194
0.003229188
0.003030245
0.00308993
0.003475332
0.004033406
0.004639536
0.005264728
0.005789088
0.006041504
0.005925368
0.005348148
0.004627247
0.003995521
0.003439759
0.003000637
0.002618669
0.002288244
0.001957422
0.001865313
0.002172324
0.002180479
0.006787974
0.002349289
0.001862509
0.001611353
0.00152821
0.001535718
0.001603709
0.001997323
0.002961521
0.003519622
0.003129641
0.002488562
0.002087382
0.002071052
0.002253589
0.00259431
0.002930245
0.00315315
0.003188155
0.003025116
0.002762825
0.002508385
0.002262561
0.002071831
0.00190596
0.001776257
0.001691756
0.00161986
0.00155115
0.001499145
0.001532906
0.001679691
0.001830027
0.00456587
0.004577363
0.001994733
0.001766463
0.001621025
0.001568275
0.00158884
0.001666952
0.001989768
0.00269164
0.003053703
0.002636502
0.001988108
0.001543687
0.001368406
0.001494837
0.001768357
0.00206323
0.002315907
0.002463323
0.00244773
0.002272003
0.001994077
0.00169341
0.001438943
0.001258009
0.0011446
0.001072559
0.001031762
0.001010163
0.001008385
0.001047735
0.001133909
0.001203429
0.00224525
0.004688488
0.002083728
0.001813539
0.001658415
0.001606214
0.001630583
0.001710808
0.00194437
0.002396218
0.002620196
0.002326532
0.00183442
0.001443851
0.001209919
0.001179294
0.001271652
0.001419608
0.001574816
0.001700709
0.001768199
0.001758532
0.001667321
0.001512167
0.001331788
0.001168785
0.001042107
0.0009502872
0.0008885488
0.0008505706
0.0008053072
0.0007880341
0.0008108266
0.0008376073
0.001400234
0.004841359
0.002218349
0.001916711
0.001730989
0.001655606
0.001667049
0.001739188
0.00190257
0.002170919
0.00230741
0.00214635
0.001828278
0.001519639
0.001295513
0.001184804
0.001167565
0.001207288
0.00126772
0.001320618
0.001350118
0.001351151
0.001322953
0.001267138
0.001192191
0.001111526
0.001032712
0.0009643408
0.0009102252
0.0008754781
0.0007966335
0.0007577479
0.0007530705
0.0006805907
0.001118771
0.005105846
0.00238606
0.002046866
0.00183379
0.001725889
0.001708415
0.001758722
0.001873296
0.002036646
0.002125222
0.002056845
0.001874439
0.001649967
0.001457679
0.001327242
0.001263057
0.001245624
0.001248201
0.001248266
0.001234265
0.001205661
0.001168188
0.001128549
0.001095172
0.001068872
0.001038313
0.001010083
0.0009786927
0.0009569311
0.0008599329
0.0008255771
0.0008221026
0.0006622042
0.00116404
0.007999025
0.003129948
0.002429203
0.002071345
0.001876501
0.001792374
0.001793062
0.001861333
0.001968784
0.002044396
0.002035227
0.00194495
0.001801771
0.001654568
0.001538445
0.001466838
0.001426944
0.001397889
0.001363663
0.001318694
0.001266341
0.001214901
0.001172651
0.001152277
0.001149132
0.001144969
0.001137423
0.001112419
0.00108051
0.0009641265
0.0009395864
0.0009045412
0.0008364419
0.002030304
0.004270728
0.002926347
0.002427813
0.002121258
0.001947811
0.001873144
0.001883085
0.00194912
0.002018354
0.002042669
0.002014553
0.001949479
0.001868034
0.001802409
0.001755236
0.001713646
0.001665359
0.001606026
0.001539878
0.001475856
0.001424439
0.001391244
0.001392364
0.001411874
0.001430157
0.001419898
0.00137076
0.001282272
0.001133344
0.001131426
0.0009026028
0.001228262
0.004255497
0.002260411
0.002201172
0.002126998
0.002045709
0.001969865
0.001943417
0.001971995
0.002027895
0.002078851
0.002120998
0.002152727
0.002165879
0.002162419
0.002136434
0.0020851
0.002014281
0.001934971
0.001861226
0.001806194
0.001780948
0.001781857
0.001830885
0.0018975
0.001928807
0.001888611
0.001783598
0.001598357
0.001389013
0.001431993
0.0009438111
0.001630203
0.004098221
0.002263308
0.002171817
0.002158368
0.002159632
0.00215631
0.002147909
0.002176041
0.002249719
0.002362446
0.002470477
0.002556801
0.002601763
0.002596252
0.002544985
0.002464716
0.002377257
0.002300081
0.002251293
0.002244405
0.002286697
0.00235546
0.002482113
0.002601704
0.00261295
0.002522576
0.002337138
0.002061012
0.001717167
0.001637532
0.001252533
0.002212047
0.005727959
0.002655678
0.00217109
0.002078895
0.002107293
0.002194438
0.002305905
0.002438292
0.002576312
0.002703157
0.002811309
0.002884399
0.002906297
0.002878365
0.002817095
0.002750486
0.002699112
0.002676402
0.002707371
0.002802846
0.002952335
0.003109055
0.003321614
0.003450753
0.003404027
0.003282181
0.002994598
0.00264372
0.002088968
0.00172669
0.00191338
0.004357175
0.003324682
0.001872661
0.001848207
0.001932933
0.002042487
0.002181851
0.002346988
0.002514008
0.002662019
0.002780892
0.002869203
0.002920294
0.002939655
0.002949413
0.002976176
0.003023756
0.003108322
0.003274709
0.003514348
0.00376388
0.003983943
0.004240348
0.004332548
0.004236381
0.004149344
0.003769099
0.003337051
0.002522801
0.002095689
0.003318228
0.00503547
0.002315387
0.001566118
0.001774744
0.001890738
0.002011186
0.002159407
0.002316203
0.002467061
0.002609687
0.002755283
0.002883625
0.00299803
0.003123991
0.003277474
0.003446448
0.00366469
0.003993154
0.0043645
0.00463796
0.004889286
0.005157657
0.005209478
0.005109578
0.005124833
0.00468087
0.004186373
0.002941256
0.003579873
0.006732451
0.004081979
0.001979827
0.001804245
0.001790722
0.001864952
0.001959425
0.002109605
0.002308104
0.002534104
0.002775192
0.003024954
0.003244344
0.003471614
0.003733525
0.004003126
0.00434857
0.004826083
0.005271208
0.005493058
0.005781928
0.00607323
0.006121797
0.006057264
0.00630671
0.005906519
0.005414466
0.005139663
0.009326565
0.003699412
0.001812128
0.001724603
0.001808876
0.001827099
0.002022637
0.002356033
0.002675659
0.003000436
0.00342452
0.003717037
0.003997031
0.004323797
0.004654827
0.005102726
0.00569427
0.006173015
0.006332086
0.006684401
0.007046499
0.007119061
0.007132033
0.007895988
0.007525413
0.007531456
0.01381404
0.003843577
0.001825651
0.001947855
0.001814756
0.002192436
0.002719211
0.003084386
0.003426832
0.004082049
0.00438526
0.004665594
0.00502149
0.005383664
0.005894654
0.006592144
0.00714146
0.007188682
0.007621712
0.008163124
0.008327834
0.008442297
0.01004791
0.01034175
0.0197015
0.004548407
0.002433636
0.001910989
0.002570483
0.003385506
0.003699958
0.0039958
0.004979953
0.005195953
0.005407127
0.005756176
0.006132305
0.006703252
0.007572504
0.008304351
0.008118003
0.00872643
0.00970145
0.009807095
0.01003141
0.01378766
0.02607337
0.007007362
0.003644039
0.003216364
0.004294186
0.004479306
0.004712021
0.006215466
0.0061726
0.00623503
0.006577903
0.006966354
0.007618176
0.008830511
0.01007248
0.009340533
0.01026326
0.01193619
0.01210301
0.01628667
0.03362765
0.01107412
0.007562423
0.005902745
0.005501936
0.005462474
0.008033564
0.007571782
0.007319806
0.007657828
0.008067122
0.008848345
0.01077763
0.01298839
0.01099867
0.01236153
0.01604919
0.02430876
0.04005731
0.01748609
0.01250967
0.01193214
0.01221576
0.009885343
0.008859265
0.009162327
0.009585796
0.01050469
0.01395339
0.01998372
0.02267464
0.02577363
0.04144591
0.02837475
0.01922097
0.01937147
0.02009576
0.0223232
0.03882379
0.00669639
0.003888711
0.00352973
0.003122601
0.002980275
0.002796438
0.002679533
0.002713032
0.002887764
0.004654058
0.005534763
0.003564989
0.003338821
0.002321524
0.001789001
0.002287943
0.002135299
0.00203852
0.001920007
0.00181552
0.001670782
0.001144803
0.001305214
0.001501877
0.001669734
0.002928105
0.004445233
0.002163668
0.002405664
0.002383977
0.001918216
0.001668257
0.001866416
0.001722326
0.001624764
0.001515783
0.001411283
0.001297437
0.001053544
0.001087825
0.001103511
0.001072521
0.0009726667
0.002022487
0.004699545
0.003085928
0.002465403
0.001880157
0.002030125
0.002017181
0.001776347
0.001645844
0.00169801
0.001577495
0.001469666
0.001349418
0.001232297
0.00111785
0.0009788005
0.0009583379
0.000922151
0.0008708109
0.0008275424
0.0008757322
0.000930392
0.001659995
0.004554491
0.002162229
0.002177227
0.002037864
0.001800365
0.00190563
0.001920101
0.001772822
0.001680202
0.001663457
0.00154159
0.001421265
0.001286563
0.001159739
0.00105143
0.0009559786
0.0009199365
0.0008714574
0.0008042836
0.0007314575
0.0006736974
0.0006234638
0.0005601889
0.001275874
0.004298686
0.002152063
0.001885137
0.001882864
0.001882158
0.001812033
0.001890894
0.001909308
0.001800087
0.00171653
0.001671064
0.001553073
0.001425064
0.001277754
0.00114465
0.001044964
0.000976344
0.0009425762
0.0008922282
0.0008123427
0.0007097309
0.0006023758
0.0005133303
0.0004721604
0.0004836971
0.001280556
0.004291752
0.002061819
0.001886285
0.001746045
0.001777137
0.001836789
0.001830128
0.001881455
0.001895282