/*--------------------------------*- C++ -*----------------------------------*\
  =========                 |
  \\      /  F ield         | OpenFOAM: The Open Source CFD Toolbox
   \\    /   O peration     | Website:  https://openfoam.org
    \\  /    A nd           | Version:  6
     \\/     M anipulation  |
\*---------------------------------------------------------------------------*/
FoamFile
{
    version     2.0;
    format      ascii;
    class       volScalarField;
    location    "49.8";
    object      epsilon;
}
// * * * * * * * * * * * * * * * * * * * * * * * * * * * * * * * * * * * * * //

dimensions      [0 2 -3 0 0 0 0];

internalField   nonuniform List<scalar> 
203709
(
0.008114377
0.005157827
0.005104368
0.007552184
0.008322766
0.007884867
0.005310895
0.00334608
0.002986102
0.003392552
0.004521282
0.00641408
0.006788714
0.004779398
0.003403013
0.00319508
0.003217292
0.002767893
0.002524271
0.002391835
0.002429932
0.002784296
0.003850209
0.00554406
0.006505027
0.003074015
0.002372855
0.002223423
0.002180405
0.00221712
0.002250832
0.002235309
0.0021119
0.001994636
0.001909766
0.001977322
0.002427245
0.004645185
0.003655844
0.002085358
0.001846015
0.001742687
0.001701866
0.001680312
0.001655908
0.001638139
0.001628563
0.0015471
0.001388799
0.001354487
0.001404671
0.002154964
0.006113959
0.002264169
0.001623763
0.001516362
0.001512287
0.001571206
0.00159342
0.001553029
0.001463921
0.001363045
0.001279047
0.00122036
0.00118924
0.001214263
0.001515717
0.003015147
0.003826035
0.001678513
0.001263197
0.001081314
0.001303154
0.001510601
0.001637557
0.001670091
0.001603563
0.0014702
0.00132327
0.001204927
0.00113639
0.001127148
0.0012222
0.001965755
0.008708412
0.003190274
0.00181079
0.001403058
0.001298644
0.001393522
0.001541522
0.001690748
0.00178871
0.001797756
0.001709047
0.001556088
0.001389651
0.001259565
0.00119088
0.001216737
0.001592225
0.003473398
0.005332929
0.002677603
0.002008012
0.001717015
0.001657012
0.001690264
0.001758246
0.001840258
0.001914183
0.001945064
0.001907306
0.001803044
0.001649637
0.001487962
0.001366762
0.00132535
0.001444682
0.002412443
0.005313025
0.002760615
0.002201334
0.001974985
0.001914656
0.001917675
0.001950826
0.001997811
0.002045763
0.002068679
0.002047109
0.001977617
0.001861757
0.001719858
0.001594196
0.001536379
0.001652183
0.002765064
0.008993643
0.003597101
0.002447112
0.002181407
0.00209587
0.002075176
0.002090591
0.002121443
0.0021505
0.002163344
0.0021463
0.002090158
0.001999785
0.00189471
0.001809
0.001821005
0.002380472
0.005146179
0.004891186
0.002702687
0.002325801
0.002199041
0.002166952
0.002179597
0.002208941
0.002231158
0.002234531
0.002210912
0.002156916
0.002084876
0.002015294
0.001995242
0.002152948
0.003679806
0.008321619
0.003574004
0.00253675
0.002323925
0.002269092
0.002271132
0.002289442
0.002298892
0.002286876
0.002251418
0.002199189
0.0021468
0.002118729
0.002200246
0.002961265
0.006651241
0.005040568
0.002861308
0.00253818
0.002437562
0.002406712
0.002391167
0.002370657
0.002334523
0.002288689
0.002247635
0.002230459
0.002267074
0.002490258
0.004368627
0.009032523
0.004166076
0.003090177
0.002824371
0.002656887
0.002548217
0.002465934
0.0024027
0.002367311
0.002372282
0.002454533
0.002632214
0.003514754
0.007687366
0.009849859
0.005858377
0.004177302
0.003159643
0.002849639
0.002653428
0.002575805
0.002619157
0.00278107
0.003557809
0.004947088
0.008219803
0.009378942
0.005623603
0.004068333
0.003169527
0.003123396
0.003891911
0.005359928
0.008896967
0.009827169
0.006164575
0.006313796
0.01026903
0.007802917
0.004716532
0.004441523
0.004397305
0.004266689
0.004021944
0.003748524
0.003532373
0.003538565
0.00546733
0.006448718
0.004323689
0.003107083
0.002416664
0.002319931
0.00230753
0.002267836
0.002180355
0.002077318
0.001992557
0.001978379
0.002357992
0.003200614
0.004798122
0.005818735
0.002715338
0.002188894
0.001992532
0.001842693
0.001805646
0.001786666
0.001754615
0.001722533
0.001708347
0.001697809
0.001681177
0.001721528
0.001852823
0.002273806
0.004455084
0.005604128
0.002590887
0.001733167
0.001600685
0.001577296
0.001552371
0.001517357
0.001695025
0.001703007
0.001669277
0.001645098
0.001409922
0.001498334
0.001559072
0.00161829
0.001720556
0.002175028
0.004374933
0.005788233
0.002666534
0.001815581
0.001679924
0.001771885
0.001851194
0.003436903
0.004147473
0.002972931
0.002386729
0.0020005
0.00175276
0.001579028
0.001556914
0.001356004
0.001470639
0.001586581
0.001725064
0.002243291
0.004676669
0.006198197
0.002872291
0.002016877
0.002002265
0.002229982
0.003961824
0.005005485
0.006095202
0.008223208
0.008167497
0.006066443
0.004059956
0.00270938
0.002095934
0.00181424
0.001668129
0.001854928
0.001475677
0.001661531
0.001854506
0.002471983
0.005296766
0.003618067
0.002127063
0.001915291
0.002000799
0.003093389
0.003602839
0.00451343
0.00579843
0.007759699
0.009736538
0.01103652
0.01032922
0.005930512
0.004038005
0.002881103
0.002311696
0.002087165
0.002213433
0.00160301
0.00181129
0.002096008
0.003519904
0.006617984
0.002823338
0.001901777
0.001753648
0.001636096
0.002586022
0.002420368
0.002559517
0.002836011
0.003353387
0.004252501
0.005529189
0.007144196
0.008355283
0.007785356
0.006072327
0.004859154
0.003960481
0.003167603
0.002182233
0.002195049
0.002177482
0.0026965
0.005645733
0.004086117
0.002234926
0.00175724
0.001547764
0.001702188
0.002045881
0.001831773
0.00189876
0.002085523
0.002362839
0.0026562
0.002915189
0.003151648
0.00343919
0.003759533
0.004058781
0.004057607
0.003766686
0.00322203
0.002795112
0.001816192
0.001662189
0.00173312
0.00272352
0.003879383
0.002121395
0.00171373
0.001414686
0.001601964
0.001699791
0.001457265
0.001499645
0.001735885
0.002017839
0.002303798
0.002546905
0.002656136
0.00256745
0.002313962
0.002028115
0.001801237
0.001620783
0.001460544
0.001328249
0.0009330211
0.001055067
0.001208244
0.001945995
0.00386088
0.002076299
0.001662484
0.001546908
0.001550168
0.001505073
0.001322871
0.001231633
0.001268831
0.001454718
0.001700872
0.001954826
0.002153781
0.002236336
0.002161662
0.001949057
0.001667425
0.00139242
0.001174605
0.001078613
0.001181059
0.000895901
0.001074304
0.001781732
0.003899452
0.002069075
0.001624233
0.001547809
0.001493095
0.001401401
0.001263724
0.001162101
0.001133678
0.001197733
0.001318703
0.001463133
0.001598869
0.001701875
0.001749486
0.001721724
0.001612573
0.001444018
0.001258054
0.00111731
0.001059271
0.0008868062
0.001078457
0.001836748
0.003963171
0.002091119
0.001633277
0.001547337
0.001475625
0.001380972
0.001261256
0.001169471
0.00112943
0.001141577
0.001186474
0.001246749
0.001304357
0.001351605
0.001383736
0.001396939
0.001381577
0.001332333
0.001262503
0.001217334
0.00116748
0.0009453183
0.001149718
0.002000479
0.004057647
0.002142153
0.001696707
0.001582637
0.001514566
0.00142376
0.001324766
0.001250835
0.001204942
0.001186947
0.001187362
0.00119449
0.001199536
0.001200442
0.001197679
0.001193677
0.001188176
0.001183148
0.001207759
0.001327182
0.001139129
0.001036452
0.001257438
0.002233759
0.00423246
0.002231529
0.00178714
0.0014205
0.001464278
0.001433673
0.001380381
0.001327885
0.001289626
0.001261993
0.001240604
0.001219496
0.001195167
0.001168972
0.001143717
0.001123966
0.001112594
0.001124562
0.001247299
0.001544694
0.0009190105
0.001142721
0.001396418
0.002532558
0.004665723
0.002398071
0.001886716
0.00157073
0.001541783
0.001516247
0.001471801
0.001425666
0.001388248
0.001358564
0.001327601
0.001291034
0.001251637
0.00121408
0.00117929
0.001154994
0.001140946
0.001173203
0.001464509
0.001466828
0.001089618
0.001303957
0.001617
0.003003582
0.00798596
0.003188404
0.0021058
0.00173425
0.00140187
0.001480802
0.001498109
0.001509397
0.001505143
0.001483373
0.001448462
0.001403244
0.001359445
0.001323662
0.001288505
0.001272559
0.001254537
0.001317074
0.00180066
0.00112386
0.001371542
0.001614133
0.002312817
0.005446931
0.004975212
0.002588337
0.0020402
0.001712981
0.001741343
0.001746887
0.001736184
0.00170718
0.001659923
0.001600658
0.001545017
0.001508492
0.00149489
0.001464723
0.00147944
0.001443623
0.001547324
0.001760613
0.001546982
0.001836487
0.002195684
0.003788034
0.008649151
0.003853466
0.002615648
0.002206986
0.001859449
0.001921539
0.001873047
0.001845639
0.001784856
0.001731216
0.001700124
0.001699261
0.001739775
0.001704962
0.001802896
0.001736011
0.001880238
0.001877208
0.002298049
0.002799724
0.003888165
0.007670695
0.008458024
0.003974498
0.002749179
0.002315956
0.00199555
0.001727063
0.001825059
0.001798359
0.001840695
0.001890772
0.00195799
0.002095689
0.002004504
0.00218694
0.002072507
0.002454391
0.003030087
0.003842393
0.005639416
0.01147179
0.007702163
0.00369014
0.00259106
0.002219378
0.002022971
0.001851651
0.001702413
0.001993936
0.002169381
0.002323433
0.002524619
0.002303228
0.00275596
0.003387104
0.004110459
0.005307933
0.007998256
0.01685868
0.007286219
0.003562428
0.002651055
0.00246068
0.002336437
0.002339389
0.002413537
0.002581153
0.002832429
0.003187505
0.003720182
0.004538774
0.005758994
0.007103376
0.01070614
0.0231245
0.00783723
0.005146994
0.004165738
0.003469843
0.003595852
0.003910894
0.004323995
0.004796004
0.005413483
0.006332667
0.007745127
0.0113549
0.01690327
0.03022789
0.01200223
0.008175486
0.008607356
0.009568956
0.01062783
0.01172512
0.01316294
0.01523307
0.0184992
0.03360533
0.007845473
0.004628626
0.004220014
0.003927976
0.003628091
0.003380252
0.003311836
0.005052195
0.007194284
0.004644622
0.004005002
0.002887658
0.002284237
0.002156782
0.00202413
0.001868425
0.001725055
0.001634561
0.00187362
0.002323049
0.002359186
0.003693862
0.006119475
0.002822926
0.00230603
0.002068483
0.001796939
0.001693026
0.001644521
0.001556846
0.001437587
0.001320596
0.001229597
0.001202581
0.001274633
0.001286649
0.001578228
0.003047835
0.006306753
0.003804255
0.002513759
0.001762
0.001625519
0.001747325
0.001625559
0.001559872
0.001526782
0.001459929
0.001357967
0.001252397
0.001170212
0.001140836
0.001166731
0.0009932267
0.001089613
0.001431391
0.001745888
0.00222801
0.005825265
0.002617417
0.001917928
0.001570059
0.001532799
0.001506631
0.001596189
0.001535561
0.001496227
0.001471695
0.001417957
0.001328141
0.001228913
0.001147965
0.001115532
0.001131509
0.001042487
0.00108066
0.001006289
0.001080811
0.001118225
0.001722038
0.005819349
0.002480526
0.00166879
0.001403525
0.001409938
0.001442953
0.001545144
0.00162252
0.001598176
0.001555555
0.001512542
0.001449342
0.001359106
0.001259414
0.001171217
0.00112644
0.001126169
0.001085451
0.001101914
0.001095734
0.0009446625
0.0009659762
0.001079224
0.001791216
0.003124913
0.001637319
0.001268474
0.001344429
0.001462103
0.001665873
0.002024554
0.002198094
0.002189515
0.002043167
0.001859797
0.001677164
0.001513949
0.001370193
0.001252305
0.0011829
0.001158738
0.001142638
0.001159163
0.00117397
0.001295514
0.0009521232
0.00104898
0.001482456
0.00502773
0.002050921
0.001274185
0.001317665
0.001547461
0.0019786
0.002605763
0.003403636
0.003990879
0.004444595
0.004273555
0.003541272
0.002757101
0.002177761
0.001768603
0.001510098
0.001354685
0.001271574
0.001239442
0.001248662
0.001271084
0.001372122
0.001598116
0.001049664
0.001375076
0.002768197
0.005528329
0.002376187
0.001449473
0.001331373
0.001535428
0.002116919
0.0030112
0.004154685
0.005619296
0.00705955
0.008585067
0.00987837
0.0096
0.007116082
0.004889502
0.003214417
0.00233163
0.001850644
0.001602785
0.001497012
0.001413573
0.001399627
0.001420224
0.001562027
0.001965279
0.001180267
0.001688462
0.003810095
0.003236109
0.001716685
0.001205784
0.001432099
0.001878337
0.0026901
0.003615965
0.004624986
0.005715598
0.007123852
0.008999949
0.01140511
0.01369641
0.01472898
0.01315775
0.00769748
0.005016555
0.003395835
0.002547356
0.002103036
0.001890498
0.001672614
0.001599012
0.001585358
0.001917136
0.001152329
0.001505443
0.002744581
0.002899538
0.001517705
0.001316351
0.001516859
0.002082643
0.002871514
0.003342003
0.003603726
0.003676786
0.003798276
0.004119882
0.004799514
0.006060419
0.007980333
0.01022762
0.01154191
0.01052927
0.007890487
0.005992394
0.004686184
0.003770289
0.003147061
0.002724236
0.00237882
0.002161592
0.002409739
0.001537565
0.002645352
0.00612847
0.002325048
0.001407517
0.001359328
0.001529151
0.002049679
0.002757895
0.00287759
0.002672935
0.002400241
0.002290911
0.002394901
0.002681775
0.003095313
0.003539983
0.004029668
0.004616782
0.00521348
0.005669549
0.005667635
0.005137839
0.004401565
0.003770467
0.003101254
0.002666834
0.002305045
0.002132445
0.001640355
0.002302036
0.005278082
0.00386435
0.001864338
0.00135208
0.001376166
0.001512926
0.001915282
0.002456391
0.002492486
0.002128825
0.001769529
0.001687368
0.001850268
0.002116708
0.002454277
0.002779598
0.00298888
0.002992864
0.00279579
0.002539548
0.002337867
0.00215763
0.002002572
0.001830718
0.001649775
0.001568014
0.001500323
0.001458207
0.001251424
0.001551166
0.002659748
0.00376339
0.001816805
0.001341338
0.001382257
0.001485201
0.001766012
0.002138023
0.002145908
0.001841646
0.001504174
0.001298281
0.001247692
0.001412762
0.001673325
0.001964038
0.002219652
0.002370423
0.00235301
0.002172837
0.001891234
0.001593671
0.001348053
0.001181753
0.001082269
0.0009957353
0.0009699881
0.001000141
0.0009001011
0.001112757
0.00183048
0.003928949
0.001864082
0.001363964
0.001391546
0.001461679
0.001643664
0.001876832
0.001888701
0.001677854
0.001419524
0.001202728
0.001084855
0.001102261
0.001207247
0.001355001
0.001507936
0.001638828
0.001721185
0.001730191
0.001650006
0.001493479
0.001302228
0.001129295
0.0009903416
0.0008897065
0.0008511473
0.000903436
0.0007633307
0.0009341036
0.001513208
0.004212264
0.001965064
0.001413291
0.001411341
0.001450369
0.001562772
0.001701087
0.001722354
0.001598169
0.001412093
0.001225411
0.00109993
0.001054277
0.001069432
0.001118871
0.001178062
0.001232239
0.001274392
0.001300342
0.001300712
0.001265885
0.001198418
0.001114669
0.001010581
0.0009205312
0.0008933223
0.0009956995
0.0007618409
0.0009246762
0.001496628
0.004579499
0.002110376
0.001489428
0.0014465
0.001453258
0.001519096
0.001603485
0.00163178
0.001571164
0.00144473
0.00130536
0.001194872
0.001128752
0.001101361
0.001096902
0.001099984
0.001101565
0.001099185
0.001094427
0.00108836
0.001080036
0.001075601
0.001070611
0.00100177
0.0009621245
0.000968288
0.001138219
0.0008260084
0.001009849
0.001665319
0.005234682
0.002348832
0.001608716
0.001512488
0.001478933
0.001505912
0.001559773
0.001596122
0.001579816
0.001504404
0.001410255
0.001321389
0.001255722
0.001212545
0.00118244
0.001156317
0.00112976
0.001102938
0.00107872
0.001060656
0.001052726
0.001076686
0.001107237
0.001045826
0.001049576
0.001085786
0.00129079
0.0009440257
0.001186313
0.002063182
0.008829621
0.003201906
0.001837845
0.001649724
0.001553993
0.001534287
0.001559782
0.001595301
0.0016018
0.001568106
0.001513404
0.001458498
0.001412947
0.001374525
0.001337659
0.001300241
0.001263348
0.001229697
0.001203561
0.001189137
0.001190445
0.001246808
0.001258976
0.001252221
0.001273022
0.00132288
0.001454516
0.001153313
0.001695193
0.003964667
0.004742693
0.002285799
0.001945477
0.001754365
0.001647025
0.001615781
0.00162368
0.001640095
0.001652528
0.001647012
0.001638779
0.001621955
0.001594773
0.001559075
0.00152195
0.001489314
0.001465582
0.001457773
0.001470704
0.00150066
0.001603835
0.001627235
0.001684866
0.001695484
0.001757914
0.00158392
0.001530264
0.002630228
0.00531563
0.002700124
0.001937277
0.001863348
0.001784449
0.001753675
0.001771
0.001828089
0.001873478
0.00189993
0.001905969
0.001893429
0.001865761
0.001833424
0.001809319
0.001799087
0.001806985
0.001847149
0.00192666
0.002015112
0.002170464
0.002297319
0.002367378
0.00231713
0.002335932
0.001747778
0.002112671
0.003564528
0.007531711
0.003412515
0.002265092
0.002142105
0.002078331
0.002049072
0.002062483
0.002087897
0.002119431
0.002137633
0.002138393
0.002131954
0.002121792
0.002122465
0.002140808
0.002178864
0.002248045
0.002378203
0.002576405
0.002751998
0.003028344
0.00322215
0.003246484
0.003081573
0.002810367
0.002591926
0.0033833
0.007158602
0.006578685
0.003111559
0.002058104
0.0020648
0.002102425
0.002123123
0.002156551
0.002187962
0.002214274
0.002249193
0.002285539
0.002335212
0.002412602
0.002506379
0.002619245
0.002786262
0.003061044
0.003400046
0.003640275
0.004048528
0.004255444
0.004221209
0.003829907
0.003435599
0.004329633
0.00860023
0.003923291
0.002193862
0.001723419
0.00183832
0.001960076
0.002048181
0.002123471
0.002213549
0.002319102
0.00243036
0.002575817
0.002740452
0.002919175
0.003145437
0.003447115
0.003898495
0.004376089
0.004589198
0.005152587
0.005383628
0.005218364
0.004717944
0.005234619
0.007949884
0.005763211
0.002726527
0.001889965
0.001549218
0.001766933
0.001956873
0.002071906
0.002297405
0.00250748
0.002707408
0.002939011
0.003199129
0.00347366
0.003815278
0.004285755
0.004903411
0.005506857
0.005643937
0.006427875
0.006601156
0.00657014
0.007149718
0.009018518
0.0172316
0.005389734
0.002593447
0.00194416
0.001695921
0.001988981
0.002149548
0.002637941
0.002913714
0.00318137
0.003510373
0.003868575
0.004225766
0.004676782
0.005303907
0.006077038
0.006814641
0.006813625
0.007880892
0.008320612
0.009937841
0.01234357
0.02390448
0.005841163
0.003879087
0.002889941
0.002268769
0.002383183
0.003241143
0.003540687
0.003861936
0.004293786
0.004730211
0.005153219
0.005697763
0.006454289
0.007406492
0.008356417
0.008136549
0.009846425
0.01425038
0.02117074
0.03222612
0.007935353
0.004310592
0.004101446
0.004347445
0.004353916
0.004729378
0.005263517
0.005757787
0.006237209
0.00686047
0.00774449
0.008982539
0.01066584
0.01226559
0.01672953
0.03626984
0.01321787
0.009979968
0.0100688
0.008288234
0.007549227
0.008125454
0.00872912
0.009346876
0.01021987
0.01163316
0.01576344
0.02226271
0.02581407
0.04380411
0.02506439
0.01718444
0.01780235
0.01881877
0.01996088
0.02178207
0.02530082
0.04491365
0.006664716
0.003982488
0.003638949
0.003407264
0.003362671
0.005177507
0.006650345
0.004373146
0.003674797
0.003260614
0.002344132
0.001846655
0.001705235
0.001579093
0.001500243
0.001702296
0.002023076
0.001968845
0.002004175
0.003211767
0.006250855
0.003769404
0.002530555
0.002093556
0.001808641
0.002243187
0.001872405
0.001601553
0.001495035
0.001390463
0.001317841
0.001376777
0.001394245
0.0009466201
0.0009567982
0.001183887
0.001598592
0.002625793
0.005602103
0.002574834
0.001895976
0.001990592
0.001813167
0.001640786
0.001858429
0.001635537
0.001462139
0.001367667
0.001267605
0.001189553
0.001189113
0.001174892
0.0009251888
0.0009247292
0.0009652933
0.0008018481
0.001006927
0.001851337
0.004977709
0.002419235
0.001629279
0.001646582
0.001729922
0.001653332
0.001544063
0.001650629
0.001526627
0.001405104
0.001316525
0.001212984
0.001124768
0.001095777
0.001068926
0.0009255276
0.0009186307
0.0009063889
0.0007705465
0.000626994
0.0007564632
0.001378561
0.004804567
0.00221031
0.001911322
0.001514767
0.001506511
0.001571082
0.001556832
0.001494808
0.001546832
0.001480407
0.001399992
0.001321575
0.001214617
0.001112868
0.001063174
0.001038088
0.00094904
0.0009422717
0.0009223005
0.0008192402
0.0007029115
0.0006622302
0.0005948501
0.001205018
0.004625995
0.00218888
0.001799582
0.00162019
0.001419744
0.001412106
0.001469576
0.001495233
0.001472954
0.001504237
0.001473243
0.001425444
0.001362365
0.001260096
0.001148731
0.001077283
0.001049352
0.0009922149
0.0009913319
0.0009837231
0.0009081254
0.0007999402
0.0006901653
0.0005896605
0.0005525024
0.001152189
0.004668635
0.002165867
0.001802345
0.001548918
0.001437233
0.001335979
0.001349105
0.001421442
0.001510733
0.001548863
0.001580261
0.001559109
0.001514436
0.001448952
0.001346255
0.00122627
0.001133213
0.001091743
0.001058699
0.001064973
0.001069492
0.001025412
0.0009415786
0.0008259058
0.0007203299
0.0007184159
0.0005335815
0.001122183
0.005078754
0.0021917
0.001441205
0.001525622
0.001395332
0.001323715
0.001293592
0.001374737
0.001576928
0.001882456
0.002087755
0.002153127
0.002073034
0.001920483
0.001747554
0.001571347
0.001402034
0.001268725
0.001189988
0.00114942
0.00114642
0.00115862
0.001136366
0.001096841
0.0009847514
0.0008969942
0.0009773891
0.0005593883
0.0006170938
0.001154011
0.002850637
0.001497091
0.001404744
0.00139947
0.001311858
0.001291078
0.00138417
0.001740048
0.002386049
0.003243775
0.003959229
0.004372373
0.004254846
0.003667297
0.002938578
0.002349805
0.001904728
0.001602972
0.001412709
0.001308721
0.00126198
0.00125367
0.001245942
0.001226567
0.001204528
0.001068776
0.001078846
0.001350441
0.0008861795
0.001124318
0.004873024
0.001950756
0.001547477
0.001395226
0.001352676
0.001304575
0.001385878
0.001825938
0.002792947
0.004197508
0.005897805
0.007594876
0.009187739
0.01025516
0.009894172
0.007584763
0.005396948
0.003629592
0.002612313
0.002029847
0.001707193
0.001531056
0.001438482
0.001389471
0.001354319
0.00133251
0.001366268
0.001182976
0.00123214
0.001561516
0.001265718
0.002891317
0.00317149
0.00149159
0.001449631
0.001394778
0.001362408
0.001365458
0.001657746
0.002595941
0.003948512
0.005482432
0.007063193
0.00881221
0.01096336
0.01348893
0.01576865
0.01653149
0.0145528
0.008924441
0.005841127
0.003924837
0.002867724
0.002277714
0.001946018
0.001729428
0.001603954
0.001514729
0.001501327
0.001271395
0.001202427
0.001509507
0.001053793
0.002121378
0.002957453
0.0013857
0.001413577
0.001417227
0.00141569
0.001472064
0.001967192
0.003160318
0.004150357
0.00473561
0.004940371
0.005062015
0.00541309
0.00621789
0.00765549
0.009852941
0.0122691
0.01350117
0.01223786
0.009115055
0.00682107
0.005242993
0.004218335
0.003554689
0.003045641
0.002597488
0.00220911
0.001961039
0.001553423
0.001603774
0.001050846
0.002009632
0.002840904
0.001828991
0.001527584
0.00146858
0.001485118
0.001579728
0.002137824
0.003276221
0.003775831
0.003551458
0.00308709
0.002754627
0.002714833
0.002936231
0.003434579
0.004018034
0.004686802
0.005458646
0.006189608
0.006677632
0.006645461
0.005960995
0.005209374
0.004524932
0.003890188
0.003354983
0.002871612
0.002455944
0.002032718
0.001875715
0.002189912
0.002109054
0.006697219
0.002318106
0.001839141
0.001598281
0.00152975
0.001552152
0.001658378
0.002150309
0.003053966
0.003349476
0.002782309
0.00216504
0.001883569
0.001964908
0.002210438
0.002585549
0.002967853
0.00324693
0.003320988
0.003175049
0.002948284
0.002766925
0.002591997
0.002455491
0.00230471
0.002171721
0.002066854
0.001959625
0.001839243
0.001725084
0.001704986
0.001834967
0.001932497
0.004871038
0.004531852
0.001972666
0.001752554
0.001614317
0.001572832
0.001605353
0.001709391
0.002076113
0.002699729
0.002877288
0.002388847
0.001804605
0.001440825
0.001308233
0.001465143
0.001744238
0.002064022
0.002356777
0.002544631
0.002553299
0.002384425
0.002100325
0.001791867
0.001539137
0.001365871
0.001261984
0.001198131
0.001161481
0.001135548
0.001127018
0.001161878
0.001241273
0.001292144
0.002420104
0.004672374
0.002069976
0.001804797
0.001655614
0.00161241
0.001645705
0.001741582
0.001990797
0.002372546
0.002479535
0.002163016
0.00172391
0.001380979
0.001186467
0.001171012
0.001268573
0.001424476
0.001593357
0.001738376
0.001827339
0.001835443
0.001750793
0.001588092
0.001392218
0.001214005
0.001076622
0.0009792147
0.0009152532
0.0008741663
0.0008313743
0.0008160619
0.0008383012
0.0008684278
0.001450041
0.004858504
0.002218745
0.001916885
0.00173361
0.001663988
0.001681194
0.001761221
0.001927272
0.002149451
0.002213108
0.00203808
0.00174914
0.001469137
0.001270414
0.00117561
0.001166587
0.00121119
0.001275827
0.001334075
0.001371417
0.001382727
0.001364424
0.001313518
0.001235385
0.001144261
0.001052
0.0009713299
0.0009089156
0.0008670909
0.0007892759
0.0007493194
0.0007427224
0.0006785855
0.001100848
0.005145177
0.002400465
0.002058469
0.001844883
0.001739179
0.001723992
0.001776698
0.001888321
0.002024158
0.002073031
0.001987212
0.001812294
0.001603877
0.001429283
0.001313876
0.001259447
0.001246889
0.001250778
0.001250543
0.001236686
0.001210027
0.001176262
0.001140594
0.0011089
0.001079816
0.001042448
0.001005329
0.0009669503
0.0009392318
0.0008437949
0.00080869
0.0008029597
0.0006514104
0.001137351
0.008078917
0.003163743
0.002455724
0.002094914
0.001899575
0.001814502
0.001813283
0.001875452
0.001965341
0.002017391
0.001989528
0.001894115
0.0017602
0.001624389
0.001522475
0.00146122
0.001425731
0.001396139
0.00135886
0.001310631
0.001256106
0.001203755
0.001161423
0.001140694
0.001135326
0.001126891
0.001114826
0.001087475
0.00105455
0.0009422524
0.0009197362
0.0008869852
0.0008248648
0.001994489
0.004331932
0.002970451
0.002466808
0.00215932
0.001984025
0.00190434
0.001903113
0.001952503
0.002002218
0.002008546
0.001971914
0.001912358
0.001845767
0.001794112
0.001754202
0.001712809
0.001660297
0.00159535
0.001524079
0.001455883
0.001400806
0.001364293
0.001362021
0.001376768
0.001390326
0.001377428
0.001329704
0.001245649
0.001104087
0.00110796
0.0008917326
0.001216382
0.004317914
0.002299077
0.002240584
0.002172366
0.002097827
0.002022748
0.001984761
0.001997407
0.002036619
0.002074401
0.002121506
0.002158654
0.002177631
0.002174595
0.002143168
0.002083362
0.00200403
0.001917701
0.001838365
0.001778179
0.001747212
0.001742195
0.001785191
0.001844808
0.001871472
0.001828824
0.00172749
0.001549989
0.001352268
0.001403388
0.0009289538
0.001616515
0.004152716
0.002298768
0.002207204
0.00219811
0.002211725
0.002224894
0.002225712
0.00225593
0.002328057
0.002437934
0.002528272
0.002600965
0.002630369
0.002608475
0.002542878
0.002452079
0.002357601
0.002275538
0.002222191
0.002209577
0.002244492
0.002305614
0.002424975
0.00253834
0.0025451
0.002449181
0.002268202
0.00200042
0.001674647
0.001608843
0.00123587
0.002199635
0.00578905
0.00269195
0.0022031
0.002109467
0.002139583
0.002231984
0.002350337
0.002483651
0.002615155
0.002730601
0.002828376
0.002888834
0.002898366
0.002861311
0.002794753
0.002725823
0.002672928
0.002648006
0.002674756
0.002763588
0.002905013
0.003053945
0.003260145
0.00338485
0.003331133
0.003196836
0.002913269
0.002572365
0.002039366
0.001693345
0.001895802
0.004348876
0.003365504
0.001897127
0.001871293
0.001957122
0.002066928
0.002202061
0.002360293
0.002519671
0.002658216
0.002767436
0.002848573
0.002895966
0.002914664
0.002925375
0.00295299
0.002999566
0.003081191
0.003242064
0.003474289
0.003716593
0.003929485
0.004180526
0.004267443
0.004158235
0.004051335
0.003671742
0.003248189
0.002463113
0.002057556
0.003278658
0.005088145
0.002341167
0.001583884
0.001795051
0.001910479
0.002028312
0.002169705
0.00231754
0.002460707
0.002598822
0.002741853
0.002870025
0.002984968
0.003110771
0.003262623
0.003427853
0.003641213
0.003963259
0.004327339
0.004595223
0.004838469
0.005100105
0.005141496
0.005020571
0.005008446
0.004556105
0.00406831
0.002863308
0.003506482
0.006643413
0.004122963
0.001999138
0.00182335
0.001807035
0.001879052
0.001968273
0.002114205
0.002311179
0.00253552
0.002774968
0.003025798
0.003244255
0.003468282
0.003725381
0.003989206
0.004329049
0.004800434
0.005239198
0.005455715
0.005733643
0.006012786
0.006044528
0.005951425
0.006163814
0.005742957
0.005253067
0.004994036
0.009101855
0.003738529
0.001831627
0.001742109
0.001827312
0.00184215
0.00203848
0.002373786
0.002691559
0.003011113
0.003436042
0.003724836
0.003998655
0.004318644
0.004644073
0.00508635
0.005672019
0.006146193
0.006297661
0.006635546
0.006979822
0.007028877
0.007004563
0.007713001
0.007310584
0.007297627
0.0134188
0.003894344
0.001849294
0.001975625
0.001839061
0.00221947
0.00274979
0.003110644
0.003445392
0.004099911
0.004396795
0.00466936
0.005017476
0.005374233
0.00588071
0.00657304
0.007117902
0.007155331
0.007569267
0.008085923
0.008220187
0.008286027
0.009805264
0.01003642
0.01911927
0.004619943
0.002475135
0.001945144
0.002605056
0.003422108
0.003728997
0.004017003
0.004997608
0.005205655
0.005408571
0.005751317
0.006123465
0.006690537
0.007554685
0.008281697
0.008082974
0.008666056
0.009605893
0.009672326
0.009838858
0.01344358
0.02537166
0.007121004
0.003698603
0.003261174
0.004334643
0.004509884
0.004733102
0.006231324
0.006179203
0.00623396
0.006571641
0.00695697
0.00760533
0.00881195
0.01004798
0.009301457
0.0101903
0.01180612
0.01193678
0.01595521
0.03282213
0.0112075
0.007640708
0.005952655
0.005536078
0.005485198
0.00804808
0.007576386
0.00731659
0.007649873
0.008056548
0.008834564
0.0107566
0.01295509
0.01095404
0.01227428
0.01585733
0.02395245
0.03919155
0.01759581
0.01256253
0.01196278
0.01223017
0.009887581
0.008852808
0.009150825
0.009571902
0.01048819
0.01392715
0.0199276
0.02257316
0.02557066
0.04088754
0.0283752
0.01919907
0.01934056
0.02006075
0.02228295
0.03874611
0.006561674
0.003822234
0.003479895
0.003094922
0.002972181
0.002809853
0.002715353
0.002775012
0.002977941
0.004803023
0.005459048
0.003507566
0.003272414
0.002275574
0.001760098
0.002257983
0.002116272
0.002032201
0.001928534
0.001839931
0.001711865
0.001190355
0.001361219
0.001564498
0.001727275
0.003005159
0.004388558
0.002127842
0.00236005
0.002332647
0.001880305
0.001644171
0.001845592
0.001712257
0.001625714
0.001528568
0.001435469
0.001332515
0.001091021
0.001129556
0.001146601
0.001112342
0.00100555
0.002085538
0.004659382
0.003053058
0.002423658
0.001838852
0.001984125
0.001970765
0.001741649
0.00162454
0.001686083
0.00157726
0.001480484
0.001370257
0.001260244
0.001150032
0.001010141
0.0009902226
0.0009547444
0.0009039419
0.0008600302
0.0009162289
0.0009687962
0.001714248
0.004531588
0.002133935
0.002139227
0.001990409
0.001749684
0.001854179
0.001873119
0.001737981
0.001661117
0.001660205
0.001552697
0.001443645
0.001316473
0.001192043
0.001082348
0.0009828645
0.0009452332
0.0008978628
0.0008337446
0.0007635276
0.0007075375
0.0006529483
0.000585265
0.001318646
0.004271962
0.00212981
0.001845833
0.001835576
0.001824977
0.00175029
0.001832328
0.001860195
0.001765151
0.001699056
0.001675374
0.001576644
0.001461027
0.001317934
0.001181738
0.001075349
0.0009995247
0.0009626572
0.0009139032
0.0008388412
0.0007401236
0.0006326853
0.000539164
0.0004934979
0.0005015044
0.00131714
0.004243988
0.002037153
0.001851082
0.00169549
0.001718389
0.001768868
0.001758593
0.001817571
0.001845357
0.001774436
0.001717848
0.001696734
0.001626652