/*--------------------------------*- C++ -*----------------------------------*\
  =========                 |
  \\      /  F ield         | OpenFOAM: The Open Source CFD Toolbox
   \\    /   O peration     | Website:  https://openfoam.org
    \\  /    A nd           | Version:  6
     \\/     M anipulation  |
\*---------------------------------------------------------------------------*/
FoamFile
{
    version     2.0;
    format      ascii;
    class       volScalarField;
    location    "49.8";
    object      epsilon;
}
// * * * * * * * * * * * * * * * * * * * * * * * * * * * * * * * * * * * * * //

dimensions      [0 2 -3 0 0 0 0];

internalField   nonuniform List<scalar> 
203709
(
0.006130976
0.003675555
0.003552712
0.005647747
0.006487432
0.004019388
0.002816945
0.002155181
0.002077084
0.002520395
0.003386487
0.005520112
0.006349669
0.004507001
0.003418874
0.002498823
0.002187248
0.001993434
0.001910549
0.001925547
0.002033251
0.002567147
0.003591627
0.005837118
0.002821012
0.00218514
0.001937884
0.002166572
0.002086316
0.002000598
0.001925145
0.001869433
0.001843159
0.001855492
0.001928095
0.002094643
0.002773821
0.005943469
0.001915738
0.001379914
0.001389046
0.001549522
0.001797382
0.001863228
0.001853414
0.001817552
0.001783817
0.001763475
0.001769537
0.001830122
0.002030845
0.003479049
0.003890828
0.001824398
0.00147718
0.001454533
0.001519637
0.001657964
0.001829507
0.001925509
0.001816252
0.00173105
0.001666901
0.001627354
0.001624388
0.001699527
0.00225094
0.004866813
0.002669441
0.001591404
0.001441275
0.001399344
0.001404966
0.001442193
0.001521861
0.001638888
0.001647574
0.001622472
0.001539338
0.001441958
0.001338996
0.001266862
0.001314615
0.002048117
0.003988664
0.001892941
0.001425919
0.001345087
0.001325005
0.001313739
0.001289936
0.00125691
0.001222279
0.001189228
0.001158477
0.001122377
0.001089958
0.001073953
0.001089446
0.001173258
0.001609705
0.003683778
0.002810924
0.001279075
0.001112635
0.001183511
0.001242724
0.001275221
0.001261031
0.001219803
0.001175274
0.00113661
0.001106675
0.001087639
0.001076653
0.001076444
0.001100602
0.00117521
0.001385249
0.002547046
0.00326435
0.001530731
0.001230946
0.001174937
0.001209572
0.001270335
0.001278898
0.001236849
0.00118031
0.001130154
0.001096139
0.001079829
0.001073995
0.001077937
0.001101751
0.001173848
0.001371599
0.002442017
0.005701846
0.002260856
0.001548528
0.001401638
0.001363836
0.001364169
0.001361235
0.001325519
0.001255202
0.001177102
0.001117788
0.001085447
0.001074287
0.001083282
0.001116118
0.001227875
0.001735009
0.003865259
0.003216151
0.001787159
0.001557571
0.001491627
0.001477238
0.001467355
0.001437055
0.00137652
0.001294703
0.001209636
0.001141342
0.001106515
0.001111903
0.001160836
0.001341227
0.002334514
0.005674466
0.002397987
0.001726285
0.001607316
0.001572659
0.001552125
0.001521541
0.001471882
0.001403154
0.00132228
0.001242832
0.00118803
0.00118175
0.001262063
0.00178034
0.004019354
0.003476059
0.001985025
0.001763106
0.001677497
0.001628024
0.001582451
0.00153306
0.001474681
0.001411386
0.001349682
0.001308174
0.001311452
0.001445829
0.002495826
0.006317071
0.002808102
0.00207212
0.001858912
0.001732081
0.001647831
0.001583093
0.001529729
0.001493788
0.001469858
0.001493773
0.001555717
0.002056643
0.004405512
0.006550895
0.003855432
0.002616709
0.002002557
0.001799616
0.001678295
0.001624732
0.001650064
0.001702657
0.002152976
0.002778853
0.004669038
0.006289601
0.003675852
0.002522864
0.001952508
0.00188437
0.002357448
0.002985659
0.005095472
0.006096212
0.003607877
0.003448428
0.005821143
0.006250215
0.003386415
0.002910197
0.002652826
0.002459422
0.002332148
0.002274962
0.00229561
0.002445586
0.003945693
0.006200462
0.003761894
0.002509451
0.001808921
0.001582734
0.0014395
0.001333661
0.001271494
0.001255489
0.001283559
0.001362072
0.001718327
0.002320889
0.003564912
0.005724565
0.002619465
0.002037676
0.001716929
0.00146911
0.001306585
0.001170739
0.001066139
0.001021014
0.001034844
0.001080283
0.001136882
0.00123029
0.001348486
0.001674507
0.003179235
0.005324072
0.002482786
0.00175401
0.001617163
0.001443748
0.001262348
0.001082005
0.001137881
0.001077123
0.001033718
0.001042492
0.0008986849
0.001000083
0.001086263
0.001156545
0.001224293
0.001587377
0.003020632
0.004992231
0.002387031
0.001660275
0.001400478
0.001321367
0.001187716
0.001305432
0.001230205
0.001201457
0.001141007
0.001093619
0.001086621
0.001017406
0.001078753
0.0009355102
0.001041053
0.001123995
0.001221105
0.001546088
0.003021526
0.004864117
0.002280101
0.001529229
0.001231101
0.00108047
0.001509429
0.001639685
0.001649353
0.001536215
0.001408678
0.001292367
0.001207106
0.001165792
0.001118378
0.001156986
0.001130462
0.001376863
0.001064499
0.001207168
0.00134087
0.001736343
0.00338997
0.002450952
0.001440941
0.001173138
0.001066101
0.001753442
0.002580481
0.003178855
0.003107786
0.002629338
0.0021265
0.001744584
0.001502237
0.001368315
0.001290501
0.001281993
0.001288188
0.00149433
0.001905558
0.0011672
0.001327568
0.0015466
0.002555916
0.004655755
0.001781495
0.001231816
0.001224108
0.001334884
0.002505591
0.003763867
0.005170677
0.006299543
0.006057404
0.00452305
0.003178894
0.00240845
0.001981698
0.001750134
0.001644945
0.00159893
0.001622668
0.001987141
0.001182129
0.001381483
0.001538367
0.002009042
0.00416541
0.002582047
0.001342695
0.001238793
0.001320932
0.002162386
0.002552262
0.003537066
0.004754348
0.006521279
0.008908386
0.009999712
0.007453331
0.005325038
0.004068506
0.003330654
0.002982663
0.002799024
0.002691287
0.002483481
0.002690597
0.00166196
0.001675866
0.001740802
0.00264261
0.002419312
0.001274395
0.001255117
0.001206299
0.001981298
0.001963084
0.002221824
0.002623039
0.003374909
0.004703173
0.006847158
0.008889594
0.008960793
0.008626862
0.00771594
0.007007253
0.006277321
0.005303344
0.004147563
0.003215128
0.001880882
0.001608052
0.00150458
0.002027659
0.002549222
0.001234889
0.001165495
0.001589843
0.001834078
0.001781091
0.001914472
0.002085379
0.002218313
0.002304273
0.00242856
0.002693284
0.003038347
0.003311084
0.003366134
0.003144625
0.002799566
0.002418045
0.00212328
0.002047251
0.001684271
0.001063619
0.001174279
0.001719062
0.002655773
0.001335424
0.00106829
0.001478433
0.001811176
0.002068196
0.002397378
0.002554629
0.002719342
0.002710847
0.002486059
0.002127384
0.001773671
0.001509883
0.001335681
0.001212929
0.001115254
0.001030424
0.0009598561
0.0009044177
0.0008620961
0.0009126036
0.001199505
0.002433565
0.002684687
0.001419143
0.001102157
0.001250515
0.001470939
0.001633247
0.001780122
0.002042971
0.002471707
0.00279268
0.002797203
0.002538411
0.002133283
0.00173237
0.001414731
0.001184757
0.001021725
0.0009010371
0.0008122902
0.0007645132
0.0007668068
0.000831808
0.001051502
0.001940738
0.00270185
0.001464322
0.001164881
0.001134097
0.001148955
0.001149638
0.001113145
0.001203603
0.001436819
0.001768767
0.002083813
0.002242699
0.00216106
0.001909021
0.001613934
0.001353754
0.001152641
0.0009926105
0.0008679617
0.0007827531
0.000739314
0.0007923487
0.0009599165
0.001714042
0.002790012
0.001516218
0.001228168
0.0009779387
0.001008264
0.0009689882
0.0009186238
0.0009326479
0.000999796
0.001112814
0.001263524
0.001427781
0.001557486
0.001598054
0.001530485
0.001387601
0.001224675
0.00106454
0.0009272147
0.0008014927
0.0006930905
0.0008305364
0.0009820297
0.001693897
0.003062025
0.00162672
0.001301901
0.001087366
0.001033733
0.0009835069
0.0009296342
0.00090031
0.0009046166
0.0009273464
0.0009631934
0.001011683
0.001071495
0.001130931
0.001167801
0.001160907
0.001107363
0.001020216
0.0009389673
0.0008143759
0.0007902416
0.0009199991
0.001110714
0.001907799
0.005386925
0.002161528
0.001462557
0.001219269
0.0009864747
0.0009830994
0.0009570088
0.0009318875
0.000908147
0.0008906166
0.000880416
0.0008773301
0.000883806
0.0008980931
0.0009130949
0.0009217639
0.0009106575
0.000889878
0.0009282363
0.000743162
0.0008978918
0.001063258
0.00153315
0.003552544
0.003216078
0.001742758
0.001409959
0.001191843
0.001139583
0.001078802
0.001022274
0.000970386
0.0009231162
0.0008804494
0.000849903
0.0008320576
0.0008240244
0.0008129757
0.0008062774
0.0007824636
0.0007802843
0.0007805427
0.0008407927
0.001011185
0.001263271
0.002292457
0.005902823
0.002540947
0.001729236
0.001453159
0.00121075
0.001176693
0.001104926
0.00104057
0.0009798189
0.0009249497
0.0008787376
0.0008443452
0.0008270587
0.0007924792
0.0007854538
0.0007472245
0.0007754389
0.000795361
0.0009787548
0.001212481
0.00182791
0.004223489
0.006052266
0.002678972
0.001863013
0.00157786
0.001361515
0.001168776
0.001134094
0.001055225
0.0009927809
0.0009419219
0.0009032115
0.0008847879
0.0008230838
0.0008287747
0.000761726
0.0008687507
0.001010397
0.001226304
0.001843307
0.004311509
0.006416437
0.002855198
0.001985021
0.001674038
0.001472699
0.001285669
0.0011019
0.001080794
0.001029998
0.0009858725
0.0009710254
0.000842341
0.0009214839
0.001006114
0.001121723
0.00134724
0.001991626
0.004595477
0.006380201
0.002881844
0.002043683
0.00174352
0.001525271
0.001370673
0.00123573
0.001138283
0.001094658
0.001098216
0.001135763
0.001197933
0.001339071
0.001601962
0.002378852
0.005310022
0.006318358
0.003643794
0.002523663
0.00189368
0.00170476
0.001585062
0.00151384
0.001483645
0.001494255
0.001560209
0.001725166
0.00237703
0.003732208
0.006922067
0.005938095
0.003544904
0.003225787
0.003088828
0.00304495
0.003073256
0.003181432
0.003442448
0.004078897
0.007406928
0.005445388
0.002985806
0.002564016
0.002290632
0.002094325
0.001977089
0.001993918
0.00314132
0.006119005
0.003570016
0.00287117
0.001962799
0.001446288
0.001280364
0.001157254
0.001065856
0.001007503
0.0009924368
0.001173209
0.001450407
0.001563838
0.00257734
0.005296142
0.002410334
0.001807818
0.00148937
0.001210835
0.001051878
0.0009498194
0.0008669984
0.0008060603
0.0007682233
0.0007542133
0.0007666219
0.0008069073
0.0008590715
0.001096892
0.002212952
0.005535512
0.003340633
0.002197284
0.001534453
0.001305565
0.00129093
0.001102102
0.0009755132
0.0008908934
0.0008243943
0.0007781059
0.0007540851
0.0007509549
0.0007625351
0.0007574911
0.0006667993
0.0007547346
0.0009728921
0.001298334
0.00214117
0.004983725
0.002291091
0.001729056
0.001406303
0.001350312
0.00120892
0.001181405
0.001038588
0.000934821
0.0008629883
0.0008080872
0.000772836
0.000761077
0.0007702573
0.0007920166
0.0007865478
0.0007358129
0.0007313553
0.0006481928
0.0006949237
0.0008674912
0.001766793
0.004741301
0.002089512
0.001485624
0.001291235
0.001259908
0.001240734
0.001162285
0.001127963
0.001026293
0.0009393777
0.0008751048
0.0008246738
0.0007928614
0.0007864878
0.0008024632
0.0008408463
0.0008560884
0.0008336409
0.0007976122
0.0006913732
0.0005452804
0.0005579851
0.0006780932
0.001501927
0.002494529
0.001380837
0.001133912
0.001175759
0.001194103
0.001199171
0.001181899
0.00115567
0.001079946
0.001000626
0.0009372539
0.0008820516
0.0008452329
0.0008360991
0.0008471348
0.000895908
0.0009414619
0.0009631876
0.0009613338
0.0008921919
0.0007862608
0.0004999577
0.0005769116
0.001008145
0.003740782
0.001569692
0.001059079
0.00108389
0.001177991
0.00126109
0.001312189
0.001356328
0.001346529
0.001285463
0.001189744
0.001095697
0.001013778
0.0009534567
0.0009250036
0.0009259575
0.0009706081
0.00102477
0.001083896
0.001133817
0.001137421
0.001121607
0.001219523
0.0007208457
0.0008663221
0.001502888
0.003925588
0.001702611
0.001087188
0.001054486
0.001169509
0.001396084
0.00162266
0.001796396
0.002010396
0.002045624
0.001934959
0.001739828
0.001520825
0.001326566
0.001184983
0.001103173
0.001069637
0.001084769
0.001124986
0.001200943
0.001228653
0.001255019
0.001247442
0.001275045
0.001478782
0.0008437158
0.0008747598
0.0012746
0.002175168
0.001214206
0.0009093099
0.001201758
0.001455631
0.001843059
0.002276151
0.002859232
0.003577413
0.003995465
0.003860127
0.003297071
0.00264748
0.002101388
0.001718372
0.001482315
0.001353134
0.001304294
0.001300907
0.001344465
0.001416147
0.001300716
0.001239772
0.001206746
0.001446942
0.000834589
0.0009197916
0.001004122
0.001844201
0.001047046
0.001043192
0.001428004
0.001844734
0.002384191
0.003039228
0.004123488
0.005589373
0.007129905
0.008160963
0.007664126
0.005959981
0.004283932
0.003180258
0.002504985
0.002111409
0.001898112
0.001777522
0.001703956
0.001684634
0.001458808
0.001329444
0.00123758
0.001315438
0.001634994
0.0009576371
0.001203982
0.003765556
0.001424074
0.0009395209
0.001143543
0.001660144
0.002115868
0.002598776
0.003263908
0.004170961
0.005539467
0.00732441
0.009690053
0.01233632
0.01317147
0.01023389
0.007484046
0.005728234
0.004629532
0.004044786
0.003698074
0.00351614
0.003253327
0.002887724
0.002254894
0.001747383
0.001400905
0.001437633
0.0008452256
0.000994116
0.001661331
0.002280684
0.001129757
0.0008796093
0.001130087
0.00179441
0.002152446
0.002331285
0.002602145
0.002811837
0.003128218
0.003673767
0.004745506
0.006662075
0.009490121
0.01193669
0.01216667
0.01166978
0.01055866
0.009503641
0.008478293
0.007151635
0.005681388
0.004343467
0.003232652
0.002372373
0.00169999
0.001285503
0.0007789478
0.0009152929
0.001535352
0.002149812
0.001078211
0.0008472233
0.001046765
0.001690342
0.002125616
0.00221615
0.002210833
0.002185876
0.002279559
0.002454833
0.002677291
0.002876291
0.003131514
0.003530308
0.003989107
0.004333354
0.004408997
0.004146178
0.00373107
0.003269969
0.002880458
0.002607431
0.002294982
0.001996087
0.001856073
0.001588441
0.001078367
0.001225724
0.001838576
0.00217863
0.001080099
0.0008353237
0.0009615032
0.001444523
0.001879787
0.002085216
0.002176534
0.002471432
0.00280393
0.003002879
0.003194392
0.003244197
0.003046669
0.002660002
0.002240728
0.001908029
0.001684279
0.001532888
0.001424116
0.001342377
0.001290778
0.001270466
0.001257819
0.001273926
0.001297192
0.001224065
0.0008956058
0.0009164714
0.001104354
0.002284356
0.001115288
0.0008435239
0.0009084114
0.001210493
0.001536731
0.001751371
0.001875563
0.002024085
0.002178293
0.002401494
0.002823901
0.003212078
0.003287871
0.003049126
0.002599215
0.002112518
0.001709654
0.001418347
0.00122391
0.001097524
0.001019389
0.000969101
0.0009239948
0.0008833387
0.0008314727
0.0007575138
0.0006672256
0.0007267737
0.001140121
0.002458172
0.001181669
0.0008743833
0.0008935428
0.001054448
0.001258501
0.001407887
0.001489122
0.001496857
0.001391244
0.001346858
0.0015231
0.001858675
0.00222052
0.002446936
0.002418373
0.002174475
0.001848109
0.001544731
0.001309716
0.001141309
0.001029311
0.0009557948
0.0009094611
0.0008743665
0.0008181112
0.0007102736
0.0005612333
0.0006390588
0.001045874
0.002765131
0.001293847
0.0009318674
0.0009132003
0.0009804404
0.001087371
0.00116895
0.001198269
0.001152305
0.001040915
0.0009721221
0.0009828475
0.001068858
0.001216333
0.001394954
0.001550962
0.001622028
0.00157963
0.001450728
0.001291812
0.001140089
0.001013797
0.0009187871
0.0008690868
0.0008581347
0.0008345312
0.0007388559
0.0005760437
0.0006761535
0.001092274
0.004732219
0.001703053
0.001032879
0.0009678791
0.0009723674
0.001015887
0.001051597
0.001054466
0.001006946
0.0009329274
0.0008817168
0.0008597097
0.0008631693
0.0008872883
0.0009295725
0.0009874408
0.001050049
0.001096594
0.001106251
0.001074998
0.001013565
0.0009338701
0.0008516791
0.0008038805
0.0008039207
0.0008139325
0.000756768
0.0006628247
0.0009205616
0.002054488
0.002509671
0.001241417
0.001089044
0.001034198
0.001021475
0.001024422
0.001015327
0.0009854191
0.0009426291
0.000897971
0.0008630679
0.0008366122
0.0008173498
0.0008057598
0.0008042436
0.0008130189
0.0008285453
0.0008440076
0.0008524966
0.000850773
0.000833097
0.0007876927
0.0007664472
0.0007757518
0.0008172976
0.0007670297
0.0008204947
0.001352268
0.003229135
0.001548143
0.001094172
0.00106259
0.001043637
0.001037906
0.001030576
0.001018475
0.0009934782
0.0009580294
0.0009158146
0.0008722724
0.0008324644
0.0007989821
0.0007748464
0.0007601204
0.0007526203
0.0007517352
0.0007573656
0.0007686373
0.0007778697
0.0007790492
0.0007829811
0.0008059048
0.0008973172
0.0008089626
0.00105372
0.001847306
0.005710806
0.0022427
0.001407294
0.001248352
0.001174537
0.00112968
0.001108317
0.00109
0.001065091
0.001030179
0.0009855975
0.0009347667
0.0008834326
0.0008396104
0.0008066506
0.0007825781
0.0007655769
0.0007590571
0.0007681501
0.0007887091
0.0008201667
0.0008489195
0.0008730314
0.0009077958
0.0009494996
0.001096901
0.001617783
0.003700331
0.005135969
0.002176208
0.001415052
0.001308815
0.001248146
0.001209003
0.001176435
0.001139984
0.001097739
0.001049812
0.0009975498
0.0009441322
0.0008984756
0.0008634276
0.0008360668
0.0008196703
0.0008225084
0.0008511276
0.0008874622
0.0009557444
0.001014646
0.001061799
0.001096713
0.00121694
0.001791007
0.003975602
0.003627855
0.001901672
0.001454028
0.001369837
0.001312892
0.001259639
0.001208253
0.001153735
0.001099059
0.001047477
0.00100079
0.0009593484
0.0009283242
0.0009081842
0.0009045204
0.0009299936
0.0009990606
0.001061005
0.001199088
0.001301771
0.001341044
0.001447803
0.001849297
0.003279111
0.006053515
0.002657292
0.001780336
0.001402299
0.0013564
0.001308153
0.001249748
0.001189568
0.00113803
0.001093245
0.001054459
0.001022396
0.001003418
0.001000886
0.001023127
0.001093792
0.001244901
0.001342779
0.001605332
0.001701773
0.001815068
0.002308979
0.003297568
0.007017199
0.005672699
0.002551473
0.00175018
0.001395285
0.001358422
0.001262435
0.001214247
0.001178357
0.001143756
0.001114009
0.001099119
0.001104233
0.00113234
0.001203875
0.001367231
0.00167193
0.001789589
0.002180483
0.002366127
0.003066047
0.004346727
0.009082578
0.005366098
0.003058637
0.002067287
0.001444384
0.001174849
0.001237819
0.001225335
0.001196002
0.001182955
0.001202159
0.001252875
0.001338747
0.001505373
0.001834695
0.002298189
0.00245462
0.003118648
0.004682006
0.007360478
0.01232095
0.004480622
0.002112679
0.0015512
0.001399442
0.001300313
0.001257936
0.00127772
0.001357235
0.0014789
0.001650069
0.001956879
0.002548605
0.003382448
0.004455729
0.006317677
0.01359104
0.004921042
0.003023194
0.0028371
0.00230099
0.00194584
0.00202576
0.002243455
0.002534811
0.002927763
0.003657995
0.00575712
0.008822494
0.01141823
0.01874173
0.007064902
0.004771636
0.005033206
0.005727438
0.006575703
0.007726324
0.009996663
0.02000824
0.004435569
0.002510784
0.002181317
0.001988536
0.001953442
0.003059372
0.005425268
0.003234103
0.002635922
0.002195532
0.001501643
0.001124406
0.0009900548
0.0008973388
0.0008519936
0.0009708991
0.001145193
0.0011894
0.001312002
0.002233198
0.005260289
0.00305671
0.002030825
0.001551306
0.001301156
0.001536078
0.001207698
0.0009919653
0.0008894254
0.0008163192
0.0007812114
0.0008046876
0.0007835981
0.0005666891
0.000600438
0.0007506125
0.001044434
0.001842837
0.004667403
0.002113393
0.001543152
0.001605646
0.001360405
0.001211586
0.001283673
0.00106292
0.0009139504
0.0008279832
0.0007668335
0.000734139
0.0007233311
0.0006814011
0.000586653
0.0005931705
0.0006030025
0.0005203871
0.0007212683
0.001557863
0.00407405
0.00196222
0.001334046
0.001379887
0.001422886
0.001271778
0.001156347
0.001146489
0.0009899838
0.0008725872
0.0007981116
0.0007473804
0.0007206513
0.0007050827
0.000669946
0.0006187268
0.000600029
0.0005664898
0.0005075252
0.0004691087
0.0006683047
0.001435061
0.003827184
0.001734611
0.001562881
0.001269515
0.00129461
0.00132984
0.001232046
0.001128012
0.001080013
0.0009539199
0.0008556698
0.0007920305
0.0007528453
0.0007368536
0.0007298611
0.0007093892
0.0006748346
0.0006408119
0.0005913481
0.0005385776
0.0005182571
0.0005561989
0.0005886397
0.001271032
0.003618695
0.001676102
0.001412515
0.001364742
0.001224327
0.001244629
0.001276243
0.001212979
0.00111666
0.001052076
0.0009436532
0.0008590941
0.0008053743
0.0007774381
0.0007744409
0.0007819155
0.000777977
0.0007533245
0.0007116376
0.0006493295
0.0005830021
0.0005360356
0.0005097572
0.0005110733
0.0005478578
0.001328725
0.003458156
0.001622099
0.001350662
0.001232051
0.001238529
0.001179424
0.00120224
0.001234956
0.001203598
0.001124656
0.001058369
0.0009643579
0.0008878286
0.000838076
0.0008152614
0.0008212976
0.0008481799
0.0008715284
0.0008694876
0.0008312395
0.0007612307
0.0006838735
0.0006206546
0.0005864372
0.0005850307
0.0005840567
0.0006798888
0.001499065
0.003580613
0.001558191
0.001065477
0.001156088
0.00111566
0.001144789
0.001134513
0.001168034
0.001212174
0.001219398
0.001173262
0.001116501
0.001033744
0.00095799
0.0009037652
0.000879017
0.0008888745
0.0009308534
0.0009810448
0.001014362
0.001000054
0.0009472764
0.0008614987
0.0007711838
0.0006941944
0.0006847956
0.0006705494
0.000567001
0.0007157973
0.001506174
0.001892262
0.001039912
0.0009847132
0.001044049
0.001032063
0.001075708
0.00111263
0.001189797
0.001281399
0.001351653
0.001355947
0.001313366
0.001226575
0.001130609
0.001050836
0.001001271
0.0009919143
0.001023328
0.001079947
0.001145937
0.00117208
0.001166548
0.001114625
0.001016371
0.0009585935
0.0008416845
0.0008790326
0.0008071742
0.0005830277
0.0008894202
0.003302525
0.001286673
0.000977189
0.0009246507
0.0009702035
0.0009793193
0.001057717
0.001217092
0.00144624
0.001682366
0.001902993
0.001986982
0.001931575
0.00177267
0.001573124
0.001390267
0.001256101
0.001183325
0.001169109
0.001199101
0.001257404
0.001304332
0.001324791
0.001304242
0.001226824
0.001145222
0.001181126
0.001201672
0.0009808066
0.0007157377
0.0006909497
0.001432837
0.001910481
0.0009373911
0.0008945464
0.0008881719
0.0009292696
0.0009920024
0.001205664
0.001617808
0.002166
0.002809012
0.003502687
0.003922743
0.003869552
0.00340999
0.002816738
0.00228247
0.001887034
0.001632806
0.001494713
0.001441974
0.001441987
0.001456803
0.001455094
0.001383381
0.001279781
0.001201314
0.001288734
0.001434872
0.001389911
0.0008712255
0.0006718778
0.0009708924
0.001668066
0.0008220415
0.0008465723
0.0008704005
0.000930718
0.001125968
0.001607194
0.002364154
0.003325037
0.004587522
0.00614946
0.007706423
0.008592706
0.008107246
0.006555358
0.004898149
0.003709263
0.002936432
0.002465071
0.002194697
0.002032622
0.001915309
0.001792046
0.001626907
0.001439492
0.001294347
0.001310199
0.001578596
0.001524055
0.001117733
0.0007431831
0.001086097
0.001535341
0.0009443694
0.0008392603
0.0008637345
0.000967493
0.001383384
0.002134711
0.003049727
0.00409565
0.005391383
0.007072645
0.009212056
0.01181291
0.01429906
0.01481359
0.01193108
0.00904544
0.007077783
0.005796563
0.005062126
0.004600956
0.004374501
0.003995584
0.003346052
0.002572461
0.00188654
0.001465475
0.001354165
0.001151531
0.001025503
0.001107855
0.001251335
0.003674817
0.001276943
0.0009595213
0.0008571757
0.0008715171
0.0009977532
0.001600439
0.002490418
0.003074
0.003500305
0.003828076
0.004213708
0.004913897
0.006239739
0.008541735
0.01164604
0.01413367
0.01442372
0.0138092
0.01262063
0.01129329
0.009995041
0.008308994
0.006628659
0.005109909
0.003841296
0.002736125
0.001825721
0.00125143
0.0009310051
0.0009392764
0.001173547
0.00125012
0.001412167
0.002294162
0.001042306
0.0009312716
0.0008734189
0.0008883784
0.001005586
0.001604996
0.002555099
0.002908754
0.002828148
0.002684103
0.002659703
0.002770465
0.003047145
0.003375348
0.003774745
0.004290119
0.004806056
0.005147641
0.005183416
0.004871727
0.004417219
0.003940417
0.00352579
0.003210867
0.002938154
0.002685186
0.002405415
0.001966394
0.00157879
0.001442019
0.001391907
0.001194037
0.001382801
0.002268293
0.001032886
0.0009329445
0.0008939852
0.0009122743
0.001006141
0.001475265
0.002260962
0.002646809
0.002633191
0.00276498
0.003003766
0.003247604
0.003461272
0.00358883
0.003471999
0.003127954
0.002699166
0.002326695
0.002061927
0.00188371
0.001764975
0.00169122
0.001668871
0.001707548
0.001794667
0.001926052
0.002061114
0.002065122
0.00183123
0.001506128
0.001032865
0.0005614958
0.0004919506
0.002415753
0.001084558
0.0009641925
0.000924322
0.0009426531
0.001015422
0.001324577
0.001865336
0.002198426
0.002258036
0.002349562
0.002476438
0.002664807
0.003015418
0.00342922
0.003576965
0.003400749
0.00296912
0.002451571
0.001996876
0.00166059
0.001439482
0.001307529
0.00124585
0.00124184
0.001269554
0.00129006
0.001263655
0.001140472
0.0009407468
0.000716398
0.0005143927
0.0003903917
0.0006083439
0.002687976
0.001181875
0.001023776
0.000969155
0.0009807948
0.00103604
0.001220539
0.001538395
0.00177315
0.001838339
0.001809839
0.001680707
0.001540934
0.001649805
0.001951008
0.002307771
0.002557371
0.002568766
0.002353116
0.002028533
0.001709094
0.00145393
0.00127108
0.00115544
0.001102477
0.00109178
0.001088341
0.001062231
0.0009795836
0.0008446492
0.0006900831
0.0005429105
0.0004237835
0.0006780121
0.004349982
0.001513209
0.001169637
0.001051914
0.001036734
0.001071495
0.00117402
0.001342244
0.001472021
0.001509998
0.001446612
0.001288373
0.001142779
0.001101338
0.001158229
0.00128752
0.0014488
0.001588716
0.001653145
0.001616989
0.00150081
0.001351463
0.001204751
0.001078859
0.0009935248
0.0009533217
0.0009396685
0.0009231647
0.000878354
0.0007980092
0.0006943168
0.0005673854
0.0005383279
0.001217681
0.002245746
0.001467039
0.001221743
0.001128496
0.00112512
0.001173833
0.001256473
0.001319807
0.001324198
0.001262093
0.001155915
0.001062536
0.001008976
0.0009917512
0.0009996059
0.001022766
0.001055001
0.001089051
0.001112968
0.00111394
0.001087491
0.001037002
0.0009688215
0.0009007541
0.0008557177
0.0008384437
0.0008239242
0.0007964651
0.0007475813
0.0006897363
0.000570412
0.0007205692
0.002753333
0.001288999
0.001209516
0.001167337
0.001167553
0.001194544
0.001237871
0.001270444
0.001267566
0.001222049
0.001158098
0.00110232
0.001054042
0.001013899
0.0009786794
0.000946557
0.0009190596
0.0008991938
0.0008887444
0.0008862263
0.0008875135
0.0008859917
0.000873922
0.00084825
0.0008255593
0.0008205218
0.0008129329
0.0007930545
0.000751519
0.0007430759
0.0005669064
0.0009698773
0.003351235
0.001570281
0.001349658
0.001267068
0.001246738
0.001258078
0.001280338
0.001298648
0.001301204
0.001286559
0.00125232
0.001200157
0.001148426
0.001094723
0.001038632
0.0009832486
0.000932645
0.0008904757
0.0008598543
0.0008429394
0.0008407715
0.000850075
0.0008653183
0.000875046
0.0008788854
0.0008937374
0.0008956665
0.0008832042
0.0008204222
0.0008224282
0.0007378169
0.001344364
0.005274023
0.00207387
0.001603278
0.001428845
0.001364896
0.001358624
0.001371159
0.001388061
0.001402629
0.001400968
0.001373075
0.001320959
0.001251936
0.001185483
0.001121097
0.001057935
0.001000504
0.0009521327
0.0009172473
0.0009004002
0.0009051689
0.0009289044
0.0009703784
0.001008611
0.00103298
0.001068049
0.001072511
0.001069835
0.0009562062
0.0009026756
0.001137118
0.002689504
0.003172546
0.001619909
0.001475633
0.001416024
0.001418477
0.001445684
0.001478134
0.00149572
0.001486666
0.001452124
0.00139469
0.001323285
0.001255454
0.001194142
0.001137542
0.001085823
0.001043211
0.001018693
0.001021205
0.001052149
0.001107728
0.001192147
0.001262126
0.001299407
0.001355573
0.001357971
0.001364694
0.001154609
0.001150111
0.002037288
0.005199859
0.002240268
0.001463219
0.001440298
0.001454506
0.001486891
0.001514125
0.001526847
0.001513578
0.001474548
0.001416546
0.001353675
0.00129692
0.001249069
0.001209656
0.001176866
0.001155699
0.001161282
0.001209275
0.001287939
0.001399566
0.00154999
0.001647062
0.001680597
0.001766637
0.001757928
0.001762419
0.001399679
0.001999824
0.004300764
0.004718098
0.002145012
0.001777396
0.00162054
0.001552155
0.001526266
0.001509419
0.001485834
0.001449715
0.001403399
0.001358972
0.001323525
0.00129717
0.001282429
0.001281697
0.001300165
0.001363289
0.001499401
0.001649678
0.001842227
0.00206789
0.00216282
0.002173511
0.002317245
0.002297503
0.002249103
0.002499536
0.005216615
0.004144063
0.001933938
0.001677197
0.001556865
0.001486695
0.001441876
0.001416314
0.001395724
0.001378079
0.001363513
0.001358031
0.001360927
0.001380401
0.001424179
0.001502051
0.001668035
0.001955466
0.002172568
0.002451367
0.002743559
0.002800779
0.002746844
0.003030669
0.002984331
0.003216444
0.006614087
0.003762875
0.001790202
0.001579146
0.001399119
0.00134251
0.001335212
0.001342885
0.00135719
0.001387336
0.001432019
0.001476376
0.001546622
0.001651249
0.001808338
0.002132205
0.00263604
0.002872021
0.00324342
0.00355307
0.003510103
0.003379799
0.003961488
0.004194017
0.008531157
0.003468544
0.00166943
0.001139578
0.001207632
0.001289081
0.001325675
0.001357627
0.001477843
0.001601931
0.001692655
0.001835518
0.002026087
0.00229423
0.002849512
0.003620265
0.003708963
0.004145249
0.004500636
0.004288913
0.004111965
0.005665607
0.01104907
0.003474323
0.001680567
0.001199486
0.001401504
0.001392712
0.001420097
0.001758904
0.001944746
0.002044999
0.002276622
0.002566817
0.002965696
0.003833534
0.004971037
0.004664373
0.005212581
0.005703038
0.00547223
0.007078037
0.01461734
0.004123061
0.00243827
0.001792435
0.001554317
0.001555342
0.002390972
0.002547193
0.002579686
0.002924477
0.003322323
0.003881441
0.005238479
0.0068782
0.005842489
0.006618752
0.007826912
0.01150316
0.01835421
0.005376306
0.003911394
0.003764878
0.004006862
0.003559725
0.003371021
0.003839336
0.004347068
0.005103318
0.007402012
0.01105966
0.01287817
0.01455946
0.02092056
0.01204543
0.008739655
0.009567513
0.01057884
0.01236824
0.02270042
0.004794047
0.002768748
0.002349364
0.002009189
0.001835835
0.001681468
0.001592229
0.001610132
0.00176128
0.003020281
0.004644082
0.002818375
0.002370383
0.001615574
0.001234297
0.001538763
0.001378807
0.001260468
0.001153666
0.001064848
0.0009538983
0.0006701888
0.0007938072
0.0009831539
0.001172709
0.002165697
0.003642237
0.001702135
0.001882963
0.001693262
0.001361875
0.001192204
0.001269936
0.001129252
0.001023432
0.0009288321
0.0008438172
0.0007554524
0.0006532352
0.0006851466
0.0007179276
0.0007190686
0.0006669792
0.00146322
0.003849081
0.002429917
0.002017893
0.001508522
0.001592876
0.001476023
0.001303013
0.001200989
0.001175236
0.001056579
0.0009523082
0.0008594427
0.0007771296
0.0007021972
0.00064096
0.0006250104
0.0006054981
0.000582372
0.00057569
0.0006245959
0.0007448348
0.001461028
0.003684016
0.001596955
0.001729046
0.001654497
0.001461595
0.001526314
0.001458558
0.001334454
0.001234892
0.00115556
0.001035548
0.0009312904
0.0008426264
0.000769346
0.000709495
0.0006628096
0.0006298048
0.000592443
0.0005546533
0.0005278339