/*--------------------------------*- C++ -*----------------------------------*\
  =========                 |
  \\      /  F ield         | OpenFOAM: The Open Source CFD Toolbox
   \\    /   O peration     | Website:  https://openfoam.org
    \\  /    A nd           | Version:  6
     \\/     M anipulation  |
\*---------------------------------------------------------------------------*/
FoamFile
{
    version     2.0;
    format      ascii;
    class       volScalarField;
    location    "49.8";
    object      k;
}
// * * * * * * * * * * * * * * * * * * * * * * * * * * * * * * * * * * * * * //

dimensions      [0 2 -2 0 0 0 0];

internalField   nonuniform List<scalar> 
203709
(
0.004099364
0.00416707
0.004137605
0.003908501
0.004377691
0.005875961
0.005505199
0.004705309
0.004364351
0.004095519
0.00404831
0.003654768
0.003750495
0.004208243
0.004175733
0.004745857
0.00500172
0.004643458
0.004366795
0.004098438
0.003937465
0.003636008
0.003609019
0.003259066
0.003637554
0.003707541
0.003841685
0.003932514
0.004045488
0.004176192
0.004254236
0.004228977
0.004027064
0.003796268
0.003539414
0.003388753
0.003157498
0.002897845
0.003497905
0.003519018
0.003542826
0.003541955
0.003550946
0.003554657
0.003536729
0.003510715
0.003479366
0.003329346
0.003039718
0.002876315
0.002698736
0.002452903
0.003555865
0.003180293
0.003184725
0.003227302
0.003295824
0.003415694
0.003465651
0.003415438
0.003284692
0.003125653
0.002980474
0.002857242
0.002741767
0.002618676
0.002428055
0.002213232
0.003635641
0.003087404
0.002807986
0.002625134
0.00301148
0.003347165
0.003545344
0.003601934
0.00350894
0.003307552
0.003074254
0.00286793
0.002713698
0.002597397
0.00249388
0.002327193
0.004310298
0.00394642
0.00341359
0.003070086
0.002987684
0.003166451
0.003404709
0.003633278
0.003781746
0.003797882
0.003668588
0.003438934
0.003174941
0.002940502
0.002757813
0.002619981
0.002480528
0.002334264
0.004272841
0.004073199
0.003759227
0.003547574
0.00353473
0.003613399
0.003727648
0.003855027
0.003961188
0.004004927
0.003952947
0.003799101
0.003567052
0.003304332
0.00305829
0.002856044
0.002702892
0.002520916
0.004261705
0.004156139
0.003996975
0.003897131
0.003896976
0.003933656
0.003997134
0.004073555
0.004142063
0.004173378
0.004142867
0.004038282
0.003863925
0.003637355
0.003389268
0.003154309
0.002959341
0.00276471
0.004399469
0.004270902
0.004172986
0.00412389
0.004121222
0.004138808
0.004178761
0.004231965
0.004279167
0.00429669
0.00426659
0.004180851
0.004042258
0.003859317
0.003648387
0.003435808
0.003255318
0.003045621
0.004280532
0.004239248
0.004214317
0.004215737
0.004239487
0.004283363
0.004334558
0.004372175
0.004376913
0.004338635
0.004255696
0.004134544
0.003981778
0.003810912
0.003650024
0.003550416
0.004362624
0.00430968
0.004287811
0.004292374
0.004325083
0.004373545
0.00441833
0.004439759
0.004424492
0.004370717
0.004282835
0.004170857
0.004038897
0.003902932
0.003805783
0.003766291
0.004333322
0.004345289
0.004380048
0.004429713
0.00447575
0.004499558
0.004489845
0.00444457
0.004371697
0.004278914
0.004178421
0.0040665
0.003965411
0.003943898
0.00452138
0.004534062
0.004571996
0.004603499
0.004604279
0.004575334
0.004517835
0.004440661
0.004357548
0.004272796
0.004197791
0.004116265
0.00405647
0.004070283
0.004789233
0.004785725
0.004779782
0.004703934
0.004620218
0.004524087
0.004437188
0.004371871
0.004327351
0.004305558
0.004294142
0.00426215
0.004723166
0.004697583
0.004642842
0.004559188
0.004518727
0.004514833
0.004565989
0.004579328
0.00467887
0.004717669
0.004799017
0.004831217
0.004089305
0.0040759
0.004130911
0.004192808
0.004142306
0.003980982
0.003765733
0.003540209
0.003358508
0.003219322
0.003675061
0.004012835
0.004030715
0.004022281
0.004103921
0.004205081
0.004212451
0.004101499
0.003915341
0.003700771
0.003511464
0.003345861
0.003278151
0.00300956
0.003566768
0.003598204
0.003826421
0.003902402
0.003948795
0.00407429
0.004221392
0.004289381
0.004234729
0.004091833
0.003904452
0.003707943
0.003533089
0.003416816
0.003185957
0.002973467
0.00351966
0.003587862
0.003442618
0.003594983
0.003797716
0.00401966
0.004271609
0.004352105
0.004392932
0.004327366
0.004185169
0.004064682
0.003918715
0.003758506
0.003609016
0.003414969
0.003186294
0.002981948
0.003545704
0.003658562
0.003604269
0.00380969
0.004331209
0.004884585
0.006808957
0.008034021
0.006503069
0.005699396
0.005080018
0.004552132
0.004381786
0.004227268
0.003986298
0.003833489
0.003670896
0.00348162
0.003255957
0.003075457
0.003574545
0.003726349
0.003804725
0.004292307
0.005253294
0.007352741
0.009330877
0.01063091
0.01385356
0.01374359
0.01113187
0.00844968
0.006363977
0.005431274
0.004858123
0.004652508
0.004286444
0.00399075
0.00378964
0.003596538
0.003372338
0.003220649
0.003561522
0.003752938
0.004051333
0.0047288
0.005819753
0.007069436
0.00900599
0.01088948
0.01357367
0.01598511
0.01741614
0.0164281
0.01121716
0.008588624
0.006767889
0.005792473
0.004853598
0.004257489
0.004070406
0.003903242
0.003718342
0.003501503
0.003664668
0.003779169
0.00378597
0.004082185
0.004541933
0.004944148
0.005652913
0.006212523
0.00677087
0.007655269
0.009040621
0.01084724
0.012933
0.01437711
0.01366149
0.01154718
0.009840149
0.008291654
0.006278154
0.005491577
0.004737783
0.004141856
0.003671413
0.003295142
0.003702486
0.003814659
0.003829083
0.004021425
0.004368987
0.004456259
0.004775439
0.005048287
0.005417416
0.0059545
0.006544905
0.007084539
0.007562184
0.008063237
0.008535339
0.008917615
0.008850789
0.008282234
0.006866482
0.005647141
0.00444632
0.003674533
0.003215978
0.002821654
0.003774603
0.003865239
0.003938113
0.00408934
0.00431291
0.004043582
0.004076967
0.004168789
0.004591452
0.005133084
0.005705962
0.006237186
0.006561868
0.006538309
0.006175161
0.005675324
0.005212669
0.004767682
0.004267332
0.003613958
0.003082766
0.002843399
0.002654839
0.002382781
0.003847934
0.003921912
0.004028084
0.004230461
0.004315783
0.003988755
0.003787535
0.003613997
0.003688922
0.004054531
0.004541507
0.00506116
0.005505505
0.005757129
0.005720666
0.00539228
0.00486671
0.004269052
0.003680277
0.003032272
0.002629851
0.002666121
0.002528749
0.002299507
0.003907908
0.003969333
0.004082031
0.004202496
0.004251242
0.004015096
0.003762509
0.00354332
0.003469037
0.003591333
0.003846522
0.004161097
0.004467941
0.004713567
0.004853777
0.004841486
0.004651462
0.004294562
0.003805951
0.003297989
0.002849457
0.002729097
0.002573747
0.002369304
0.003952029
0.00399951
0.004098668
0.004166797
0.004205374
0.004065668
0.003843077
0.003636546
0.003527467
0.003539377
0.003641049
0.003786956
0.003933383
0.004053978
0.004136147
0.004168217
0.004131168
0.003994221
0.003714242
0.003324167
0.002997254
0.002849352
0.002688425
0.002510674
0.003982412
0.004010002
0.004085559
0.004129855
0.004171498
0.004114022
0.003963998
0.003820189
0.003731359
0.003703516
0.003719172
0.00375207
0.003779184
0.00378915
0.003780538
0.003755623
0.003712144
0.003629663
0.0034472
0.003158109
0.003059612
0.002943401
0.002814944
0.002680358
0.004007257
0.004005443
0.004050965
0.004098321
0.004214654
0.004233793
0.004179915
0.004096357
0.004015679
0.003955911
0.003913296
0.003873644
0.003824597
0.00376191
0.003689639
0.003614812
0.003540733
0.003452891
0.003284171
0.003093339
0.003067694
0.003010173
0.002933248
0.002850069
0.004052575
0.004007006
0.004015
0.004058348
0.004193034
0.004269362
0.004278054
0.004246207
0.004208635
0.004172477
0.0041254
0.004057344
0.00396994
0.003869666
0.003765652
0.003669517
0.003583706
0.003493943
0.003319569
0.003181289
0.003187327
0.003146866
0.003085726
0.003026822
0.004157943
0.004109253
0.00405095
0.004049428
0.004086434
0.004306193
0.004406526
0.004458249
0.004467122
0.00444474
0.004386211
0.004293586
0.004184038
0.00406997
0.003961986
0.003877559
0.003803775
0.00373164
0.003581512
0.003543796
0.003477695
0.003410053
0.003325863
0.003232557
0.004408241
0.00427771
0.004226178
0.004253803
0.00446241
0.004603107
0.004705925
0.004742046
0.004716997
0.004639625
0.00453148
0.004425178
0.004331011
0.004253501
0.004224977
0.004184998
0.00417436
0.004048145
0.004004288
0.003966839
0.003863504
0.003698865
0.004461024
0.004537611
0.004527639
0.004580748
0.004658286
0.004816521
0.004897399
0.00493693
0.004907066
0.00481677
0.004728935
0.004674346
0.004643756
0.004628952
0.004710781
0.004702762
0.004737806
0.004733276
0.004753215
0.004782447
0.004611898
0.004155774
0.004568542
0.004766232
0.004748428
0.004727204
0.004704183
0.004689719
0.0047725
0.00483406
0.004853206
0.004889642
0.00494249
0.005030261
0.005101107
0.005241803
0.005349872
0.00545946
0.005720409
0.006007406
0.006088119
0.00565801
0.004337854
0.004536458
0.004494078
0.004462476
0.004482105
0.004527972
0.004629115
0.004858728
0.005123554
0.005341229
0.005516641
0.005699847
0.005952675
0.006384523
0.006807171
0.007331145
0.0076816
0.007400117
0.004135546
0.004302637
0.004346107
0.004499592
0.004640082
0.004864112
0.005192079
0.005589488
0.005951192
0.006267247
0.006660467
0.007271939
0.007989287
0.008455016
0.009037847
0.009011869
0.004187626
0.004519168
0.004924537
0.00514442
0.005530905
0.006026064
0.006535607
0.007004228
0.007490944
0.00808146
0.008810146
0.009628114
0.01002122
0.01034385
0.005482051
0.005918583
0.006466527
0.007098684
0.007677529
0.00819557
0.00877711
0.009456982
0.01019412
0.01087489
0.004149292
0.004062214
0.004012769
0.003880953
0.00368084
0.003461645
0.003248143
0.003085856
0.004011982
0.00433752
0.004346686
0.004185368
0.004124594
0.004085952
0.003952019
0.003746453
0.003520277
0.003299632
0.003126502
0.003014762
0.002752308
0.002567151
0.004058311
0.00402367
0.004314232
0.004371126
0.004245166
0.004224462
0.00421095
0.004083447
0.003871598
0.003636411
0.003410841
0.003245046
0.003158856
0.002913383
0.002723186
0.002542885
0.003788456
0.004010277
0.004060858
0.004020943
0.004316031
0.004238524
0.004172133
0.00419971
0.004231053
0.004134001
0.003929691
0.003687627
0.00345121
0.003281276
0.003194311
0.003100744
0.002909439
0.002778827
0.002371464
0.001883823
0.003662522
0.003739992
0.003912256
0.0040084
0.003876683
0.004244089
0.00422149
0.00422868
0.00428938
0.004356886
0.00430156
0.004117279
0.003870637
0.003616012
0.003431152
0.003312937
0.00327685
0.003078438
0.002971876
0.002654111
0.002111946
0.001622038
0.003576194
0.003608526
0.003643435
0.003835078
0.003889254
0.003900863
0.004475001
0.004517685
0.004539576
0.004572519
0.004608156
0.004555351
0.004385286
0.004139129
0.003864142
0.00364941
0.003502569
0.003475707
0.003297151
0.003275786
0.002935541
0.00252393
0.002063936
0.001624715
0.003509386
0.003514305
0.003586509
0.003857406
0.004150448
0.004560155
0.005591689
0.005867258
0.005886804
0.005700127
0.005444981
0.005161202
0.00485971
0.004535595
0.004224083
0.003977361
0.003801897
0.003741213
0.003616819
0.003534001
0.003376024
0.002954521
0.002606088
0.002130529
0.003560467
0.003544297
0.003489393
0.003790168
0.004405011
0.005347152
0.006575598
0.008260863
0.00922949
0.009854204
0.009639972
0.00855228
0.007292466
0.006290239
0.005505302
0.004953962
0.004545537
0.004279176
0.004134441
0.003996022
0.003867625
0.003606147
0.003315458
0.003062615
0.00271249
0.002389748
0.003360816
0.003586244
0.003526892
0.00367737
0.00435906
0.005675115
0.007385873
0.009394257
0.0117603
0.01391528
0.01595098
0.01768338
0.01718776
0.01391684
0.01077293
0.008142944
0.006623728
0.0056856
0.005150035
0.004779298
0.004522948
0.004299973
0.004029058
0.003581684
0.003182957
0.003074921
0.002862266
0.002626768
0.003403635
0.003536856
0.003538593
0.004003782
0.005187066
0.006867317
0.008528407
0.01015137
0.01191802
0.0140533
0.01661119
0.01971548
0.02243255
0.02347242
0.02142056
0.01493409
0.01111584
0.008521848
0.007024135
0.006031285
0.005328937
0.0048975
0.004579068
0.004201471
0.003549939
0.003439165
0.003250296
0.00305835
0.003499948
0.003554056
0.003665927
0.004269142
0.005713769
0.007322853
0.008124124
0.008457708
0.008742295
0.009032775
0.009609648
0.0107324
0.01264625
0.01532804
0.01823095
0.01983934
0.01859054
0.01529238
0.01260361
0.01050389
0.008690629
0.007708973
0.006833458
0.0059777
0.004771748
0.00390156
0.003598038
0.003305936
0.00351491
0.003615055
0.003610266
0.003774592
0.00435675
0.005714072
0.007205487
0.007349782
0.006856858
0.006512667
0.006370325
0.006613351
0.007199975
0.008037793
0.008920918
0.009827682
0.0108002
0.01167435
0.01226321
0.01221687
0.0113423
0.009932675
0.008696524
0.007610216
0.006717948
0.005753817
0.004364949
0.003990059
0.003593875
0.003181546
0.00360294
0.00360571
0.003642178
0.003855495
0.004366109
0.005474107
0.006687324
0.006711269
0.005878187
0.005251288
0.00502776
0.00532013
0.005879853
0.006607074
0.00734146
0.007882445
0.008040182
0.007774481
0.007312332
0.006879854
0.006429026
0.005982332
0.005479675
0.005076635
0.004794668
0.004412521
0.003591895
0.003439826
0.003175744
0.002798288
0.003726296
0.003652042
0.003682485
0.00391371
0.004343318
0.005179701
0.00609548
0.006110615
0.00540644
0.004705734
0.004204244
0.004071899
0.004429865
0.005000116
0.005646266
0.006240916
0.00664585
0.006724619
0.006452629
0.005913681
0.005261759
0.004643726
0.004126781
0.003772534
0.003584015
0.003314824
0.002827317
0.002811689
0.002623768
0.002295596
0.003891015
0.003748837
0.003746274
0.003964414
0.004320936
0.004927254
0.005577022
0.005648812
0.005165728
0.004590479
0.004073351
0.003788552
0.003827606
0.004080227
0.004438022
0.004811344
0.005134844
0.005351283
0.005407265
0.005261524
0.004920101
0.004443308
0.003962994
0.003582287
0.003302357
0.002997311
0.002555041
0.002541477
0.002362469
0.00205671
0.004074066
0.00388288
0.003836823
0.004016093
0.004309664
0.004750958
0.005205195
0.005332454
0.005075353
0.004661807
0.004221181
0.003913568
0.003797795
0.003840612
0.003977723
0.004143715
0.00429269
0.004400397
0.004454821
0.004438481
0.004327174
0.004096361
0.003788514
0.003526397
0.003294583
0.003016818
0.002588618
0.002542802
0.002351066
0.002045644
0.004243878
0.004034755
0.003950274
0.004071256
0.004304354
0.00463662
0.004974268
0.00513922
0.005055846
0.004792576
0.004476509
0.004209718
0.004046882
0.003986235
0.003990935
0.004017172
0.004032736
0.004023572
0.00398938
0.003933683
0.003851263
0.003711723
0.003527113
0.003414621
0.003292449
0.003087274
0.002720381
0.002670344
0.002473462
0.002167891
0.004412228
0.004207191
0.004090655
0.004139656
0.004304397
0.004554507
0.004831875
0.005032125
0.005072743
0.00494461
0.00475047
0.004547618
0.004396713
0.004304946
0.004248242
0.004196642
0.004130273
0.004044459
0.003944052
0.003838777
0.003731751
0.00359365
0.003464384
0.003430117
0.003381318
0.003215946
0.002911685
0.002873881
0.002675517
0.002379981
0.004491811
0.004483001
0.004315043
0.00425664
0.004330408
0.004499773
0.004727309
0.004940421
0.005051549
0.005034893
0.004945271
0.00484888
0.004773669
0.004712997
0.004645596
0.004557906
0.004447704
0.004322515
0.004191678
0.004068033
0.003957077
0.003823437
0.003761525
0.003769374
0.003741358
0.003535471
0.003244608
0.003174066
0.002941966
0.002643091
0.004860078
0.004672042
0.004535714
0.00447798
0.004532405
0.004671318
0.004849278
0.005008121
0.005125081
0.005187679
0.005241675
0.005259789
0.005230742
0.005153005
0.005040845
0.004910483
0.004778557
0.004653931
0.004553223
0.004486572
0.00441303
0.004465866
0.004518374
0.004461017
0.004129276
0.003820228
0.003593201
0.003295977
0.004731758
0.00478465
0.004848665
0.004877432
0.004904349
0.004997488
0.005173831
0.005417954
0.005618583
0.005754012
0.005828641
0.005837863
0.005778614
0.005673067
0.005554348
0.005440431
0.005346008
0.005273785
0.005255244
0.00531948
0.005378086
0.005526639
0.005614537
0.005485127
0.004912883
0.004562901
0.004086857
0.003649771
0.004117315
0.004554805
0.004740379
0.004944478
0.005129711
0.005336682
0.005573693
0.005799095
0.005995797
0.006124241
0.006174194
0.006167699
0.006120151
0.006061728
0.006012583
0.005978531
0.00597586
0.006009648
0.006140872
0.00643721
0.006622112
0.006876268
0.006943829
0.006690642
0.006056105
0.005228939
0.004562339
0.004015994
0.004237794
0.00466896
0.00478444
0.005062499
0.005358578
0.005595841
0.005791718
0.005951571
0.00605294
0.006122845
0.006168274
0.006224799
0.006318436
0.00642308
0.006524554
0.006656548
0.006863351
0.007165386
0.007720381
0.007900351
0.008261729
0.008271063
0.007660345
0.006794065
0.00586065
0.005116078
0.004069749
0.004255881
0.004382981
0.004729128
0.00507645
0.00530856
0.005547932
0.005718635
0.005886213
0.006072878
0.00632626
0.006596424
0.006859153
0.007144862
0.007440695
0.007848978
0.008324064
0.009029559
0.009148866
0.009629632
0.009457339
0.008648286
0.007672056
0.00657795
0.00354528
0.003830137
0.003942645
0.004089819
0.004516418
0.004823966
0.005220289
0.005518716
0.005850958
0.006224622
0.006662892
0.00710347
0.007512503
0.007945399
0.008421654
0.008995306
0.009620391
0.01037721
0.01044797
0.01086439
0.01078662
0.009639526
0.008558506
0.007424206
0.003462894
0.003713947
0.003937557
0.004223036
0.004581391
0.005236176
0.005713663
0.006187962
0.006729654
0.007345311
0.007917746
0.008417313
0.008956102
0.009569994
0.01027006
0.0109253
0.01159181
0.01160703
0.0122191
0.01172715
0.01055238
0.009401144
0.003585638
0.00406157
0.004469218
0.004773628
0.005603712
0.006248247
0.006842477
0.007508191
0.008243148
0.008863808
0.009394676
0.009992942
0.01067957
0.01140754
0.01205057
0.01266873
0.01268628
0.01294545
0.01259291
0.0112155
0.004848789
0.005370353
0.006360683
0.007206657
0.007700972
0.00843073
0.009204073
0.009815762
0.01034994
0.01097396
0.01169631
0.0124589
0.01308666
0.01316953
0.01319284
0.01329891
0.006038666
0.007247238
0.008058095
0.008469783
0.009185197
0.009937092
0.01051451
0.01100504
0.01157713
0.01224543
0.01297163
0.01365537
0.01361783
0.0133762
0.009019456
0.009757711
0.01050608
0.01106274
0.01150611
0.01201751
0.01261745
0.01326432
0.003947952
0.00388564
0.003806286
0.003645771
0.003472438
0.003334963
0.003939682
0.004304503
0.004288532
0.004334313
0.004148786
0.004039776
0.003916021
0.003721865
0.003518364
0.003349262
0.003147441
0.002825555
0.00255862
0.00242762
0.003800628
0.004138261
0.004175048
0.004476582
0.004454497
0.004238372
0.004128393
0.004058222
0.003905199
0.003682158
0.003444175
0.00321667
0.003014383
0.002886467
0.002654687
0.002509288
0.002327006
0.002129243
0.003907639
0.004016826
0.004286906
0.004144606
0.00449077
0.004503991
0.004308613
0.004303334
0.004229772
0.004035623
0.003772964
0.003503257
0.003255989
0.003053409
0.002947125
0.00271604
0.002533736
0.002404565
0.002141473
0.001866073
0.003863337
0.004124451
0.004206692
0.0042854
0.004224731
0.004637288
0.004686691
0.004518627
0.004523563
0.004466673
0.00425192
0.003953975
0.00365536
0.003397929
0.003222663
0.003151356
0.002937013
0.002715721
0.002517396
0.002213948
0.001894209
0.001641027
0.003843402
0.004070794
0.004037664
0.004238495
0.004343684
0.004390163
0.004760642
0.004850853
0.004720824
0.004748176
0.004744831
0.004555212
0.004238545
0.003907152
0.003627758
0.003459345
0.003423014
0.003234054
0.003011607
0.002779875
0.002365193
0.001912987
0.001693277
0.001533641
0.00367576
0.004043587
0.003983412
0.004024512
0.004294608
0.004424512
0.004484571
0.004836765
0.004979242
0.004898966
0.004952822
0.005015583
0.004897872
0.004606818
0.00425672
0.003941022
0.003747891
0.003731695
0.003588778
0.003368752
0.003169247
0.002734704
0.00215999
0.001840418
0.001615091
0.001460243
0.003456334
0.003832118
0.003901289
0.003929712
0.004032824
0.004286598
0.004449449
0.004549165
0.004984392
0.005245977
0.005235908
0.005282655
0.005348306
0.005276606
0.005027541
0.004677881
0.00433111
0.004117814
0.004106419
0.004042195
0.00385139
0.003681914
0.003327644
0.002714959
0.002341224
0.002186962
0.001509324
0.001340669
0.003300138
0.003607497
0.003865769
0.003907721
0.003938091
0.004017505
0.004303146
0.004598384
0.005001593
0.005877128
0.006450935
0.00656083
0.006484193
0.006327681
0.00607265
0.005722023
0.005310785
0.004909013
0.00461687
0.004512168
0.004447802
0.004313916
0.004150615
0.003865669
0.003397241
0.002946067
0.002499606
0.002059712
0.001555455
0.00123205
0.003426075
0.003651359
0.003886425
0.00394613
0.003969158
0.00408559
0.004600589
0.005470638
0.006762492
0.008607453
0.009966538
0.0105985
0.01043925
0.009569731
0.00839676
0.007366301
0.006495419
0.00582078
0.005325561
0.005046415
0.00487639
0.004722797
0.004561766
0.004278174
0.003859154
0.00352812
0.00304858
0.002942333
0.002576993
0.001851137
0.003210294
0.00350403
0.003641094
0.003939993
0.004047643
0.00408574
0.004413877
0.005647353
0.00763202
0.01019974
0.01314594
0.01576376
0.01795685
0.01933205
0.01870469
0.01559324
0.01243376
0.009626078
0.007841863
0.006701654
0.006012407
0.005561846
0.005250997
0.004992904
0.004693204
0.004252459
0.003756608
0.003452644
0.003110454
0.002780141
0.002629184
0.002272859
0.003480843
0.00357543
0.003742005
0.004062149
0.004196013
0.004311651
0.005135039
0.007305779
0.009866148
0.01248539
0.01498915
0.01750092
0.02037071
0.02357126
0.02625251
0.02696174
0.02441086
0.01768325
0.01326898
0.01018135
0.008299963
0.007102306
0.006288476
0.005725101
0.005296445
0.004846434
0.004230486
0.00379399
0.003421046
0.002951727
0.002836387
0.002662111
0.00371759
0.003733741
0.00392203
0.004230573
0.004406339
0.004634938
0.005917939
0.008524901
0.01033736
0.01128148
0.01158054
0.01173685
0.01229982
0.01358586
0.01573527
0.01879498
0.02194243
0.02349867
0.02195755
0.01803983
0.01476492
0.01226295
0.01039664
0.009164286
0.008137245
0.007133179
0.00600904
0.004902902
0.004097893
0.003301668
0.003116089
0.002878823
0.003957909
0.003828639
0.004015808
0.004352905
0.004614064
0.004946809
0.006376897
0.008856385
0.009730297
0.009191056
0.008303764
0.007695327
0.0076888
0.008190647
0.009200506
0.01033891
0.01155118
0.01282061
0.01389658
0.01452907
0.01445341
0.0133818
0.01205449
0.01081039
0.009703707
0.008675281
0.007594501
0.00631977
0.005425436
0.004368532
0.003591504
0.003252879
0.003962966
0.004121715
0.004005491
0.004159949
0.00446839
0.004784877
0.005173593
0.006461756
0.008499624
0.009035938
0.007770484
0.0064763
0.005826698
0.0059715
0.006516095
0.007358165
0.008234688
0.008922358
0.009207782
0.009023122
0.008599659
0.008192652
0.007746934
0.007355338
0.006952991
0.006627689
0.006325269
0.005942115
0.005375061
0.005089342
0.004688889
0.003799674
0.003637881
0.003193011
0.004239159
0.004228368
0.004172868
0.004295808
0.004570124
0.004912616
0.005323859
0.006329737
0.007814715
0.008196744
0.007090197
0.005765693
0.004866234
0.004533466
0.004902776
0.00555521
0.006301612
0.006998834
0.007487703
0.007612345
0.00734832
0.006787949
0.006102534
0.005477493
0.004998531
0.004678744
0.004448467
0.004212095
0.003938459
0.003887996
0.003697148
0.00312274
0.003168003
0.00277374
0.004506092
0.004468414
0.00439098
0.004455511
0.00467426
0.005007095
0.005418027
0.006158731
0.007138943
0.007428524
0.006722413
0.005688851
0.004836647
0.004350781
0.004318275
0.004574488
0.00497747
0.005410166
0.005778474
0.006007962
0.00604767
0.005871554
0.005500469
0.005017147
0.004547755
0.004171523
0.00385346
0.003548652
0.00324562
0.003135753
0.002886369
0.002467107
0.002488237
0.002055442
0.004615228
0.004673331
0.004613746
0.004640403
0.004793095
0.005082343
0.005465617
0.006019341
0.006658557
0.006881937
0.006519345
0.005848261
0.005163582
0.004664381
0.004423216
0.00441198
0.004550635
0.004744596
0.004912744
0.005007341
0.005013914
0.00493278
0.004766213
0.00452031
0.004237997
0.003981942
0.003721349
0.003422213
0.003084857
0.002914474
0.002622822
0.002232496
0.002116359
0.001714524
0.004601243
0.004811602
0.004807975
0.004839768
0.004934671
0.005154677
0.005480117
0.005910705
0.006363284
0.006573562
0.006434667
0.006056916
0.005566946
0.005136737
0.004847206
0.004720963
0.004712598
0.004747738
0.004759349
0.004711847
0.004603658
0.004455416
0.004289595
0.004112934
0.003946518
0.003823164
0.003674211
0.003437295
0.00311725
0.00292434
0.00263026
0.002271454
0.002018307
0.001685094
0.004487886
0.005075652
0.005035877
0.005078469
0.005124105
0.005253404
0.005486396
0.005816774
0.006175222
0.006408977
0.006420619
0.006250525
0.00596191
0.00564924
0.005417547
0.005291526
0.005229165
0.005168269
0.00506282
0.004898599
0.004688259
0.004463773
0.004254204
0.004068162
0.003940386
0.003881554
0.003786246
0.003570469
0.003257549
0.003034155
0.002710521
0.002418145
0.002075896
0.001773043
0.005235465
0.005241868
0.005298434
0.005372313
0.005424132
0.005536061
0.005748902
0.00603185
0.006275796
0.00638477
0.006369742
0.00628912
0.006188395
0.006119852
0.006067235
0.00598586
0.005842252
0.005629866
0.005365491
0.005077703
0.00481207
0.004592362
0.004419058
0.004348828
0.004332046
0.004217072
0.003935302
0.00356701
0.003268936
0.002858664
0.002620822
0.002255229
0.004760817
0.005218178
0.005585729
0.005846489
0.005922022
0.005917692
0.005963815
0.006116684
0.006316046
0.006498267
0.006705608
0.00689649
0.007028932
0.007080849
0.007024949
0.006854668
0.006592823
0.006276277
0.005941454
0.005622617
0.005387585
0.005231969
0.005142712
0.005195615
0.005222352
0.005004477
0.004573253
0.004080938
0.003658301
0.003139978
0.002870373
0.002491714
0.004139342
0.004746065
0.005202058
0.005763405
0.006184304
0.006452775
0.006604902
0.006796218
0.007071619
0.007432114
0.007741291
0.007991139
0.008102596
0.008044385
0.007833846
0.007521251
0.007168482
0.006819373
0.006498796
0.006242051
0.00616578
0.006177642
0.006246014
0.006457759
0.006487627
0.006058409
0.005427184
0.004742803
0.004182669
0.003554984
0.003164704
0.002731955
0.003586422
0.004335869
0.004643093
0.005159382
0.005748461
0.006294165
0.006786646
0.007263201
0.007698004
0.008060861
0.008344245
0.008502813
0.008491761
0.008315389
0.008039043
0.007740503
0.007468904
0.00723805
0.007054943
0.006987683
0.007226464
0.007465051
0.007691895
0.008043439
0.0079848
0.007243329
0.00639347
0.005447652
0.004798041
0.004099298
0.003449849
0.002981715
0.003817167
0.004265057
0.004735329
0.005248968
0.005783329
0.006280786
0.006787609
0.007253502
0.00761345
0.007860594
0.008016543
0.008013734
0.007902597
0.00779538
0.007741013
0.007722765
0.007728055
0.007773697
0.008005559
0.008638076
0.009023764
0.009325806
0.00974046
0.009526604
0.008454885
0.007371825
0.006211712
0.005453381
0.004533508
0.00377314
0.003295041
0.003754308
0.004103934
0.004508355
0.004972738
0.005401043
0.005887816
0.006340265
0.006664859
0.006964072
0.00727642
0.007364465
0.00744318
0.007662489
0.007952942
0.008228192
0.008489356
0.008782319
0.009336919
0.01026659
0.01065606
0.01097158
0.01133998
0.0109773
0.009670862
0.008382968
0.007042862
0.006138017
0.00494648
0.003965612
0.003169118
0.003618942
0.003883643
0.004223461
0.004585056
0.005078772
0.00553025
0.005824314
0.006330789
0.006919585
0.007088902
0.007423208
0.007995766
0.008570291
0.009052426
0.009512485
0.01001882
0.01082568
0.01182772
0.0121919
0.01250079
0.01276971
0.01225518
0.0107606
0.009353193
0.007990613
0.006703613
0.005414606
0.003181654
0.003584239
0.003781739
0.004077156
0.004647269
0.00509687
0.005399279
0.006224362
0.00708123
0.007301867
0.007916077
0.008759186
0.009466666
0.01003353
0.0106176
0.01128885
0.01221097
0.01319276
0.0135444
0.01365813
0.01375239
0.01315523
0.01157516
0.01023574
0.009044447
0.007500044
0.003338809
0.003618863
0.003915899
0.004559692
0.005128819
0.005518953
0.006692945
0.007669846
0.007947398
0.00879845
0.009772838
0.01049399
0.01107537
0.01172339
0.01246352
0.01331808
0.0141625
0.01432074
0.01417952
0.01420287
0.01365074
0.01219491
0.01118629
0.009664886
0.003683003
0.004211726
0.004741877
0.0054817
0.006008523
0.00741071
0.008351638
0.008711873
0.009675162
0.01062066
0.01127906
0.01182425
0.01244351
0.01312163
0.01383419
0.01458521
0.01454885
0.01416317
0.01439036
0.01392513
0.012949
0.0114356
0.004598764
0.005143274
0.006163326
0.006629011
0.00802175
0.008885405
0.009265343
0.01022182
0.01110049
0.01170621
0.01219033
0.01274158
0.01334475
0.01390681
0.01463036
0.01445197
0.01411152
0.01460249
0.0135435
0.01267334
0.005609191
0.006635189
0.007396349
0.008582461
0.009363395
0.009735882
0.01047169
0.01126638
0.01183196
0.01225033
0.01273976
0.01334364
0.01406543
0.01479201
0.01455353
0.01418151
0.01417815
0.0128951
0.007570756
0.008707175
0.009440914
0.01047663
0.0108428
0.0114837
0.01201927
0.01238596
0.01285652
0.01360224
0.01447698
0.01437717
0.01396187
0.01321789
0.01037904
0.01107407
0.01160215
0.0118904
0.0122305
0.01275044
0.003874486
0.003921352
0.004079213
0.003995714
0.003957378
0.003819839
0.003672207
0.003519739
0.003335164
0.003147056
0.003575373
0.003986882
0.004407106
0.004250551
0.004259246
0.004108288
0.004023077
0.003932037
0.003746971
0.003547787
0.00336173
0.003286295
0.003010661
0.002688785
0.002489024
0.00240104
0.003817936
0.004012249
0.004091041
0.004500547
0.004466523
0.004558163
0.004409952
0.004390409
0.004211399
0.003939536
0.003653315
0.003370934
0.003189481
0.00286771
0.002585414
0.002430381
0.002439492
0.002326935
0.00343519
0.004070359
0.00403625
0.004350602
0.004480696
0.005000335
0.005009731
0.005091942
0.004960979
0.004817944
0.004539581
0.004186893
0.003835329
0.003523307
0.003282968
0.002978384
0.002719932
0.002502062
0.002326116
0.002072072
0.001895661
0.001769896
0.003523595
0.003936212
0.004225457
0.004412764
0.004909127
0.005121162
0.005537576
0.005537848
0.005571992
0.005433744
0.005201112
0.004845417
0.004433562
0.00404953
0.003740432
0.003505409
0.003242654
0.003006061
0.002748464
0.002441288
0.002066066
0.001790902
0.001659138
0.001553082
0.003413576
0.004012463
0.004211606
0.00459533
0.004984755
0.00541999
0.005639837
0.005966071
0.005952264
0.005943361
0.005817813
0.005566987
0.005169491
0.004712429
0.004310807
0.004022473
0.003828125
0.003616757
0.003391615
0.003088199
0.002681198
0.002211304
0.001824589
0.001609543
0.001531546
0.00156632
0.003378171
0.00389619
0.004242598
0.004566715
0.005076754
0.00544785
0.00577806
0.005965019
0.006231617
0.006229155
0.006210978
0.006135835
0.005954354
0.005574801
0.005085224
0.004655131
0.004374865
0.004221619
0.004057677
0.003844816
0.00350963
0.003028659
0.002479501
0.002031365
0.001779283
0.001744082
0.001769558
0.001787174
0.003161211
0.003723481
0.004096595
0.004544278
0.004970308