/*--------------------------------*- C++ -*----------------------------------*\
  =========                 |
  \\      /  F ield         | OpenFOAM: The Open Source CFD Toolbox
   \\    /   O peration     | Website:  https://openfoam.org
    \\  /    A nd           | Version:  6
     \\/     M anipulation  |
\*---------------------------------------------------------------------------*/
FoamFile
{
    version     2.0;
    format      ascii;
    class       volScalarField;
    location    "49.8";
    object      k;
}
// * * * * * * * * * * * * * * * * * * * * * * * * * * * * * * * * * * * * * //

dimensions      [0 2 -2 0 0 0 0];

internalField   nonuniform List<scalar> 
203709
(
0.003399826
0.003323013
0.003248289
0.003219603
0.003684523
0.003743117
0.003615958
0.003511398
0.003426231
0.003358923
0.00333859
0.003307419
0.003571864
0.004013184
0.004168253
0.004009413
0.003859125
0.003728557
0.003624949
0.003545091
0.003494898
0.003443642
0.003446259
0.003372271
0.002104411
0.002972029
0.003361134
0.003855357
0.003912702
0.003884161
0.003822809
0.003748
0.003675553
0.003615139
0.003559854
0.003520107
0.003450504
0.003414695
0.002272035
0.002674187
0.002935076
0.003282785
0.003685602
0.003806343
0.003808534
0.003758204
0.003694163
0.003631619
0.003571639
0.003515995
0.003450868
0.003377273
0.002628019
0.002750679
0.002990541
0.003144537
0.003317214
0.003553147
0.003808323
0.003940904
0.003791066
0.003663976
0.003555607
0.003462568
0.003377169
0.003278354
0.003161304
0.003045766
0.002857448
0.002976886
0.003062981
0.003119188
0.003177504
0.003256067
0.003387311
0.003564431
0.003575635
0.003531036
0.003398651
0.003231974
0.003027602
0.002808798
0.002619501
0.002392891
0.00256619
0.002784656
0.002909542
0.002985334
0.003032389
0.003048275
0.003025858
0.002982861
0.002933443
0.002880105
0.002824553
0.002756415
0.002689593
0.002634159
0.002590904
0.002551168
0.00249372
0.002422124
0.002788247
0.002489431
0.00253403
0.002764941
0.002916686
0.002993083
0.002985384
0.002928914
0.002858701
0.002794666
0.002742864
0.002702429
0.002671578
0.002649188
0.002633561
0.002623667
0.002616784
0.002601802
0.003080313
0.002801731
0.002707794
0.002752155
0.002864702
0.002985441
0.003014574
0.002957913
0.002869064
0.002785831
0.002726403
0.002690014
0.002667525
0.002651754
0.002635753
0.002622258
0.002600492
0.002530865
0.003247687
0.003132332
0.003072814
0.003068251
0.003092103
0.003126748
0.003138066
0.003093464
0.002990088
0.002864358
0.002760068
0.002696653
0.002664268
0.002649438
0.002633282
0.002629697
0.002623877
0.002501774
0.003236761
0.003216453
0.003223981
0.003252307
0.003281968
0.003289437
0.003255067
0.003170573
0.003044597
0.002904277
0.002784002
0.002707167
0.00267256
0.002647914
0.002652603
0.002610693
0.003380014
0.003302267
0.003315697
0.003355171
0.003385941
0.003392771
0.003365142
0.003299262
0.00319668
0.003067581
0.002929388
0.002811484
0.002733864
0.002689066
0.002703013
0.002683992
0.00338095
0.003403848
0.003434338
0.003452164
0.003448734
0.003417144
0.003357995
0.003272888
0.003168438
0.003046794
0.002928368
0.002821823
0.002756186
0.002711111
0.003563361
0.003485525
0.003502753
0.00348322
0.003461761
0.003421407
0.003362067
0.003286228
0.00320544
0.003104617
0.003013412
0.002895686
0.00283375
0.002804777
0.003651709
0.003622968
0.00350004
0.0034715
0.003400869
0.003332783
0.003261815
0.003210184
0.003115553
0.003074738
0.002913679
0.00291549
0.003621963
0.003539661
0.003375021
0.003297783
0.003221052
0.003224617
0.003080505
0.003146839
0.003398332
0.00329307
0.003195761
0.003296244
0.003525777
0.003267926
0.003116718
0.002994445
0.00287056
0.002770204
0.002701323
0.002657695
0.002626251
0.002590888
0.003578533
0.003655878
0.003494523
0.003314506
0.003179478
0.003069695
0.002957258
0.002864172
0.002800659
0.002762321
0.002739492
0.002710495
0.002645682
0.002469844
0.003527265
0.003511859
0.003644994
0.003530573
0.003391931
0.003281322
0.003182807
0.003076207
0.002988291
0.002930466
0.002890026
0.00285848
0.002825632
0.002764832
0.00259913
0.002373856
0.003402828
0.003486381
0.003467244
0.003615158
0.003576292
0.003498859
0.003408505
0.003302144
0.003198667
0.003107609
0.003047537
0.003011217
0.002994024
0.00295503
0.002885424
0.002722359
0.002583128
0.002328286
0.003215637
0.003398744
0.003398325
0.003384007
0.00357606
0.003652748
0.00375423
0.003758224
0.003591471
0.00346337
0.003348117
0.003247608
0.00324274
0.003260298
0.00311198
0.003044529
0.002916615
0.002764456
0.002539116
0.002296134
0.003044719
0.003197377
0.003168771
0.003111261
0.003247656
0.00410569
0.00461815
0.004632405
0.004511463
0.004208762
0.00394142
0.003732628
0.003575961
0.003526197
0.003536095
0.003535849
0.003461208
0.003208444
0.003061131
0.002895793
0.002663412
0.002390473
0.002752841
0.002898959
0.002923237
0.003099214
0.004530597
0.006289056
0.007702773
0.00767266
0.006877494
0.005897156
0.00508634
0.004531195
0.004178471
0.003995477
0.003917915
0.003885966
0.003693392
0.003412211
0.003291746
0.003170178
0.003034941
0.002828638
0.002901062
0.0027866
0.002835525
0.003206934
0.003951711
0.005648358
0.008582052
0.01120413
0.01300188
0.01258133
0.01021772
0.007936033
0.00649995
0.005627411
0.005124705
0.004849584
0.004657965
0.004327895
0.003685481
0.003650309
0.003483782
0.003291413
0.0030243
0.002700947
0.002729705
0.002721297
0.003035206
0.003620562
0.004573897
0.005801813
0.008146119
0.01024871
0.01296724
0.01637986
0.0178119
0.01444366
0.0113979
0.009436505
0.008199484
0.00756321
0.007150666
0.006688418
0.005417864
0.004666669
0.004228283
0.003721804
0.003246698
0.002783983
0.002756355
0.002756609
0.003203141
0.003680554
0.004131372
0.005057029
0.005806255
0.006591092
0.007882632
0.009985325
0.01313692
0.01598149
0.0161492
0.01566255
0.0144173
0.01338086
0.01223618
0.01064642
0.008626528
0.006370036
0.004931334
0.003769029
0.00307635
0.002451344
0.00291777
0.002775514
0.003184151
0.004058229
0.004145041
0.004738831
0.005137976
0.005525139
0.00584458
0.006074629
0.006341462
0.006809524
0.007368026
0.007771105
0.007812765
0.00741335
0.006797295
0.006080504
0.005418618
0.004892147
0.003918991
0.002982743
0.002679747
0.002243796
0.003025686
0.002965081
0.00309002
0.003889377
0.004307441
0.005139005
0.005808892
0.006149218
0.006529019
0.00663185
0.006339497
0.005761018
0.005124398
0.004608725
0.004243419
0.003970808
0.00373847
0.003519039
0.003312043
0.003090877
0.002822317
0.00277241
0.002753912
0.002846219
0.003049703
0.003089864
0.003155112
0.003495834
0.003871763
0.004291634
0.00460688
0.005106102
0.005909013
0.006573178
0.006710123
0.006373533
0.005712654
0.004979216
0.004347607
0.00385979
0.003493817
0.00320021
0.002961689
0.002755368
0.002617185
0.002606238
0.002521669
0.002447501
0.003038499
0.003113619
0.003181577
0.003246307
0.00332304
0.003390968
0.003372466
0.00361056
0.004108264
0.004753377
0.00535805
0.005714969
0.005654406
0.005242466
0.004695074
0.004172994
0.003750643
0.003382339
0.00306805
0.002800854
0.002572994
0.002454459
0.002343389
0.002237329
0.003036843
0.003097658
0.003156748
0.003197363
0.003234477
0.003191552
0.003127234
0.003161097
0.003302824
0.003541514
0.003853115
0.004187951
0.004459654
0.00456437
0.004455375
0.004181322
0.003858382
0.003502031
0.003138839
0.002834849
0.002537236
0.002428368
0.002314092
0.002172689
0.003061777
0.003095116
0.00313683
0.00317722
0.003183115
0.00314887
0.003092846
0.003075046
0.003102786
0.003160357
0.003241798
0.003347084
0.003472805
0.003593592
0.003667205
0.003649785
0.003544821
0.003339701
0.003038254
0.002837104
0.002565865
0.002487543
0.002396771
0.002231658
0.003200128
0.003172662
0.003178288
0.003202538
0.003233073
0.003264362
0.003235668
0.00318745
0.003138943
0.003101813
0.003076105
0.003061593
0.003061701
0.003072752
0.00308869
0.003091288
0.003069818
0.002982485
0.00281373
0.002675639
0.00260928
0.002570554
0.002519911
0.002425315
0.003297612
0.003287688
0.003304534
0.003340601
0.003348282
0.003312894
0.003269715
0.003209402
0.003139357
0.00306665
0.002997195
0.002936644
0.002882197
0.002837932
0.002797797
0.002764631
0.002705962
0.002676737
0.002647116
0.002646193
0.00265586
0.002634301
0.003464522
0.003441777
0.003439444
0.003469948
0.003502456
0.003466241
0.003417852
0.0033385
0.00325324
0.003148392
0.003035359
0.002933774
0.002839297
0.002763802
0.002703854
0.002660539
0.002630487
0.002647845
0.002668019
0.002715059
0.002767041
0.002775877
0.003665136
0.003672607
0.003671493
0.003667695
0.00365267
0.003620645
0.003490454
0.00337701
0.003237498
0.00310002
0.002974127
0.002856184
0.002783895
0.002740615
0.002723573
0.002709403
0.002728089
0.002782886
0.002866947
0.002925586
0.003853621
0.003834353
0.003772204
0.003705158
0.00363154
0.003551455
0.003460517
0.003283933
0.003145401
0.003026003
0.002930398
0.002895618
0.002846974
0.002821254
0.002844132
0.00292193
0.003025379
0.003095395
0.00379274
0.003740695
0.003655478
0.003572944
0.003484908
0.003395068
0.003308372
0.003221248
0.00313935
0.003061452
0.003001099
0.002974795
0.003007248
0.003122826
0.003311506
0.00337469
0.003624767
0.003581608
0.003513667
0.003421217
0.003346105
0.003282255
0.003228997
0.003187692
0.003161215
0.003164397
0.003230618
0.003395538
0.003666687
0.003881173
0.003413036
0.003373832
0.003344734
0.003325125
0.003324359
0.003347617
0.003400507
0.003509473
0.003730107
0.003984375
0.003253958
0.003034764
0.002880725
0.002710785
0.00255336
0.002422118
0.002316685
0.002249089
0.003602343
0.003640478
0.003483021
0.003237073
0.003043341
0.002888315
0.002724363
0.002578522
0.002460722
0.002366421
0.00228857
0.002203108
0.002093411
0.002020404
0.003685821
0.003621846
0.003668368
0.00351237
0.00326414
0.003077772
0.002922594
0.002766185
0.002634434
0.002535389
0.002462979
0.002403644
0.002329245
0.002226274
0.002136976
0.002056635
0.003474162
0.00367807
0.003712297
0.003666785
0.003729178
0.003440134
0.003191613
0.003027827
0.00289117
0.002756219
0.002649614
0.002576258
0.002527831
0.002490894
0.002432313
0.00237768
0.002277368
0.00214933
0.001951645
0.001838559
0.00330215
0.003423042
0.003651269
0.003724107
0.003569832
0.003675756
0.003425772
0.003214207
0.003063595
0.002943201
0.002827365
0.002744075
0.002698614
0.002679812
0.00267823
0.002629505
0.002559936
0.00236976
0.002216059
0.001980602
0.001787252
0.001656978
0.003121844
0.003219623
0.00337219
0.003627902
0.003604806
0.003533374
0.003718774
0.003515131
0.003328224
0.00318846
0.00307925
0.002972684
0.002896857
0.002863762
0.002857102
0.002888254
0.002887718
0.002859883
0.002623014
0.002389411
0.002035052
0.001752518
0.001519864
0.001457334
0.003021283
0.003137786
0.003329043
0.00351508
0.003603286
0.00361636
0.003862221
0.003742974
0.003588638
0.003448766
0.003333603
0.003215074
0.003125367
0.00308362
0.003072588
0.003130941
0.003188261
0.003268718
0.003105884
0.00293517
0.002636512
0.001921695
0.001753317
0.001655751
0.002926128
0.002966652
0.003085587
0.003310161
0.003629108
0.003882347
0.004006543
0.004335526
0.004317032
0.004195998
0.004011046
0.00381834
0.003637353
0.003495289
0.00341372
0.003391221
0.003446274
0.00352553
0.00365974
0.003616844
0.003535252
0.003251144
0.0027123
0.002383989
0.001995137
0.001595105
0.002677067
0.002874053
0.002912318
0.003172835
0.003592472
0.00423003
0.004813922
0.005234336
0.005868887
0.006001401
0.005803409
0.005414444
0.004950536
0.004508379
0.004169258
0.00395866
0.003861838
0.003854753
0.003910448
0.003975924
0.00397005
0.003881009
0.003611627
0.003056289
0.002623528
0.002459289
0.001848151
0.001267736
0.00261282
0.00280898
0.00293046
0.003538473
0.004331184
0.005319475
0.00635451
0.007563539
0.009102657
0.009983179
0.009794694
0.00877939
0.007519749
0.006384242
0.00553735
0.004983006
0.00466376
0.004510091
0.004452928
0.004357398
0.004142486
0.003959962
0.003713106
0.003401386
0.002935755
0.002769177
0.00234029
0.001566749
0.002588845
0.002775356
0.003242737
0.004138745
0.005291023
0.006590239
0.008010278
0.009989874
0.01281621
0.01546282
0.01702495
0.01619009
0.01352563
0.01068581
0.008659271
0.007327199
0.006503048
0.00601761
0.005695927
0.005344374
0.004766347
0.004383128
0.00402073
0.003654219
0.003204513
0.002894686
0.002617676
0.00195572
0.002540798
0.002608096
0.002757667
0.003482965
0.004731178
0.005935967
0.00699737
0.008213089
0.00999316
0.01253232
0.01539453
0.01890729
0.02259648
0.02363384
0.01972817
0.01586728
0.01316999
0.01135949
0.01033152
0.009655455
0.009119571
0.00817724
0.006951463
0.005836597
0.004754293
0.003815194
0.002976142
0.002575496
0.002059476
0.001474862
0.002534934
0.002582679
0.002734922
0.003488223
0.005081066
0.006029774
0.006398301
0.006810776
0.007500277
0.00820887
0.009211755
0.01103207
0.01406793
0.01824373
0.02168703
0.02210464
0.02141195
0.01986227
0.01832229
0.0167458
0.01464918
0.01220624
0.009695773
0.007948745
0.006250168
0.004656075
0.002983514
0.002524807
0.002243262
0.001944672
0.002564953
0.002579339
0.00271142
0.003317341
0.00490502
0.00597802
0.006058908
0.00596795
0.006200924
0.006471943
0.006874374
0.007381658
0.007849349
0.008387905
0.009125667
0.009901076
0.01042928
0.01049735
0.01001856
0.009285461
0.008456188
0.007703295
0.007077791
0.00644151
0.005864665
0.005302625
0.004058341
0.003177271
0.002799539
0.002300573
0.002625487
0.002605369
0.002702158
0.00312842
0.004377291
0.005478225
0.005831735
0.005853227
0.00654684
0.007203077
0.007613055
0.008053489
0.008282361
0.008065333
0.007458909
0.006713139
0.006065546
0.005598161
0.005263591
0.005010241
0.004806381
0.0046605
0.004569346
0.004466174
0.004380012
0.004236419
0.003788895
0.002817509
0.002324395
0.001665697
0.002708753
0.00266131
0.00272016
0.003005441
0.003850597
0.004717825
0.005183388
0.005359242
0.005658257
0.005938164
0.006325491
0.007123846
0.007936563
0.008227676
0.007952798
0.007228454
0.006337701
0.005531359
0.004904434
0.004459796
0.004146255
0.003929195
0.003755827
0.003552825
0.003337824
0.003069251
0.002713981
0.002316739
0.001992616
0.001698199
0.00280312
0.002740654
0.002769671
0.002960968
0.003484616
0.004074921
0.004453391
0.00462376
0.004645377
0.004428169
0.004358109
0.004739528
0.005412316
0.006132543
0.006636527
0.006688225
0.006300108
0.005691299
0.005073145
0.004563965
0.004162648
0.003861086
0.003624686
0.003414076
0.003211249
0.002939787
0.002541748
0.002056233
0.001814661
0.001581085
0.002884218
0.002827049
0.002842466
0.002972851
0.003289488
0.003657951
0.003918243
0.004019712
0.003942005
0.00371951
0.003581789
0.003625316
0.003837044
0.004171914
0.004558327
0.004894483
0.005062887
0.00500143
0.004750999
0.004424059
0.004077757
0.003744149
0.00345794
0.003247289
0.003112314
0.00291788
0.002591819
0.002062157
0.001832042
0.001549234
0.002966947
0.002943649
0.0029386
0.003011511
0.003207125
0.003443473
0.003622584
0.003694404
0.003627101
0.003480214
0.003380771
0.003346126
0.003370302
0.003438163
0.003538998
0.003664809
0.003793104
0.003884923
0.003900531
0.003835463
0.003690612
0.003462332
0.003214434
0.003010748
0.002921394
0.002796235
0.002624203
0.002189183
0.001951755
0.00169962
0.003183982
0.003111697
0.003105553
0.003185954
0.003341549
0.003478681
0.003554624
0.00355642
0.00350704
0.003433644
0.003377232
0.003325583
0.003278702
0.003239452
0.003215846
0.003210561
0.00322117
0.00323572
0.003244967
0.003222933
0.003125567
0.002965019
0.002832221
0.002783847
0.002702889
0.002636798
0.002364655
0.00211099
0.003406415
0.003309381
0.003317562
0.003340294
0.00342532
0.003525949
0.003612016
0.003669335
0.003669366
0.003617073
0.003527362
0.003421128
0.003312844
0.003208371
0.003118787
0.003046963
0.002996703
0.002965364
0.002958533
0.002955503
0.002922041
0.002840843
0.002783965
0.002781356
0.0027357
0.00271916
0.002562499
0.002349877
0.00343691
0.00345398
0.003460455
0.003454539
0.003497812
0.003581315
0.003670976
0.003738739
0.003762872
0.003734312
0.003655718
0.003535224
0.003396184
0.003267288
0.003154089
0.003055922
0.002982866
0.002930988
0.002917095
0.002924285
0.002918973
0.002898838
0.002913655
0.002954465
0.00294651
0.002939103
0.002783532
0.002581676
0.003608366
0.003693123
0.003740975
0.003741576
0.003783936
0.003857864
0.003898269
0.003889882
0.003837846
0.003744975
0.003619283
0.003472786
0.003336254
0.003223965
0.003121461
0.003053407
0.003014649
0.003014273
0.003054986
0.003091707
0.003151826
0.003245793
0.003298991
0.003396772
0.003249713
0.003054724
0.003881585
0.003885844
0.003929442
0.003939084
0.003969658
0.003967139
0.003920807
0.003837099
0.003729398
0.003612555
0.003492335
0.003375112
0.003281313
0.003209538
0.003168827
0.003166267
0.003200063
0.003319507
0.003444034
0.003617317
0.0037469
0.00393706
0.003835154
0.003644737
0.003673468
0.003776528
0.003799617
0.003835871
0.003848203
0.003846603
0.003815277
0.003739518
0.003652332
0.003563959
0.003479884
0.003402424
0.003347966
0.003321338
0.003326423
0.003384725
0.003517562
0.003791543
0.004027652
0.004268009
0.004587141
0.004546622
0.004382378
0.004081939
0.003587731
0.003677382
0.00367095
0.003703346
0.003668993
0.003652396
0.003608081
0.003566086
0.003517474
0.003474701
0.003452831
0.003458966
0.003495189
0.003579453
0.003763181
0.00408287
0.00456525
0.004819125
0.00530726
0.005372964
0.005275564
0.004940439
0.003382376
0.003456063
0.003561863
0.003516462
0.003475825
0.003454171
0.00346216
0.003462994
0.003483586
0.003544321
0.003645608
0.003790424
0.004023626
0.004424481
0.004896864
0.005735475
0.005924912
0.006191049
0.006247411
0.005922477
0.003294428
0.003320649
0.003308938
0.003371292
0.003431035
0.003480721
0.003581122
0.003751761
0.003977506
0.004264106
0.004704655
0.005421006
0.00613032
0.006745367
0.006922098
0.006938496
0.003112498
0.003260664
0.00345962
0.00360518
0.003725872
0.003949024
0.004270826
0.004638032
0.005065761
0.005705994
0.00667827
0.007414344
0.007941874
0.007618241
0.003889311
0.004171147
0.004551669
0.005039109
0.005527356
0.006066825
0.006843023
0.007784562
0.003010652
0.002858556
0.002707596
0.002547586
0.002418974
0.00234978
0.003442122
0.003521712
0.003437688
0.003331606
0.003084935
0.002904152
0.002727242
0.002555065
0.002414183
0.002304541
0.002155657
0.002021131
0.001931031
0.001907152
0.003390026
0.003600087
0.003607379
0.003667176
0.003577961
0.003225111
0.003031452
0.002868135
0.002681751
0.002506597
0.002357469
0.0022269
0.002110278
0.002051843
0.001947425
0.001853752
0.001755104
0.001684981
0.003462385
0.003522764
0.003738191
0.00360309
0.003703416
0.003578887
0.003262972
0.00309346
0.002907318
0.002711426
0.002543434
0.002407984
0.002292726
0.002187821
0.002099289
0.001973082
0.001868564
0.001805762
0.001718651
0.001667494
0.003383049
0.003588957
0.003683004
0.003770628
0.003718398
0.003865688
0.003699128
0.003378746
0.003169067
0.002968357
0.002780764
0.002637279
0.002534847
0.002457807
0.002389715
0.002303116
0.002165236
0.002027209
0.001912215
0.001829416
0.001748992
0.001689052
0.003306511
0.003465453
0.003533024
0.003768636
0.00386902
0.003923886
0.004027768
0.00382286
0.003488364
0.003254563
0.003056943
0.002894069
0.002789934
0.002735163
0.002709367
0.002685396
0.002609945
0.002456501
0.002274308
0.002069065
0.001880494
0.001734921
0.001684126
0.00158915
0.00312386
0.003387952
0.003391351
0.003559177
0.003885991
0.00401486
0.004074724
0.004168843
0.003952814
0.003608634
0.003364182
0.003180986
0.003047887
0.002985077
0.002978888
0.003004862
0.003027781
0.002968774
0.002797345
0.002564373
0.002288324
0.002013593
0.001783384
0.001669052
0.001609134
0.001606459
0.002832017
0.003163994
0.003234394
0.003359022
0.003612539
0.003935988
0.004090386
0.004167269
0.00428425
0.004108433
0.003786499
0.003540031
0.003364486
0.003243911
0.003200994
0.003222783
0.003304683
0.003408076
0.003409833
0.003235382
0.0029558
0.002622163
0.002291876
0.002056336
0.001945948
0.001829726
0.001773636
0.001624585
0.00261714
0.002877257
0.003164144
0.003180433
0.003349829
0.003601865
0.003933884
0.00412625
0.004245394
0.004427388
0.004349408
0.004090316
0.003849359
0.003661997
0.003528683
0.003486098
0.003531342
0.003650693
0.003812908
0.003908257
0.00379238
0.003545979
0.003203083
0.002812888
0.002490043
0.002330347
0.002225558
0.002077828
0.001714543
0.001469898
0.00260996
0.002867213
0.003079249
0.003141925
0.00331312
0.003559498
0.003956625
0.004262832
0.004516909
0.004839547
0.004913302
0.004745486
0.004496345
0.004251314
0.0040489
0.003933296
0.003925248
0.004011849
0.004166446
0.004342672
0.004337642
0.004184103
0.00391555
0.003423824
0.002890378
0.002688241
0.002684465
0.002489819
0.001949493
0.001578663
0.002476357
0.002658619
0.002764498
0.003046583
0.003128579
0.003275802
0.003594174
0.004282404
0.004943202
0.005534172
0.006171469
0.006445969
0.006321623
0.005946695
0.005474243
0.005029776
0.004701528
0.004527493
0.00449436
0.004563809
0.004702769
0.004740746
0.004668226
0.004468029
0.00405253
0.003488566
0.003103864
0.003640907
0.003100752
0.002302097
0.001756798
0.001420082
0.002480922
0.002624924
0.00272857
0.003031137
0.003120768
0.003371697
0.004041369
0.005289381
0.006636602
0.008036688
0.009548766
0.01045
0.01038818
0.009517594
0.0083295
0.007197949
0.006320489
0.005737142
0.005410201
0.005270875
0.005246288
0.005179316
0.004970801
0.004686116
0.004306204
0.003944604
0.003694042
0.004241727
0.004269628
0.002892477
0.002098081
0.001578191
0.0025372
0.002636919
0.00274591
0.003037846
0.003185437
0.003770528
0.005098368
0.007038956
0.009148515
0.01160089
0.01453633
0.0171785
0.01851193
0.01767043
0.0151817
0.01235141
0.01018062
0.00868317
0.007723896
0.007142319
0.006757032
0.006386403
0.00584044
0.005326492
0.004776801
0.004312833
0.004073001
0.004288686
0.004529295
0.00343184
0.002463122
0.001902444
0.002625628
0.00263103
0.002778107
0.003054964
0.00333465
0.004461913
0.006401632
0.008520407
0.0106079
0.01300616
0.01589794
0.01921893
0.02299533
0.02638339
0.02694866
0.02309038
0.01908676
0.0161203
0.01406084
0.01281737
0.01197673
0.0113947
0.01040836
0.008839791
0.007170581
0.005634474
0.004586221
0.004047573
0.003825438
0.003276497
0.002844101
0.002287703
0.002656203
0.00277029
0.002695546
0.002837692
0.003089143
0.003463572
0.005034646
0.007249942
0.008548417
0.009371789
0.01006845
0.01079643
0.01201871
0.01422024
0.01781951
0.02237495
0.02587192
0.02637674
0.02554014
0.02387566
0.02197036
0.02002078
0.01743111
0.01472585
0.01207173
0.009836299
0.007633643
0.00554866
0.003940965
0.003341601
0.003258474
0.003069807
0.002725061
0.001402349
0.002693174
0.002763467
0.002756248
0.002899183
0.00313722
0.003522495
0.005097867
0.007411075
0.008132312
0.007925177
0.007732357
0.007729632
0.008016664
0.008642898
0.009375531
0.010207
0.01118104
0.01207661
0.01261074
0.01261376
0.01205159
0.01125871
0.01042736
0.009686776
0.009090229
0.008565555
0.008025847
0.007227077
0.005872967
0.005028976
0.004522492
0.003564058
0.003017107
0.001917243
0.002786126
0.002811407
0.002833225
0.002975626
0.00320304
0.003550117
0.004821361
0.006782785
0.007594318
0.007439159
0.007676385
0.008123067
0.008608946
0.00909481
0.009478111
0.009425491
0.008917622
0.008171754
0.007455808
0.006908134
0.006519579
0.006251544
0.006079822
0.006023871
0.006106307
0.006286991
0.006536019
0.006745309
0.006620166
0.005978243
0.00500784
0.003466066
0.001862189
0.001002282
0.002902248
0.002902005
0.002927586
0.003069694
0.003288333
0.003594199
0.004470538
0.005881425
0.006660111
0.006709461
0.006826759
0.007013292
0.007298328
0.007967863
0.008845499
0.009275641
0.009120144
0.008436516
0.007490795
0.00657817
0.005850833
0.005344098
0.005022476
0.004856308
0.004822599
0.004853023
0.004849493
0.004719308
0.004301864
0.003624606
0.002798192
0.001993047
0.001463829
0.001153408
0.002992152
0.003003911
0.003026329
0.003173064
0.003388013
0.0036607
0.004228666
0.005101741
0.005710749
0.005851782
0.005748247
0.00543282
0.005138176
0.005385072
0.006014266
0.006747911
0.007299701
0.007414557
0.007066193
0.006447566
0.005783421
0.005217492
0.004778732
0.00446695
0.00428452
0.004178742
0.004057635
0.00388786
0.003582816
0.003125381
0.002530289
0.001954809
0.001511712
0.001190718
0.002979476
0.003110211
0.003098109
0.003255739
0.003480146
0.003738683
0.004117176
0.004627268
0.005004458
0.00512901
0.004994454
0.004628856
0.004300653
0.004231404
0.00439686
0.004710445
0.005066135
0.005357827
0.005488801
0.005412491
0.005164369
0.004835894
0.004490023
0.004156027
0.003889508
0.003705858
0.003530685
0.003345961
0.003129157
0.002884175
0.002447427
0.001991396
0.001555914
0.001273022
0.003390933
0.003238687
0.003302254
0.003529262
0.003788365
0.004079876
0.004402403
0.004639768
0.004705116
0.004597822
0.004379673
0.004180618
0.00407361
0.004050111
0.004075688
0.004119542
0.004165204
0.004201731
0.004213693
0.00418275
0.004103018
0.003968986
0.003771002
0.00354975
0.003368875
0.003196429
0.002997487
0.002799899
0.002673239
0.00234486
0.00205442
0.001587983
0.003544081
0.003562753
0.003553686
0.003708925
0.003910517
0.004131978
0.004359137
0.004533721
0.004601182
0.004548974
0.004446402
0.004355672
0.004258902
0.004160572
0.004054483
0.003938577
0.003820894
0.00371448
0.003631215
0.003574073
0.003538845
0.003503337
0.003427594
0.003305594
0.003192045
0.003063324
0.002879285
0.002680604
0.00258604
0.002312032
0.002062747
0.001770713
0.003605469
0.003698314
0.003731689
0.003903305
0.004098018
0.004299472
0.004485243
0.004636398
0.004733911
0.004776408
0.004747045
0.004643985
0.004525125
0.004379563
0.004205823
0.004016567
0.003828088
0.00365584
0.003514445
0.003410916
0.003352801
0.00332769
0.00329832
0.003251703
0.003214449
0.003129198
0.00296372
0.002758294
0.002664781
0.002443584
0.002241803
0.001966388
0.003380956
0.003658815
0.00370847
0.003870067
0.004151223
0.004415048
0.004635416
0.004816134
0.004959842
0.00503712
0.005021906
0.004917193
0.004744234
0.004562944
0.004370308
0.004161113
0.003953563
0.003762781
0.00360554
0.003487334
0.003428911
0.003421894
0.003422073
0.003437793
0.003468991
0.003400542
0.003230647
0.002999398
0.002901139
0.002698268
0.002453358
0.002164161
0.003686508
0.003856771
0.004021435
0.004227415
0.004539265
0.004815153
0.005041234
0.005185819
0.00522841
0.005176847
0.005042425
0.004852557
0.004660766
0.004475589
0.004286385
0.004095596
0.003919281
0.00377878
0.003678345
0.003662646
0.003715526
0.003766498
0.003866721
0.003961856
0.003870493
0.003663732
0.003387074
0.003265254
0.003077141
0.002749014
0.003352086
0.003659822
0.003909058
0.004214633
0.004542784
0.004817398
0.005018438
0.005143299
0.005168269
0.005101089
0.004965626
0.00480231
0.004641376
0.00449082
0.004349675
0.004210955
0.004087512
0.003995995
0.003944537
0.004035067
0.004207384
0.004336982
0.004543295
0.004676831
0.004515004
0.004246304
0.003880065
0.003811181
0.003404151
0.002970506
0.003474366
0.003803896
0.003910394
0.004134763
0.004398031
0.004618457
0.004772571
0.004842087
0.004827856
0.004753833
0.004652111
0.004544916
0.004444582
0.004364999
0.004307755
0.004273561
0.004263793
0.0043127
0.004617627
0.004960537
0.005153763
0.005450874
0.005582912
0.005291913
0.004912696
0.004499769
0.004228776
0.003738453
0.003408302
0.003720394
0.00382633
0.003989925
0.004193918
0.004345656
0.004444857
0.004492618
0.004511177
0.004472369
0.004415323
0.004378704
0.004382853
0.004429979
0.004514704
0.004638619
0.004877425
0.005491989
0.005979706
0.006182353
0.006544721
0.006513131
0.00601171
0.005557908
0.005243249
0.004682843
0.003256474
0.003534198
0.003567823
0.003725186
0.003878692
0.00400798
0.00412819
0.004249333
0.004270945
0.004295484
0.00436935
0.004504076
0.004681231
0.004901428
0.005207888
0.005733379
0.006686701
0.007256957
0.007233846
0.007455359
0.00724114
0.006628216
0.006261209
0.00564858
0.003028047
0.003222955
0.003301988
0.00346002
0.003574262
0.003784227
0.004013275
0.004090784
0.004272315
0.00452342
0.004840806
0.005183113
0.00557503
0.006119704
0.006912915
0.007976002
0.008369286
0.007940542
0.008089151
0.007800504
0.007292058
0.006577899
0.002836443
0.003026382
0.003152674
0.003279632
0.003584237
0.00392231
0.004064755
0.004449803
0.004874957
0.00536909
0.005854635
0.006393173
0.007131084
0.008008941
0.008960818
0.009093874
0.008418993
0.008698868
0.007891029
0.007401168
0.002874226
0.003095972
0.003325086
0.003690059
0.004056432
0.004322454
0.004850595
0.005391963
0.006025289
0.006593822
0.007212132
0.008053788
0.008938387
0.009759708
0.009661609
0.008868898
0.008706065
0.007785223
0.003447392
0.004020167
0.004391444
0.005012614
0.005523044
0.006076009
0.006782052
0.007364488
0.00799984
0.008965174
0.009810686
0.009909013
0.009599837
0.008458493
0.005899513
0.006593629
0.007297219
0.007799188
0.00829475
0.00895262
0.003143398
0.003163907
0.003140643
0.002997349
0.002871893
0.002714302
0.002574333
0.002450227
0.00235175
0.002311574
0.003212735
0.003449433
0.00355693
0.003383627
0.003363366
0.003084982
0.002942507
0.002779869
0.002596207
0.002434926
0.002308451
0.002242696
0.002103475
0.001974751
0.001924571
0.001931597
0.003374841
0.003459437
0.003507593
0.00364446
0.003564385
0.003532784
0.003274938
0.003148048
0.002922217
0.002691631
0.002489767
0.002311221
0.002175736
0.002012686
0.001889234
0.001837006
0.001858273
0.001840043
0.00302646
0.003499327
0.003441997
0.00372402
0.003845554
0.004093831
0.004012927
0.003910942
0.003630559
0.003388391
0.003103764
0.002845473
0.002629699
0.002445695
0.002279249
0.002104772
0.001947813
0.001805858
0.0016944
0.001586358
0.001594811
0.001594086
0.003073847
0.003247178
0.003597887
0.003748666
0.004233598
0.004441906
0.004582614
0.004419798
0.004205957
0.003861596
0.003537326
0.003230724
0.002981466
0.002788911
0.002632152
0.002482068
0.002318448
0.002152804
0.00198185
0.001815406
0.00166444
0.001585926
0.001599239
0.001596734
0.002967841
0.003313162
0.003475197
0.003901102
0.004297606
0.004748512
0.004943468
0.004969848
0.004700452
0.004377375
0.003976807
0.003622943
0.00333638
0.003132227
0.002995388
0.002894027
0.00279043
0.002656391
0.002493526
0.002307941
0.002109459
0.001913973
0.001734433
0.001621259
0.001576314
0.001507971
0.002796825
0.003187001
0.003473879
0.003778836
0.004406884
0.004800394
0.005149451
0.005285764
0.005230798
0.004876003
0.004473948
0.004046576
0.003708349
0.003477702
0.003350738
0.003298189
0.003274253
0.003228297
0.003120937
0.002949115
0.002733545