/*--------------------------------*- C++ -*----------------------------------*\
  =========                 |
  \\      /  F ield         | OpenFOAM: The Open Source CFD Toolbox
   \\    /   O peration     | Website:  https://openfoam.org
    \\  /    A nd           | Version:  6
     \\/     M anipulation  |
\*---------------------------------------------------------------------------*/
FoamFile
{
    version     2.0;
    format      ascii;
    class       volScalarField;
    location    "49.8";
    object      k;
}
// * * * * * * * * * * * * * * * * * * * * * * * * * * * * * * * * * * * * * //

dimensions      [0 2 -2 0 0 0 0];

internalField   nonuniform List<scalar> 
203709
(
0.00406675
0.004115637
0.004075048
0.003845044
0.004406516
0.005726146
0.005329568
0.004654989
0.004308604
0.004030224
0.003980842
0.003586889
0.003766588
0.004490743
0.004157446
0.00490171
0.005201775
0.004693189
0.004355256
0.004061993
0.003893835
0.003597665
0.003551565
0.003232399
0.003579133
0.003698108
0.003907618
0.00402365
0.00422711
0.00439531
0.004404886
0.004281196
0.003997481
0.003779488
0.003528515
0.00337155
0.003142523
0.002883825
0.003485401
0.00352219
0.003555006
0.003547996
0.003534776
0.003535575
0.003523476
0.003504069
0.003470651
0.003313597
0.003033014
0.002869746
0.002695076
0.002439798
0.003562759
0.003249052
0.003256086
0.003274288
0.003304695
0.003367993
0.003404964
0.003356499
0.003233972
0.003080517
0.002933778
0.002804759
0.00268866
0.002571572
0.002391601
0.002200706
0.003589607
0.003083043
0.002857039
0.00272777
0.00297659
0.003283664
0.003490097
0.003556556
0.003477117
0.003290516
0.0030672
0.002863607
0.002707526
0.002589667
0.002488841
0.002337663
0.004308971
0.003913066
0.003338097
0.002972713
0.002842985
0.003016738
0.0033045
0.003575354
0.003747161
0.003779143
0.003667387
0.003455924
0.003205459
0.002977066
0.002795166
0.002657527
0.00252618
0.002405286
0.00427479
0.004050785
0.003681706
0.003416313
0.003371061
0.00348889
0.003642811
0.003801339
0.003930015
0.003990961
0.003954811
0.003817884
0.003603153
0.003354276
0.00311577
0.002915984
0.002764684
0.002595861
0.004262391
0.004144848
0.003949896
0.00381562
0.003815536
0.003872365
0.003953012
0.004043244
0.004123084
0.00416486
0.004145253
0.004052784
0.003892098
0.003679725
0.003444091
0.003218353
0.003030832
0.002848953
0.004400403
0.004268137
0.004152691
0.004089407
0.004092758
0.004116725
0.004161348
0.004217926
0.004268843
0.004291581
0.004268343
0.004190843
0.004061802
0.003889628
0.003690297
0.003489912
0.003323829
0.003133148
0.004282723
0.004237636
0.004208983
0.004211851
0.004234859
0.004276119
0.004325195
0.004363151
0.004371048
0.004337999
0.004261485
0.004147626
0.004002923
0.003841274
0.003691972
0.003608132
0.004369893
0.004322274
0.004299548
0.004298088
0.004321428
0.004362162
0.004403512
0.004425985
0.004414885
0.004366874
0.004285355
0.004180112
0.004055074
0.003926903
0.003840767
0.003815526
0.004335804
0.004336921
0.004359653
0.004401416
0.004445689
0.004472951
0.004469637
0.004431756
0.004366331
0.004280734
0.004187456
0.004082536
0.003989069
0.003977674
0.004444013
0.004463036
0.004506707
0.004548613
0.004561499
0.004544584
0.004497634
0.004429501
0.004354664
0.004277849
0.004211328
0.004138089
0.004087139
0.004107308
0.004708766
0.004718979
0.004732134
0.004670456
0.00459854
0.004511094
0.004431802
0.004374843
0.004339219
0.004329207
0.004329081
0.00430901
0.004699375
0.004678324
0.004630763
0.004551557
0.004517488
0.00452366
0.004585469
0.004614013
0.004663425
0.004707219
0.00479703
0.004842136
0.004164883
0.004113172
0.004131116
0.004153463
0.004073449
0.003898029
0.003682268
0.003463887
0.003291446
0.003157813
0.003804438
0.0040823
0.004091297
0.004065028
0.004113737
0.004176056
0.00414979
0.004019864
0.003830738
0.003623188
0.003443126
0.003285181
0.003222473
0.00295531
0.003689468
0.003699523
0.003911309
0.003971034
0.003996909
0.004088286
0.00419953
0.004233921
0.00415806
0.004009871
0.003828316
0.003640826
0.003473541
0.003360973
0.003136513
0.002914104
0.003582597
0.003663058
0.003543603
0.003681521
0.003834549
0.004008647
0.004212675
0.004283018
0.004311213
0.004245163
0.004112535
0.003991937
0.003854997
0.003703639
0.003559881
0.003374573
0.003149662
0.00295222
0.003519611
0.003651342
0.00357996
0.003617221
0.003980312
0.004400732
0.006021507
0.006999369
0.005964064
0.005337642
0.004874969
0.00445378
0.004310481
0.004184256
0.003947267
0.003798719
0.003644914
0.003466904
0.003249669
0.00307881
0.003513394
0.003646529
0.003700516
0.004027509
0.004821184
0.007075198
0.00888738
0.01018243
0.01287374
0.01214049
0.009630731
0.00770254
0.006136399
0.005355675
0.00482275
0.004647925
0.00426027
0.003984669
0.003795176
0.003616865
0.003410664
0.00326576
0.003505113
0.00368031
0.003955129
0.004687322
0.006133806
0.007628404
0.009875518
0.01192335
0.01465336
0.01657454
0.01708186
0.01532418
0.01102922
0.008593612
0.006906749
0.005954989
0.004943861
0.004317669
0.004156339
0.003991526
0.003791001
0.003573685
0.003633578
0.003696763
0.003731229
0.004082406
0.00467256
0.005320227
0.006229844
0.00691739
0.007531682
0.00848052
0.009883325
0.01175556
0.01351162
0.01429534
0.01346352
0.01161406
0.01012473
0.00869034
0.006614992
0.005550633
0.004697205
0.004060312
0.003580816
0.003149634
0.003668623
0.003740166
0.003772127
0.004029999
0.00449623
0.004734824
0.005055427
0.005230826
0.005495646
0.005926545
0.006490565
0.007011137
0.007473838
0.007919514
0.008259949
0.008409075
0.008197976
0.007590863
0.006233505
0.004975541
0.003998731
0.003375523
0.003003506
0.002661529
0.003741048
0.003800864
0.003878236
0.004086552
0.004372833
0.004202853
0.004265546
0.004356384
0.004714026
0.005151972
0.005700718
0.006181804
0.006448239
0.006395008
0.006030791
0.005514709
0.00500055
0.004494059
0.003962713
0.003310217
0.002883647
0.002742735
0.002594147
0.002357652
0.00381805
0.003870131
0.003976747
0.004236487
0.004372982
0.004033646
0.003847124
0.003698585
0.003710576
0.004064743
0.004551528
0.005049205
0.00545079
0.005659847
0.00560048
0.005275136
0.004772914
0.00420066
0.003624514
0.002977958
0.002589355
0.002657417
0.002544143
0.002340225
0.003882461
0.003930776
0.004044825
0.004207191
0.004299324
0.004039851
0.003778431
0.003561177
0.003466181
0.003582282
0.003836179
0.004144664
0.004436106
0.004657306
0.00476922
0.004736461
0.004545949
0.004211349
0.003756384
0.003275934
0.002845496
0.002753316
0.002616109
0.002432644
0.003929297
0.003971733
0.004074635
0.004165783
0.004236426
0.004091716
0.00386351
0.003647743
0.003522089
0.003525104
0.003624886
0.003771083
0.003915165
0.00402737
0.00409424
0.004107567
0.004055693
0.003916621
0.00365148
0.003286728
0.002985394
0.00287168
0.002733611
0.002577001
0.003958812
0.003988188
0.004070417
0.004124805
0.004182173
0.004134639
0.00398629
0.003828748
0.003729601
0.003695465
0.003709849
0.003744205
0.003772342
0.003780256
0.003765313
0.003730628
0.003676987
0.003588771
0.003409888
0.003137309
0.003044
0.002960891
0.002855176
0.002740896
0.003976986
0.003982886
0.00403843
0.004095407
0.004219929
0.004248508
0.004195157
0.004110282
0.004025226
0.00396139
0.003916889
0.003877057
0.00382805
0.003764229
0.003689033
0.003609971
0.003532064
0.003443558
0.003280385
0.003104841
0.003085657
0.003038768
0.002975136
0.002906245
0.004005473
0.003973353
0.003995292
0.004051434
0.004200736
0.004291806
0.00430868
0.004276704
0.004231561
0.004187252
0.004135007
0.004064807
0.003976863
0.003876303
0.003771735
0.00367523
0.003590585
0.003505669
0.003343075
0.003212224
0.003227075
0.003195073
0.003140169
0.003086701
0.004078713
0.004042767
0.004002982
0.004018069
0.004065022
0.004308619
0.004413292
0.004461133
0.004463647
0.004439142
0.004382181
0.00429288
0.004186765
0.004075549
0.00397029
0.003889602
0.003822012
0.003760968
0.003627925
0.003602993
0.003545676
0.003488082
0.003403137
0.003302765
0.004297944
0.004176489
0.00413346
0.00416231
0.004374633
0.00452596
0.004640863
0.004692597
0.004683949
0.004620938
0.004523043
0.004423907
0.00433522
0.004263697
0.004243462
0.004215351
0.004223048
0.004120514
0.004094414
0.004073157
0.003984961
0.003808215
0.004348188
0.004406555
0.004383364
0.004434777
0.004526878
0.004726674
0.004830918
0.004892679
0.004879414
0.004802119
0.004721453
0.004672943
0.004648686
0.004643088
0.004738053
0.004749049
0.004803235
0.004833819
0.004878397
0.004931405
0.004790572
0.004300341
0.004477916
0.004681755
0.004670316
0.004658749
0.004646359
0.004643069
0.004744308
0.004813598
0.004840437
0.004881221
0.004940589
0.005037518
0.005122912
0.005280752
0.005422518
0.005559216
0.005848328
0.006167495
0.006273819
0.005858218
0.004290146
0.004496483
0.004456728
0.004426236
0.004446698
0.004494163
0.004597098
0.004835004
0.005106568
0.005334966
0.005526106
0.005728485
0.006003229
0.006462091
0.00691191
0.007463008
0.007840364
0.007581972
0.004092545
0.004266571
0.004305722
0.004456089
0.004596456
0.004822471
0.005155028
0.00556247
0.00593963
0.006273996
0.006686298
0.00731951
0.008060581
0.008547102
0.009154248
0.00915629
0.004140696
0.00446706
0.004870466
0.005090773
0.005480453
0.005983591
0.006507183
0.006993231
0.007496901
0.008103782
0.008849382
0.009684341
0.01009432
0.01044937
0.005416512
0.005860283
0.006414977
0.007058377
0.007653011
0.008186757
0.008781952
0.009474165
0.01022293
0.01091882
0.004190699
0.004069509
0.003993591
0.003841618
0.003624276
0.003393287
0.003175612
0.00301506
0.004099787
0.004411414
0.004396877
0.004216884
0.004122173
0.004054538
0.003900747
0.003680617
0.003446325
0.003224846
0.00305738
0.002949871
0.002696713
0.002514704
0.004164676
0.004116751
0.004388915
0.004420302
0.004272092
0.004214364
0.004165553
0.004015869
0.003792406
0.003554302
0.003332443
0.003175274
0.003096051
0.002859077
0.002672186
0.002479039
0.003897171
0.004125534
0.004174291
0.00412233
0.004392956
0.004283929
0.004188709
0.004179752
0.004172314
0.004049421
0.003835399
0.003596809
0.003371019
0.003214651
0.003139479
0.003047611
0.002860353
0.002719966
0.002310855
0.001831819
0.003772975
0.003859616
0.004033415
0.00412696
0.003969963
0.004284933
0.004241202
0.00422175
0.004253417
0.004286077
0.004201983
0.004006662
0.003767684
0.003530566
0.003364554
0.003262307
0.003235655
0.003047916
0.002917312
0.002606108
0.002073888
0.001583004
0.003671944
0.003726874
0.003766224
0.003954331
0.003960319
0.003922817
0.004366191
0.004399656
0.004420793
0.004465481
0.004502074
0.004437649
0.004262027
0.004027173
0.003775005
0.00358297
0.003458195
0.003447986
0.003287564
0.003274371
0.002903905
0.00250664
0.002061789
0.001650506
0.003613602
0.003629425
0.003696158
0.003845771
0.004041713
0.004261598
0.00503041
0.005252805
0.005316716
0.005267671
0.005154619
0.004953774
0.004697401
0.004414039
0.004138901
0.003922247
0.003770415
0.003725496
0.003617994
0.003531537
0.003343467
0.002959923
0.002639944
0.0021991
0.003621991
0.003640874
0.003588357
0.003704687
0.004121145
0.004757027
0.005628121
0.007046071
0.007840875
0.008376106
0.008311916
0.007643655
0.006735645
0.00596045
0.005327928
0.004863101
0.004502624
0.004266835
0.004138506
0.00401293
0.003882446
0.003588925
0.003288479
0.00309297
0.002781609
0.002464561
0.003397707
0.003634067
0.003604486
0.003621168
0.004042401
0.005036712
0.006440672
0.008233123
0.01057782
0.01259987
0.01438038
0.01576397
0.01498807
0.0122788
0.009823502
0.007803781
0.006527405
0.005684194
0.005189574
0.004827128
0.004575762
0.004352884
0.00407602
0.003612609
0.00320267
0.003129224
0.002954131
0.002749766
0.003438185
0.003571603
0.003594276
0.003848006
0.004716844
0.006282245
0.008075018
0.01011445
0.01241484
0.01495468
0.01765226
0.02054573
0.0225595
0.02258033
0.01981012
0.01462805
0.0111719
0.008771916
0.007319192
0.006300931
0.005554197
0.005162632
0.004887309
0.004508222
0.003773887
0.003623903
0.003400875
0.003191522
0.003528939
0.003578059
0.003678505
0.00408517
0.00532285
0.007099222
0.008345991
0.009213114
0.009927493
0.01046788
0.01118689
0.01245446
0.01432117
0.01680004
0.01898147
0.01968876
0.01837264
0.01553287
0.01322982
0.01133723
0.00950405
0.008360645
0.007320768
0.006365114
0.005050137
0.004092409
0.003769312
0.003467182
0.003535839
0.003629477
0.00362233
0.003774466
0.004216999
0.005503499
0.007260023
0.007793163
0.007558294
0.007232022
0.006914291
0.006928442
0.00728816
0.008062549
0.008907926
0.009751076
0.01057471
0.01122059
0.01150595
0.01129769
0.0104689
0.009062854
0.007847042
0.006878586
0.006133728
0.005326891
0.004105452
0.003811817
0.003469398
0.003035236
0.003620316
0.003613231
0.00364409
0.003850579
0.00427636
0.005386329
0.00686155
0.007153389
0.006381294
0.005694355
0.005346633
0.005542095
0.005962176
0.006636979
0.007289502
0.00773302
0.007825092
0.007533481
0.00702221
0.006481234
0.005920106
0.005393705
0.00486808
0.004486461
0.004259482
0.003938827
0.003263809
0.003190302
0.002976311
0.002633378
0.003738573
0.003654685
0.003677351
0.003906596
0.004290609
0.005156989
0.006282792
0.006476895
0.005757634
0.004959113
0.004394181
0.004157749
0.004482881
0.005043052
0.005648546
0.00617473
0.006507603
0.006537339
0.006247069
0.005717706
0.00508313
0.004466165
0.003936895
0.003575055
0.003392549
0.003130044
0.002685931
0.002702806
0.00253825
0.0022361
0.003896333
0.00374626
0.003735955
0.0039551
0.004290226
0.004929276
0.005728657
0.005917693
0.005413992
0.004758409
0.004187423
0.003834831
0.003846241
0.004086756
0.004429051
0.004776514
0.005063125
0.005236065
0.005253799
0.005091417
0.004762638
0.004316089
0.003863746
0.003505377
0.003250702
0.002961852
0.00253557
0.002534248
0.002364713
0.002074068
0.004067651
0.003872216
0.003820833
0.004003325
0.004289163
0.004756712
0.005305886
0.005511388
0.005249678
0.004800486
0.004319059
0.003963976
0.003816133
0.003842292
0.003969836
0.004126756
0.004262552
0.004350341
0.004379252
0.004338762
0.004215192
0.003990496
0.003702695
0.003467622
0.003270909
0.00301929
0.002609655
0.002571463
0.002385008
0.002087078
0.004221341
0.004011511
0.00392535
0.00405223
0.004285751
0.004637781
0.005031132
0.005247886
0.005179487
0.004910209
0.004562724
0.004263989
0.004073507
0.003994965
0.003990318
0.004012373
0.004024827
0.004010128
0.003966365
0.003898341
0.003805104
0.003661469
0.003482913
0.003383604
0.003285977
0.003102251
0.002752886
0.002710191
0.002516503
0.002213303
0.004370011
0.004165663
0.004050492
0.004108799
0.004280162
0.004547928
0.004860434
0.005097897
0.005162423
0.005041643
0.004836082
0.004609598
0.00443252
0.004321567
0.004255036
0.004200896
0.004135463
0.004050651
0.003949532
0.003842011
0.003733132
0.003595778
0.003472586
0.003447604
0.003410354
0.003254629
0.002958101
0.002923251
0.002723185
0.00242652
0.00442795
0.004414651
0.0042486
0.00420318
0.004290511
0.004480535
0.004737875
0.004984138
0.005123896
0.005120294
0.005022958
0.004900588
0.00479915
0.004722101
0.004649373
0.00456379
0.0044588
0.004338924
0.00421261
0.004093337
0.003988367
0.003863265
0.003812312
0.003831218
0.003810556
0.00360795
0.003314101
0.00323732
0.002995472
0.002691906
0.004775394
0.004577006
0.004447506
0.004400584
0.00447647
0.004646483
0.00485394
0.00503582
0.005145881
0.005192553
0.005229547
0.005239944
0.005213873
0.005145433
0.005044192
0.004923931
0.004800531
0.004684267
0.004593248
0.004539633
0.004480743
0.00454961
0.004615476
0.004562858
0.004235952
0.003917106
0.00367024
0.003356471
0.004659576
0.004688977
0.004725422
0.004746986
0.004772521
0.004873171
0.005052199
0.005294115
0.005507105
0.005659538
0.005756971
0.005790925
0.005754157
0.005666693
0.005561227
0.005457844
0.005372453
0.00531152
0.005307212
0.005390129
0.005464798
0.005631299
0.005733443
0.005604819
0.005040314
0.004668939
0.004171765
0.003714155
0.004056071
0.004477538
0.004642311
0.004841008
0.005003825
0.005189848
0.00543607
0.005679169
0.00589923
0.006057529
0.006135232
0.006150428
0.00611707
0.006068277
0.006025895
0.005999759
0.006005381
0.006053189
0.006200796
0.006516856
0.006714412
0.006987532
0.007070902
0.006811778
0.006194876
0.005340074
0.004653409
0.004085179
0.004177307
0.004600445
0.004711915
0.005006527
0.005308038
0.005546929
0.005755306
0.005931852
0.00604763
0.006126784
0.006176397
0.006233362
0.006327382
0.006435469
0.006545522
0.006686082
0.006908878
0.00722615
0.007796796
0.007988059
0.008370497
0.008397779
0.007798045
0.006943383
0.005985511
0.005219202
0.004026972
0.004209985
0.004337071
0.004699079
0.005058651
0.005300212
0.005545204
0.005719347
0.005887982
0.00607366
0.006325744
0.006598217
0.006867849
0.007163295
0.007471257
0.00789327
0.008385233
0.009103918
0.009240361
0.009746226
0.00959386
0.00882639
0.007836803
0.006717612
0.003503016
0.003790946
0.00390344
0.00404942
0.004487745
0.004805501
0.005198392
0.005499257
0.005833669
0.006208073
0.006648669
0.007096577
0.007517103
0.007961795
0.008450261
0.009036927
0.009678379
0.01044715
0.01053897
0.01098454
0.01094086
0.009819914
0.008736509
0.007582071
0.003424335
0.003677295
0.003894826
0.004174481
0.004542553
0.00519005
0.005671125
0.006151629
0.006697457
0.007320167
0.007904951
0.00841846
0.008968284
0.009593301
0.01030411
0.0109712
0.011653
0.01169938
0.01234026
0.01187485
0.01074614
0.009590322
0.003541869
0.004013075
0.004412884
0.004710772
0.005529439
0.006191061
0.006795482
0.007468353
0.008214693
0.008849989
0.009393429
0.01000059
0.01069488
0.01143134
0.01208883
0.01272639
0.01277632
0.01306723
0.01274512
0.01140696
0.004781664
0.005303741
0.006290094
0.007144738
0.007648422
0.008388703
0.009176514
0.009801573
0.01034528
0.01097648
0.01170579
0.01247654
0.01311768
0.01322286
0.01328105
0.01342383
0.005974928
0.007188796
0.008009808
0.00842938
0.009155845
0.009919467
0.01050624
0.01100281
0.01157933
0.01225279
0.01298606
0.01368509
0.01367098
0.01347021
0.008987558
0.009738471
0.01049626
0.01105969
0.01150696
0.01202116
0.01262526
0.01327954
0.003981608
0.003895997
0.003797204
0.003615924
0.003423538
0.003273106
0.004000132
0.004372264
0.004343189
0.004370441
0.004167734
0.004034058
0.003889145
0.003674396
0.003453883
0.003273047
0.00306243
0.002750396
0.002497708
0.002379078
0.003857925
0.004209898
0.004245723
0.004547893
0.004508454
0.004271771
0.004132903
0.004034846
0.003859888
0.003618497
0.003368885
0.003138346
0.002938229
0.002813746
0.00259432
0.002453189
0.002266633
0.002073665
0.003971338
0.004094667
0.004369954
0.004225757
0.004562144
0.004554791
0.004334632
0.004289688
0.004180714
0.00396361
0.003687295
0.003414251
0.003173301
0.002982343
0.002883516
0.002660981
0.002477084
0.002336847
0.002075874
0.001813145
0.003931162
0.004209553
0.004302355
0.004384492
0.004316274
0.004710407
0.004733517
0.004537925
0.004493138
0.00438916
0.004148378
0.003842711
0.003550653
0.003308794
0.003153141
0.003095527
0.002888117
0.002662967
0.002448942
0.002145144
0.001834958
0.001595963
0.00390619
0.004162291
0.004141683
0.004352742
0.004455022
0.004493129
0.004834378
0.004891147
0.004732647
0.00470629
0.004643575
0.004417959
0.004095984
0.003781205
0.00352716
0.00338597
0.003371542
0.003191647
0.002968944
0.0027234
0.002307655
0.001859354
0.001639069
0.001480118
0.003730998
0.004125742
0.00409273
0.004148058
0.004423066
0.004545893
0.004592091
0.004902034
0.005002806
0.004895054
0.004900421
0.004901994
0.004737678
0.004434364
0.004104515
0.003823018
0.003664353
0.003678818
0.003560699
0.003350067
0.003136056
0.002704751
0.002127313
0.001800796
0.001549885
0.001405912
0.003501808
0.003897816
0.003995145
0.004053208
0.004168742
0.004413559
0.00455442
0.004622132
0.004962231
0.00515709
0.005126084
0.005158595
0.005200503
0.005097515
0.004835321
0.004504152
0.004206842
0.004039117
0.004061634
0.004019547
0.003842342
0.00366985
0.003332376
0.002729639
0.002330843
0.00212331
0.001481036
0.001254884
0.003335089
0.003655911
0.00393483
0.004009667
0.004065878
0.004143398
0.004375394
0.004580428
0.00481465
0.005448082
0.005901591
0.00601559
0.006029316
0.005978228
0.005791
0.005483651
0.005117363
0.004772366
0.004533026
0.004468148
0.004428063
0.004310584
0.004148104
0.003867239
0.003434316
0.002990405
0.00240145
0.002220272
0.001628672
0.001243364
0.003468619
0.003701233
0.003950142
0.004042136
0.004076434
0.004138296
0.004459672
0.005025962
0.005892845
0.007307073
0.008420071
0.008989757
0.009024743
0.008546429
0.007744759
0.006949541
0.006239163
0.005669225
0.005246514
0.005014148
0.004871181
0.004734101
0.004576903
0.004287601
0.00387277
0.003561755
0.003065412
0.002748415
0.002542068
0.001977521
0.003254773
0.003539862
0.003680305
0.003985749
0.004120719
0.004133713
0.004265068
0.005047259
0.006523962
0.008633512
0.01132386
0.01375972
0.01573238
0.01692135
0.0162412
0.0138403
0.01135679
0.009190517
0.007690022
0.00667724
0.006046421
0.00562069
0.005319841
0.005062535
0.004759551
0.004314251
0.003803894
0.003485781
0.003116161
0.002740492
0.002595612
0.002331594
0.003541844
0.003621743
0.003776894
0.004090167
0.00423461
0.00427172
0.004716833
0.006375249
0.008834419
0.01172316
0.01480858
0.01781795
0.02086037
0.02380617
0.02577191
0.02563484
0.02253583
0.0172358
0.01331203
0.01047534
0.008669616
0.00747117
0.006628339
0.006111117
0.00572797
0.005263879
0.004565514
0.004029561
0.00356425
0.003040655
0.002897073
0.002716529
0.003771868
0.003782311
0.003952531
0.004242062
0.004411259
0.004518745
0.005361555
0.007774503
0.01010003
0.01184452
0.01290047
0.01353306
0.01435809
0.01580581
0.01789662
0.02050141
0.02270327
0.02324743
0.02168464
0.01832092
0.01554686
0.01332475
0.01151344
0.0101681
0.008975098
0.007845742
0.006600287
0.00538049
0.004476123
0.003548229
0.00328162
0.002987545
0.004010113
0.003865659
0.004032938
0.004347957
0.004592856
0.00481089
0.00588443
0.00843764
0.009998228
0.01004635
0.009364078
0.008601099
0.008295225
0.008513389
0.009310432
0.01038301
0.01147976
0.01251947
0.01329827
0.01359648
0.01335648
0.01239087
0.01107347
0.009893423
0.008908911
0.008041623
0.007144303
0.006064052
0.005340771
0.004393593
0.00363363
0.00332222
0.003998592
0.004158546
0.004034218
0.004170627
0.004453885
0.004749496
0.005056398
0.00612998
0.00834344
0.009415519
0.008494888
0.0071623
0.006295788
0.006244635
0.006638751
0.007401212
0.008176338
0.008742411
0.008937475
0.008707872
0.008212014
0.007662352
0.007077434
0.006574767
0.006130108
0.005802684
0.005540339
0.005230574
0.004799634
0.004651107
0.004376927
0.003609939
0.003505832
0.003056342
0.00426718
0.004259731
0.004196453
0.004302805
0.004552453
0.004873911
0.005227594
0.006145525
0.007828489
0.008596496
0.007627824
0.006182023
0.005112569
0.004663825
0.004965047
0.005607999
0.006303051
0.006916294
0.007316392
0.007377964
0.007081505
0.006517371
0.005838799
0.005205078
0.00470661
0.004368037
0.00412743
0.003886829
0.003634679
0.00361393
0.003448909
0.002951475
0.003021957
0.002638978
0.004515992
0.004487894
0.004406671
0.004458475
0.004656182
0.004970851
0.005345161
0.006057487
0.007213107
0.007759769
0.007095128
0.005948647
0.004984789
0.004402636
0.004334402
0.004579034
0.0049635
0.005365423
0.005691987
0.005873283
0.005867759
0.005665021
0.005296802
0.00483741
0.004396543
0.004046789
0.003750907
0.003455366
0.003155946
0.003053809
0.002806947
0.002412479
0.002430142
0.002008937
0.004603933
0.004672398
0.004614215
0.004634149
0.004772331
0.005048853
0.005413194
0.005964674
0.006718709
0.007113069
0.006781423
0.00604253
0.005288662
0.004729832
0.004449361
0.004415986
0.004539967
0.004721574
0.004876311
0.004952961
0.004935378
0.004828164
0.004643583
0.004396274
0.004129931
0.003903383
0.003678016
0.003402735
0.003075999
0.00291495
0.002628999
0.002247272
0.002120982
0.001733014
0.004577576
0.004792092
0.004789404
0.004817516
0.004904339
0.005118557
0.005438382
0.005878687
0.006400703
0.006707477
0.006613507
0.006218835
0.005690921
0.005219155
0.004889629
0.004733872
0.004708265
0.004736886
0.004748184
0.004700657
0.004588015
0.004429838
0.004251754
0.004066205
0.003900372
0.003790235
0.003664038
0.003445878
0.003135589
0.002949528
0.002658624
0.002305307
0.002040585
0.001711091
0.004458315
0.005039267
0.004995931
0.005033115
0.005073276
0.005202708
0.005440527
0.005788191
0.006192695
0.006486144
0.006547245
0.00639175
0.006082491
0.005739115
0.005465296
0.005305769
0.005226792
0.005164755
0.00506686
0.004911492
0.004706457
0.004482747
0.004271014
0.004082558
0.00395676
0.003905756
0.003819812
0.003609604
0.003297508
0.003073598
0.002745423
0.002452031
0.00209528
0.001794024
0.005185942
0.005183685
0.005228775
0.005288774
0.005338134
0.005461422
0.005706241
0.006034659
0.006329511
0.006484853
0.006491594
0.006391478
0.006245469
0.006134069
0.006058024
0.005974378
0.005842143
0.005645441
0.00539458
0.005115739
0.004856057
0.004641286
0.00447339
0.004412572
0.004405996
0.004293605
0.004007915
0.003631167
0.00332411
0.002900895
0.002654169
0.002269992
0.004714912
0.005159652
0.005508446
0.005736131
0.005782681
0.005771575
0.005850345
0.006047328
0.006291062
0.006505344
0.00669231
0.006860518
0.006974372
0.007025336
0.006985972
0.006840923
0.006603804
0.006306439
0.005984558
0.005674495
0.005448608
0.005303666
0.005226253
0.005295212
0.005334227
0.005113487
0.004673367
0.004166009
0.003727883
0.003189626
0.002901001
0.00250579
0.004103194
0.004697332
0.005141352
0.005676672
0.006052142
0.006267134
0.006392205
0.006575559
0.006850815
0.007212766
0.007562456
0.007847493
0.008002073
0.007990726
0.007821611
0.007539044
0.007204918
0.006866704
0.006553548
0.006304555
0.006241172
0.006268434
0.006352538
0.006583264
0.006624786
0.006188353
0.005546108
0.004842098
0.004263169
0.003608778
0.003193037
0.002742124
0.003561353
0.004297054
0.004595261
0.005097756
0.005666688
0.006186861
0.006656666
0.007127262
0.007575443
0.007966225
0.008278576
0.008471872
0.008496343
0.008347326
0.008086038
0.007792286
0.007521525
0.007292381
0.00711439
0.007056915
0.007312531
0.007568458
0.007813039
0.008182602
0.008134562
0.007387045
0.006527046
0.005561054
0.004887792
0.004153464
0.003470965
0.002985263
0.00378639
0.004228554
0.004695932
0.00520422
0.00573328
0.006238372
0.006761013
0.007244215
0.007626243
0.007895122
0.008066114
0.008073556
0.007963701
0.007849623
0.007787543
0.007766964
0.00777601
0.007830778
0.008076199
0.008726391
0.00912916
0.009451744
0.009882236
0.009678469
0.008611927
0.007529344
0.006345225
0.005554377
0.004589362
0.003803436
0.003272437
0.003726899
0.004073435
0.004479409
0.004944645
0.005378121
0.005878476
0.006349052
0.006693385
0.007000277
0.007312734
0.007402627
0.007475425
0.007685825
0.007973865
0.00825505
0.008526758
0.008832535
0.009402563
0.01034623
0.01075441
0.01109278
0.011479
0.01113544
0.009855138
0.008561703
0.007191239
0.006249292
0.005015547
0.004001158
0.003148216
0.003595721
0.003859295
0.004202174
0.004567958
0.005067767
0.005529003
0.005833797
0.00633817
0.006921318
0.007091115
0.007418758
0.007988597
0.00857099
0.009066576
0.009540333
0.01005883
0.0108803
0.01189177
0.01228009
0.01261959
0.01290335
0.01240981
0.01095877
0.009545655
0.008152788
0.006834021
0.005503838
0.003159515
0.003558675
0.003759665
0.004055186
0.004623974
0.005073236
0.005378357
0.006195513
0.007053895
0.007274442
0.007886046
0.0087362
0.009459296
0.01004072
0.01063735
0.01131793
0.0122519
0.01324422
0.01361769
0.01376362
0.01388114
0.01331435
0.01177684
0.01043996
0.009236875
0.007647039
0.003309639
0.003587715
0.003881236
0.00452035
0.005085366
0.005469168
0.006637594
0.007622767
0.007898755
0.008755094
0.009744172
0.010484
0.01107818
0.01173476
0.01248278
0.01334663
0.01420097
0.01438172
0.01427771
0.01432944
0.01381673
0.01240206
0.01141217
0.009860411
0.003644813
0.004164463
0.00468624
0.005428479
0.005953271
0.007355572
0.008306157
0.008668371
0.009641303
0.01060282
0.01127419
0.01182724
0.0124518
0.01313549
0.01385647
0.01461798
0.01460553
0.01426126
0.01452341
0.01410698
0.01316955
0.01164573
0.004549942
0.005092864
0.006107085
0.006580259
0.007977687
0.008850691
0.009237087
0.01020268
0.01109319
0.01170744
0.01219609
0.01275027
0.01335763
0.01392844
0.01466424
0.01451201
0.01421713
0.01473873
0.01373138
0.01288038
0.005564944
0.006590133
0.007355269
0.008547435
0.009337748
0.009718884
0.01046376
0.01126707
0.01183829
0.01225927
0.01275047
0.01335819
0.01409009
0.01483278
0.01462334
0.01429691
0.01431952
0.01308531
0.007539434
0.00868291
0.009424921
0.01046849
0.01084123
0.01148933
0.01202937
0.01239798
0.01287009
0.0136195
0.01450456
0.01442088
0.01403661
0.01333917
0.01037893
0.0110825
0.01161451
0.01190426
0.0122453
0.01276764
0.003927401
0.003966894
0.004118343
0.004019774
0.003964787
0.003807855
0.003639997
0.003467269
0.003267642
0.003081835
0.003608048
0.004030033
0.004466572
0.004307849
0.004306122
0.004139587
0.004032262
0.003919823
0.003712558
0.00349322
0.003290698
0.003201933
0.00292751
0.002616612
0.002433559
0.002359967
0.003850417
0.004056896
0.004145842
0.004568827
0.004526325
0.004601424
0.00442805
0.004375642
0.004167983
0.003871819
0.003569966
0.003283956
0.003100725
0.002788387
0.002519486
0.002376221
0.002386013
0.002279901
0.003454554
0.004099058
0.004086486
0.004417007
0.004555526
0.005083718
0.005075255
0.005129255
0.004957323
0.004772573
0.004462423
0.004087754
0.003728474
0.003422868
0.003193361
0.002902968
0.00265454
0.002439367
0.002258074
0.002007484
0.001845426
0.001732517
0.003535126
0.003970369
0.004277866
0.004492139
0.005007543
0.005224582
0.005632598
0.005605341
0.005598243
0.005402178
0.005118454
0.004732442
0.004307309
0.003927221
0.003635056
0.003419303
0.003171817
0.002940037
0.002676332
0.002361133
0.001993363
0.001733263
0.001611599
0.001519575
0.00342758
0.004039805
0.00427094
0.004681499
0.00510355
0.005552248
0.00576603
0.006066758
0.006015712
0.005957169
0.005757849
0.005441214
0.005013709
0.004556486
0.004174347
0.003914558
0.003746401
0.003550432
0.003326383
0.003012157
0.002595793
0.002132667
0.001761234
0.00155958
0.001495451
0.001537616
0.00340332
0.003927197
0.00429714
0.004660707
0.005203885
0.00560494
0.005938874
0.00610554
0.006332439
0.006284531
0.006211801
0.006057583
0.005789956
0.005368178
0.004888021
0.00449561
0.004258802
0.004142443
0.003997622
0.003786179
0.003440916
0.00295206
0.002405975
0.001962232
0.001708001
0.001670804
0.001722293
0.001752337
0.003178178
0.00374785
0.004143639