/*--------------------------------*- C++ -*----------------------------------*\
  =========                 |
  \\      /  F ield         | OpenFOAM: The Open Source CFD Toolbox
   \\    /   O peration     | Website:  https://openfoam.org
    \\  /    A nd           | Version:  6
     \\/     M anipulation  |
\*---------------------------------------------------------------------------*/
FoamFile
{
    version     2.0;
    format      ascii;
    class       volScalarField;
    location    "49.8";
    object      p;
}
// * * * * * * * * * * * * * * * * * * * * * * * * * * * * * * * * * * * * * //

dimensions      [1 -1 -2 0 0 0 0];

internalField   nonuniform List<scalar> 
203709
(
306124.4
305965.7
305969.5
306139.9
306336
306286.2
306194.6
306085.5
306105.9
306254.2
306374.8
306430.1
306173.6
306233.6
306275.1
306265.2
306370
306454.6
306498.6
306499.9
306458.7
306478.1
306448.6
306349
306155.2
306038.6
306090.6
306289.7
306495.3
306706.5
306870.8
306944.5
306930.8
306844.5
306686.6
306481.8
306373.3
306417.5
306088.7
305932.9
306107.3
306365.6
306657.4
306948.2
307176.8
307294.9
307305.3
307209.5
307015.2
306756.3
306505.6
306533.2
306058.4
305897.1
305836.3
306020.7
306301.4
306646
307005.2
307298.3
307480.6
307537
307462.5
307269.2
306989
306686
306548.4
306554.3
305878.8
305666.3
305740.9
305922.6
306220.1
306610.9
307020.3
307365.1
307585.7
307663.3
307609.5
307433.9
307152.3
306810.8
306492.6
306461
305898.4
305740.7
305645.3
305753.1
305947.2
306257.4
306664.3
307079.7
307423.9
307652.6
307744.5
307699.3
307533.8
307258.4
306895.9
306518.9
306310.5
306247.4
305756.2
305630.5
305730.8
305902.3
306138.1
306452.4
306827.5
307199.7
307498.3
307702.9
307785.4
307740.8
307572.2
307304.7
306935.4
306523.3
306157.4
306056.2
305839.2
305742.2
305891.5
306113.2
306384.1
306691.7
307016.6
307331.9
307572.6
307733.4
307785.8
307725.8
307550.5
307283.8
306918.2
306510.3
306148.1
306049
306123.9
306045.9
306078.6
306311.1
306595.9
306893.4
307171.5
307424.5
307621.4
307733.2
307742.1
307654
307472.3
307198.1
306843.6
306475.8
306284
306226.3
306324.2
306240.7
306454.6
306729.5
307009
307255.1
307451.9
307595.1
307664
307641.6
307532.6
307335.5
307053.9
306721.2
306413.9
306408
306528.4
306463.8
306519.8
306758.8
307015
307237.5
307402.6
307503.4
307532.6
307483
307349.9
307134.4
306852
306556.7
306434.8
306477.4
306581.8
306503.2
306693.6
306917.2
307111.7
307248.1
307317
307314.7
307250
307101.1
306883.5
306616.1
306369.6
306424.5
306594.3
306540.2
306595.3
306767.9
306911.3
307008.2
307047.3
307024.5
306953.9
306817.5
306636.6
306413.5
306301.7
306356.6
306649.6
306718.8
306752.7
306706.5
306740.9
306730.3
306696.8
306653.9
306565.9
306560.4
306472.5
306354.4
306804.4
306732.6
306618
306438.6
306402.8
306512.9
306566.3
306587.5
306546.2
306353.4
306317.9
306454.9
302419.9
302477.9
302671.8
302808
302862.6
302833
302720
302527.8
302280.7
302172
302427.9
302607.4
302730.3
302836.7
303001.1
303099.8
303127.4
303102.3
303025.3
302878.9
302668.4
302513.9
302353.5
302140.3
302659.9
302701.8
302911.4
303166.7
303353.6
303510.4
303545
303504.8
303487.6
303495.7
303425.1
303229.2
303000.2
302703.8
302454
302397
302754.1
302849.9
303084.1
303379.7
303650.9
303776.6
303752
303691
303465.7
303462.5
303682.4
303713.8
303714.8
303553.5
303238.4
302898.3
302629
302530.6
302696.9
302874.3
303156.4
303506.1
303730.6
303817.5
303849.8
303630.8
303428.4
303040.7
303055.3
303467.8
303675.9
303890.2
303815.2
303694
303416
303012.9
302690
302510.1
302506.7
302765.5
303121.4
303515
303691.1
303733.7
303605.5
303477.6
303119.2
303089.2
303094.9
303133.8
303200.7
303278.7
303641.5
303756.3
303843.1
303719.1
303486.9
303027.1
302621.3
302357.8
302713.9
302986.2
303409.2
303722.8
303708.5
303336.5
302991
303003.9
303084.3
303210.6
303326.2
303396.2
303419.4
303403.1
303369.3
303346.4
303625.9
303915.9
303833.9
303430.5
302924.4
302610.8
302554.4
302854.3
303235.9
303641
303730.9
303454.2
302840.4
302778.6
302895.9
303099.7
303330.1
303527.1
303645.5
303679.4
303628.5
303520.2
303405.6
303389.7
303862.5
303992.3
303773.3
303243.9
302776.6
302433.1
302636.2
302952.5
303390.8
303693.8
303611.3
303128.6
302574.8
302566.3
302735.9
303012.1
303325.7
303596.8
303776.8
303847.2
303805.6
303675
303502.8
303390.9
303733
304027.9
303910.2
303449.6
302897.7
302513.9
302843.6
303107.4
303510.8
303598.8
303263.6
302539
302342.2
302380.4
302589.6
302921.4
303294.4
303614.2
303830.3
303923.2
303896.7
303768.2
303572.1
303382
303329.4
303773.1
303869.3
303602
303067.6
302720.9
303000.2
303217.1
303529.2
303475.1
303002.5
302377.5
302256.6
302328.7
302567.4
302925.6
303308.3
303636.1
303862.9
303968
303950.7
303826.3
303620.1
303384.2
303229.2
303535.4
303782.9
303626.5
303168
302866.1
303090.9
303283.4
303527.5
303281.8
302609.3
302376
302339.4
302454.8
302702.5
303040.1
303387.6
303682.1
303888.4
303984.8
303965.5
303840.4
303632.1
303375.4
303156.2
303108.7
303535
303583.4
303204.7
302935.8
303114.4
303322.2
303583.5
303359.2
302712.6
302525.1
302533.5
302677.3
302916.6
303211.8
303504.5
303745.9
303909.9
303977.3
303941.9
303810.3
303602.3
303349.2
303134.2
303091.5
303522.1
303571.4
303194
302927.5
303065.2
303321.9
303682
303693.5
303288.7
302777.5
302766
302910
303130.4
303376.3
303609.2
303795.8
303911
303939.7
303880.2
303739.3
303533.5
303305.8
303159.8
303484.1
303737.2
303580
303126.9
302835.7
302940.2
303256.2
303716.9
303886.3
303653.7
303060.4
302987.5
303098.4
303286.9
303487.4
303665.3
303798.9
303868.6
303862.5
303780.9
303630.1
303433.1
303252.3
303212.5
303682.6
303772.3
303513.2
302984.3
302656.5
302752
303121.3
303625.1
304011.1
304029.6
303647
303190.6
303223.8
303365.6
303523.8
303656.7
303744.4
303775.4
303742.1
303643.2
303489
303314.9
303213.2
303578.5
303901.5
303770.4
303315.7
302774.2
302415.3
302691.8
303040.7
303489
303972.8
304126.4
303919.3
303365.8
303310.7
303387.4
303491.8
303578.6
303626.4
303627.9
303580.6
303480.9
303346
303218.1
303206.5
303710.3
303836.4
303613.1
303088.5
302631.4
302318.2
302940.1
303271.1
303759.9
304122.8
304138.4
303814.6
303463.2
303442.8
303450.2
303468.3
303469.8
303451.6
303413.2
303350.9
303291.8
303254.3
303543.4
303836.8
303720.6
303301.5
302791.6
302475.2
302762.2
303080.3
303493.6
303935.3
304133.4
304198.8
304072.1
303934.2
303523.6
303425.8
303347.5
303317.9
303335.2
303373
303720.8
303808
303883.4
303734.9
303465
302981.6
302556.6
302260.8
303038.4
303263.7
303588
303971.2
304209.9
304302.8
304318.9
304074.3
303843.6
303385.9
303351.6
303732
303904.5
304096.6
303989
303833.3
303531.8
303093.6
302722.8
302470.5
303157.5
303296.8
303562.4
303873.4
304155.8
304269.9
304229.5
304139.6
303882.9
303849.1
304044.1
304044.1
304010.9
303818.5
303475.6
303108.2
302779.4
302585.4
303097
303175.3
303404
303675.3
303859.6
304006.8
304023.5
303961.4
303922.9
303915.3
303818.9
303597.3
303334.9
302999.5
302707.6
302568.5
302869.5
303073.5
303220.5
303329.4
303489
303580.1
303593.5
303555.7
303469.2
303304.6
303072.1
302880.7
302664.7
302426.1
302848.3
302925
303117.6
303245.2
303285
303246.7
303132.2
302934.6
302680.6
302559.1
298586.9
298566.4
298680.6
298735.4
298703.7
298587.6
298411.5
298368
298502.2
298706.6
299027.2
299093
299150.9
299259.3
299307.2
299275
299164.8
298998.9
298882.1
298758.4
298397.4
298162.1
298937.7
298968.1
299230.8
299465.7
299612.4
299772.2
299888.3
299936.3
299904.1
299793.1
299619.5
299407.4
299212
298938.4
298643
298567.3
298552.1
298984.7
299307.8
299499.7
299642.5
299801.3
299768.8
299896.2
299991.4
300028
299997.5
299900.8
299749.6
299572
299560.3
299361.8
299188.7
298956.4
298604.5
298146.4
298609
298909.5
299367
299650.8
299808.7
299767.4
299738.4
299501.2
299545.4
299581.6
299587.9
299561.2
299502.5
299416.6
299326.3
299514.8
299508.4
299523.2
299325.1
299005.1
298520.3
298203.8
298575.9
298926.8
299415.6
299756.4
299914.2
299738.5
299522.4
299559.2
299581.6
299574.4
299540
299508.2
299488.4
299481
299475.7
299443.8
299381.6
299307.7
299485.2
299630
299429.8
299055.6
298535.5
298184.2
299023.2
299401.2
299777.4
299985.7
299827.8
299575
299609
299640.7
299629.9
299572.9
299475.9
299395.5
299386.8
299448.5
299519.9
299548.3
299524.8
299456.1
299383.4
299592.9
299721.2
299466.9
299055.8
298665.2
298988.6
299373.3
299712.1
299957.9
299852
299610.9
299614.2
299629.8
299621.6
299560.1
299469.3
299367.3
299288.3
299296.3
299385.9
299485.3
299562.1
299594.1
299565.7
299507.3
299458.5
299647.6
299720.5
299431.6
299065.1
298681.8
298563.2
299055.7
299595.9
299901.5
299806.7
299615.2
299629.9
299597.8
299531.3
299467.2
299395.2
299324.5
299297.9
299299.9
299330.6
299383.5
299443.8
299517.2
299566.9
299590.8
299603.4
299582.5
299512.9
299642.4
299700.9
299353.4
298793.5
298310.8
298789.9
299345.7
299769.3
299878.1
299603.1
299654.5
299640.1
299515.2
299350.5
299246.4
299227.7
299265.2
299343.3
299425.3
299487.3
299523.2
299532.4
299529
299533
299583.3
299675.1
299723
299663.5
299539.4
299750.9
299579.2
299123.8
298568.4
299138.2
299607
299952.6
299866.7
299642.1
299665.7
299575.7
299356.4
299122.9
299035.8
299077.6
299205.1
299373.8
299532.2
299641.8
299691
299679.2
299633
299588.3
299598.5
299710.4
299802.2
299774.4
299648.6
299778.2
299789.7
299401.3
298924.4
298671.7
299244.8
299790.9
299941
299631.6
299646.6
299598.6
299396.7
299100
298844.5
298769.3
298847.3
299041.7
299292.6
299529.2
299700.6
299786.1
299784.1
299717.4
299626.8
299579.5
299644.6
299748.9
299780
299694.9
299574
299787.7
299580.7
299002.1
298406.8
298689.7
299335.7
299980.1
300088.1
299679.3
299616
299475.1
299177.4
298812.6
298570.3
298510.2
298620.7
298874.3
299194
299482.8
299692.2
299801.8
299812.6
299744
299632.3
299535.2
299525.9
299626.6
299707.6
299685
299626.8
299930.9
299759.6
299074.2
298414.5
298837.5
299473.7
300123.8
300209.3
299733.1
299577.7
299338.7
298998.9
298642.9
298427.9
298384.7
298524.9
298811.8
299152.9
299458.9
299684
299806.8
299826.6
299759.1
299634.6
299502.4
299433.8
299488
299588.8
299644.2
299668.2
300040.6
299895.1
299203.3
298550.1
298920.3
299551.8
300206
300283.1
299777.6
299579.5
299280
298920.5
298626.7
298462.6
298449.8
298603.5
298882.7
299198.2
299480.7
299689.8
299804.7
299821.3
299751.8
299621.7
299472.4
299367.6
299375
299493.3
299612
299684.2
300095.9
299967.4
299279.1
298633.6
298913.9
299552.8
300215
300301.2
299808.7
299625.5
299347.2
299014.8
298760.1
298636.9
298652.4
298802.5
299045.9
299309.6
299541.9
299710.8
299797.7
299797.9
299721.3
299590.4
299443.9
299343.1
299354.8
299476.8
299597.1
299670.6
300086.3
299959.4
299274.5
298632
298829
299478.9
300149.4
300260.5
299819.9
299704
299520.3
299251.3
298994.4
298879.9
298903.6
299035.6
299230.2
299433.8
299608.3
299728.1
299778
299755.2
299669
299542
299416.4
299357.4
299425
299533.5
299592.4
299620.6
300006.4
299865.6
299182.3
298537.7
298693.3
299349.4
300020.9
300166.7
299808.3
299795.5
299721.7
299514.3
299262.4
299132
299139.8
299240.7
299384.7
299530.6
299649.8
299722.2
299736.5
299691.7
299598.2
299481.9
299391.6
299393.7
299510.8
299599.7
299584.1
299533.1
299861.7
299695.4
299019.4
298372.4
298681.8
299265.9
299848.1
300041
299789
299858.4
299872
299750.3
299542
299368.7
299333.2
299390.1
299484.9
299579.9
299650.9
299683.3
299669.7
299610.4
299517.6
299422.4
299381.9
299461.4
299582.4
299621.6
299543.3
299432.4
299680.3
299469.2
298893.8
298321.3
299188.1
299691.2
300080.6
300048
299881.8
299959.1
299924.8
299762.6
299572.2
299490.3
299495.9
299537.8
299583.3
299611.8
299614
299585.5
299526.7
299451
299388.3
299395.2
299516.8
299614.1
299590.4
299469.5
299616.1
299657.2
299246.4
298755.7
298858.9
299449.8
299919.8
300090.5
299878.9
299983.1
300009.9
299918.5
299775.8
299664.2
299613
299585.4
299571.9
299557.1
299538.6
299513.6
299479.8
299449.3
299433.4
299472.6
299555.6
299586
299511.4
299380.5
299598.9
299415.7
298944.4
298369.8
298640.5
299180.2
299776.5
300143
300113.8
299978.1
300030.2
300020.4
299967
299899.7
299808.8
299694
299606.1
299537
299505.2
299507.9
299527.4
299570.9
299592.4
299592.5
299579.6
299528.9
299437.6
299567.1
299605.2
299209.4
298619.6
298097
299138
299577.5
299978.8
300290.5
300234.6
300033.1
300062
300090.6
300083.6
300007.3
299887.5
299745.8
299613.3
299572.8
299622.1
299685.7
299729.4
299725.4
299664.5
299573.4
299491.6
299663.8
299705.6
299371.8
298964.2
298525.7
299251.6
299687.8
300122.6
300386.3
300271.1
300042.8
300089.5
300125.4
300104.6
300026.6
299899.4
299783.2
299739.7
299769.1
299807.4
299802
299740.7
299636.4
299528.3
299711.2
299796.4
299492.5
299047.2
298618.1
298806.7
299220.5
299773.5
300163
300363.1
300213.9
300007.3
300048.8
300064.9
300042.9
299987.3
299930.8
299886.8
299856.6
299824
299760.6
299660.8
299551.2
299696
299803.7
299554.9
299136.1
298579.3
298168.8
298906.9
299261.6
299764.3
300087.4
300278.9
300250.2
300223.7
299978.5
300013.3
300037.9
300029.1
299987.4
299913.1
299804.9
299688.4
299854.8
299816.5
299788.2
299543.6
299188.4
298664.3
298309.5
298872.7
299341.5
299714
299936.4
300090.4
300262.6
300234.9
300361.5
300453
300480
300442.7
300340.7
300176.2
299980.1
299944.3
299705.9
299500.6
299252.5
298865.7
298391
299284.5
299360.2
299636
299882.5
300037.8
300202.5
300320.9
300362.5
300332.8
300229.7
300052
299832.4
299633.9
299348.4
299040.7
299012
298841.4
299060.1
299387.7
299476.8
299550.1
299669.5
299723.6
299705.5
299611.5
299451
299336.3
299233.5
298907.3
298735.5
298943.6
298935.7
299066.4
299144
299138
299045
298903.6
298939.6
294843.1
294733.7
294755.8
294733.9
294658.5
294717
294652.9
294896.4
295287.2
295561
295463
295422.3
295443.1
295417
295341.2
295320.6
295351.1
295046.7
294625.7
294356.7
294548.1
295039.3
295287.1
295501.6
295728.4
295871
295739.9
295766.4
295783
295753.3
295678.8
295592.6
295666.9
295485
295233.7
294998.4
294727.1
294239.1
294996.4
295256.2
295542.6
295746.2
295790.2
295920.4
295891
295622.7
295631
295638.1
295606
295536.6
295469.9
295686.4
295677.3
295516.9
295453.5
295227.1
294925
294647.5
295303.2
295510.7
295761.4
295976.1
295787.8
295565
295601.4
295642.1
295678.2
295718.3
295731.6
295698.1
295620.4
295521.4
295435.4
295355.3
295288.4
295484.8
295650.6
295417.3
295142.6
294916.6
295384
295583.9
295844.3
295933.1
295928.3
295609.4
295580.2
295581.3
295598.6
295641.6
295679.6
295688.2
295655.1
295582.7
295486.7
295394.5
295338
295305.7
295307.2
295595.8
295580.5
295468.4
295192
294986.9
295324.3
295598.4
295830.5
295787.8
295640.4
295639.5
295598.3
295576
295562.9
295551.4
295565.4
295576
295568.8
295538.8
295488
295423.9
295362.6
295333.2
295314.6
295310
295322.5
295295.7
295412.8
295438.3
295203.5
294935.7
295029.7
295548.1
295884.1
295810.2
295638.3
295654.2
295641.6
295592.6
295562.3
295558.5
295553.2
295540.7
295517.4
295491.3
295467.5
295447.2
295426.3
295397.3
295363.8
295334.7
295334.8
295355.3
295337.6
295289.6
295428.2
295494.6
295165.1
294659
294588.2
295310.3
295824.5
295991.3
295683.1
295677.6
295678.1
295637.4
295592.4
295580.6
295575.2
295555.6
295518.2
295468.4
295427.3
295413.6
295426.4
295445.5
295450.8
295436.7
295409
295388.6
295400.4
295409.2
295374.6
295348.1
295635.1
295466.8
294953.2
294233.3
295079.3
295610.6
296058
296004.9
295705.8
295689.3
295661.7
295621.2
295595.5
295577.6
295554
295515
295465.8
295416.4
295383.2
295384.3
295416.3
295455.5
295485.3
295496.1
295486.1
295468.7
295458.4
295459.9
295451.2
295435
295700.7
295745.2
295289
294751.6
294663.5
295351.3
295844.2
295891.6
295713
295691.4
295664.4
295639.4
295617.3
295576.5
295522.9
295473.4
295429.7
295397.7
295386.7
295393.6
295416.2
295448.5
295481.2
295511.1
295531.5
295543.5
295552
295548.7
295527.6
295506.3
295494.7
295484.6
295633.9
295572.5
295056.1
294381.4
294929.1
295588.1
295907.4
295694.2
295711.5
295692.4
295655.8
295645.7
295606.3
295519.4
295418.1
295348.1
295325.4
295345.8
295399.6
295462.6
295516.6
295553.2
295568.2
295571.2
295575.9
295596.8
295633.7
295653.7
295631.8
295586.5
295570.8
295541.8
295485.3
295669.3
295329.1
294671.5
295341.5
295829.5
296058.2
295756.1
295739
295702.4
295667.3
295638.2
295548.6
295400.9
295252.3
295171.6
295175.5
295252.2
295375.8
295503.7
295603.4
295660.1
295671.7
295659.1
295644.1
295650.2
295691.5
295725.7
295712.9
295661.2
295625.3
295597.9
295564.5
295827.4
295568.6
295079.7
295618.5
295990.1
296053.1
295826.4
295781.6
295706.9
295659.4
295581.9
295417.9
295197.8
294999.1
294899.2
294916.9
295042.4
295235
295436.8
295597.3
295693.7
295722.6
295701.6
295659.9
295638
295662.3
295704.3
295717.5
295686.8
295648.9
295647.7
295632.2
295808.5
295707.1
295340.4
294855.2
295548.7
295887.8
295816.3
295893.9
295851.3
295735.6
295635.7
295489.5
295253.7
294967.3
294724.7
294605.5
294636
294814.8
295076
295332
295533.1
295656.9
295702
295684.5
295633.9
295589.1
295587
295628.5
295668.5
295675.7
295675
295709.1
295690.6
295564.7
295595.1
295240.5
294506.6
294780.1
295540.2
295948.5
295857.4
295967.1
295921
295769.5
295615.7
295408.4
295126.2
294812
294557.3
294432.6
294478.4
294686.7
294981
295262.4
295484.5
295624.9
295681
295667
295609.5
295545.8
295517.5
295545.6
295601.6
295649
295693.8
295764.7
295754.4
295598.7
295646.2
295208.6
294417.9
294830.2
295587.8
295993.4
295896.6
296016.8
295969.3
295801.3
295622.3
295386.4
295092.6
294793.6
294559.6
294447.7
294505.3
294713.9
294991
295256.7
295467.8
295602.5
295656.6
295641.3
295580.4
295508.1
295465
295481.9
295548.3
295623.7
295697.9
295793.5
295794.2
295635.2
295692.3
295253
294464.3
294816.4
295576.3
295985.9
295897.2
296024.2
295984.8
295827
295661.2
295443.3
295174.2
294909.2
294711.1
294626.5
294687.5
294868.5
295096.5
295314.5
295487.2
295594.8
295632.4
295609.2
295546.6
295476.4
295437.1
295457.7
295527
295604.4
295680.7
295780
295784.9
295629.8
295691.6
295253.6
294464.8
294757.8
295519.4
295935.4
295862
295989.8
295966.2
295842.5
295723
295561.8
295343.5
295114.9
294948.4
294885
294936.2
295073.6
295242.1
295401.4
295524
295593.8
295607
295572.2
295509.8
295451
295431.4
295469.5
295532.6
295585.3
295636.6
295718.7
295719.7
295574.1
295634.4
295197.6
294408.3
294837.8
295529.2
295879.7
295828.2
295932.5
295923.5
295847.4
295791.7
295700.7
295542
295352
295207.8
295152.6
295183.1
295272.5
295382.8
295484.5
295557.2
295588.9
295577.5
295532.2
295473.6
295432.4
295439.1
295491.9
295540.6
295556.4
295566.2
295618.7
295615.4
295501.5
295550.2
295187.6
294464.3
295607.2
295989.2
296070.1
295881.4
295877.9
295850
295848.4
295821
295725.6
295581.1
295451.2
295387.2
295388.4
295432.1
295490.9
295542.7
295572.8
295573.4
295543.9
295494
295444.4
295424.8
295456.2
295507.8
295530.6
295509.7
295484.6
295506.4
295505.4
295691.8
295609.5
295217.1
295322.1
295826.8
296086.7
295830.9
295861.1
295876.1
295889.6
295906.4
295868.5
295770
295654
295575
295545.3
295547.2
295561
295571.4
295569.5
295550.7
295514.7
295470.2
295434
295431.2
295470.5
295505.1
295495.7
295449.5
295425.3
295415
295385.6
295651.7
295388.7
294885.9
294910.9
295588.1
295949.3
295787.8
295857.7
295898.1
295918.5
295957.1
295959.2
295903.3
295814.5
295734.1
295678.6
295639.6
295611
295585.9
295562.2
295537.5
295509.1
295481.7
295460.8
295460.4
295478.1
295478.5
295440.3
295384.9
295369.2
295335.4
295272.5
295454.1
295091.3
294410.7
294658.9
295367.9
295902.3
296005.3
295883.4
295923.5
295957.8
295984.8
295998.8
295979.7
295935.2
295879.6
295813.2
295739.5
295671.3
295613.7
295576.2
295557.3
295546.6
295539.5
295524
295502.3
295477.9
295440.1
295391
295354.3
295329
295294.1
295427.3
295344.4
294806.1
294094.4
295124.4
295689.5
296194.5
296199.6
295961.5
296003
296026
296022.5
296018.9
296011.1
295985.4
295929.1
295849.2
295758.8
295677.5
295631.4
295620
295617.9
295607.1
295574.7
295523.2
295463
295410.8
295381.2
295348.6
295309
295556.4
295563.1
295065.7
294508.6
294642.3
295408.6
295971.9
296203.2
295958.6
296009.6
296059.2
296053.5
296027.9
296025
296018.8
295985.6
295924.2
295842.3
295764.7
295714.2
295691.3
295672.8
295637
295576.6
295503.9
295436.3
295406.7
295381.1
295316.3
295269.9
295530
295305.6
294752.7
293992.5
295149
295719.5
296114.4
296101.9
295983.5
296042.5
296059.3
296025.4
295999.4
295992.5
295975.1
295943.5
295895.1
295841.6
295790.9
295743.1
295690.1
295622.8
295545.2
295472.9
295427.3
295408.6
295356.9
295284.7
295408.4
295432.6
295047.8
294478
295511.6
295841.4
296136.4
296139.4
296025.1
296045.7
296017.7
295996.7
295976.1
295951.9
295951.2
295944
295918.1
295869.7
295798.8
295709.3
295616.3
295549.4
295493
295449
295427.9
295374.5
295475.6
295468.9
295188.4
294869.2
295627.4
295880.8
296190.8
296309.7
296320.5
296004.7
295973.4
295969.1
295977.4
296012.3
296039.8
296036.1
295991.7
295907.5
295793.8
295676.6
295589.1
295526.5
295508.3
295789.9
295745
295607.4
295307.2
295066.6
295589.3
295836.6
296109.8
296348.9
296164
295932.6
295962.8
295997.2
296029.8
296064.9
296071.9
296035.6
295956.5
295851.3
295753.4
295658
295579.4
295781.1
295941.3
295688.6
295411.6
295183.4
295313.2
295596.4
295888.4
296106.2
296150.8
296277.7
296243.9
295967.5
295977.1
295988.3
295963
295901.5
295843.9
296079.7
296076.9
295920.8
295869.7
295667.1
295365.6
295143.8
294894.9
295375.2
295634
295859.5
296089.3
296231.2
296102.3
296142.4
296179.8
296168.4
296106.5
296043
296160
296013.6
295792.1
295591.4
295370.2
294941
295023.8
295266.5
295669.6
295943.2
295855.5
295837.7
295895
295897.6
295843.4
295860.6
295970.9
295742.8
295424.8
295279.7
295313.3
295219.5
295294
295312.4
295284.7
295450.7
290833.9
291078.9
291271.4
291334.9
291386.2
291370.9
291269.2
291147.8
290925.9
290656.9
290754.3
291146.8
291553.3
291713.9
291838.8
291921.2
291743.4
291740
291717.3
291665.6
291789.9
291675.4
291525.8
291320.3
290904.1
290525.8
291431.5
291448.3
291748.8
291857.4
292048.7
292124.1
292006
291633.4
291585.6
291558.2
291548.4
291864
291945.3
291843.9
291622.4
291500.7
291213.8
291191.9
291043.2
291617.7
291848.5
291803
291833.5
291672.1
291734.6
291737
291676.5
291613.4
291582.7
291551.8
291521.5
291527.9
291545.7
291513.1
291428.7
291575.3
291537.9
291577.4
291343.8
290777.9
291311.9
291687.9
291979.6
291875.6
291657.8
291629.8
291636.4
291675.2
291672
291633
291608.1
291588.3
291554.5
291509.6
291476.4
291470
291440.1
291378.2
291355.4
291369.7
291573
291671
291383.7
290994.5
291417.6
291861.8
292156.6
292019
291754
291694.3
291632.8
291600.1
291606.7
291613.1
291612.8
291612
291599.4
291563.7
291508.4
291449.4
291401.8
291359.7
291327.4
291339.9
291385.8
291429.2
291681.3
291815
291530.6
291086.4
291339.9
291877.3
292240.7
292098.6
291780.6
291727.4
291680.9
291612.3
291576.6
291566
291565.3
291571.3
291573.3
291559.7
291523.3
291468.1
291406.2
291351.9
291315.8
291298.8
291311.4
291360
291389.3
291429
291738.9
291889.4
291545.4
291008.9
291097.8
291733.3
292192.6
292118.4
291800.5
291711.8
291666.5
291629.5
291584.6
291554.3
291536.6
291524.4
291518.9
291509.9
291490
291455.3
291410.1
291362.3
291320.9
291295.2
291284.1
291290.7
291313.1
291330.1
291360
291441.7
291757.6
291845.1
291397.2
290754.5
291675.5
292040.2
292073.4
291823.1
291734.6
291674.5
291639.8
291605.7
291566.5
291537.4
291519.3
291502.9
291484.6
291461.4
291434.6
291405.5
291376.3
291349.3
291324.5
291304.3
291293.3
291297.6
291313.4
291325.4
291340.8
291387.9
291474.6
291725.6
291697.1
291330.8
291492.2
291924.1
291950.2
291826.1
291790.5
291711.8
291663.7
291630.8
291592.8
291556.8
291532.4
291512.7
291489.6
291460.9
291428.4
291399.2
291379.1
291368.5
291362.5
291355.3
291345.4
291336.3
291335.1
291345.5
291358.2
291368.4
291399.9
291471.7
291504.8
291615.2
291571.9
291120.5
290810.6
291522.5
291886.7
291745.7
291784.1
291763.8
291698.4
291655.2
291619.2
291582.7
291550.3
291521.9
291493.9
291463.7
291432.7
291404.9
291385.7
291379.7
291384.8
291393.5
291400
291401.6
291399.5
291399.1
291403.3
291411.2
291420.6
291443.6
291494
291502.6
291448.9
291563.8
291180.9
290446
291185
291810.3
291916.4
291730.7
291739.6
291717.2
291678.9
291642.9
291610.8
291577.1
291535.9
291489.9
291448.4
291416.2
291397.2
291393.4
291401.4
291416.5
291433.6
291447.9
291458.3
291465.5
291471.8
291479.5
291485.4
291485.6
291486.2
291496.4
291511.9
291511.5
291478.8
291633.5
291521.5
290871.9
291580.5
291925.5
291771.4
291756
291729.4
291707.4
291676.2
291642.4
291612.7
291568.1
291499.3
291425.2
291369.3
291344.5
291354.3
291393.1
291443.7
291490.4
291523.8
291538.2
291541.5
291543.9
291552.4
291568.1
291579.2
291577.1
291566.3
291561.8
291556.7
291543.5
291538.3
291525.5
291657.8
291301.2
290842.8
291761.3
292132.9
291847.2
291813.5
291760.9
291724.8
291686.7
291648.8
291606.6
291527.9
291413.6
291300.4
291224.4
291206.4
291249.5
291341
291446.3
291536.3
291595.2
291618
291621.7
291619.5
291621.7
291636.8
291650
291646.7
291628.6
291612
291599
291587.5
291601.4
291604.3
291863
291486.6
290584
291094
291888.6
292211.7
291861.9
291831
291794.9
291753.5
291699.9
291643.7
291567.4
291432.2
291252.6
291080.6
290967.7
290945
291018
291163.5
291334.4
291483.1
291585
291633.4
291640.6
291626.4
291617.5
291627.9
291646.2
291655.4
291648.7
291637.6
291631.7
291619.3
291611.4
291606.6
291932.5
291583.4
290779.4
291273.1
291965.9
292097.2
291818.9
291817.4
291824.7
291789.6
291717.5
291628.2
291500.5
291305.9
291059.6
290821.9
290666.2
290637.5
290751.8
290959.2
291185.2
291377.4
291511.1
291581.5
291600.2
291588.8
291573.7
291576
291597.3
291622.3
291637.9
291648.7
291658.9
291641.7
291589.8
291551
291799.9
291630
290915.1
291347.8
291808.2
291753.4
291786.1
291824.6
291858.1
291825.9
291736.8
291616.7
291446.4
291207.5
290919.3
290647.5
290467
290435.5
290573.7
290820.7
291078.1
291296.6
291451.3
291537
291563.9
291553.1
291531.3
291524.3
291543.5
291579.5
291617
291652.6
291682
291666.6
291590.5
291510.3
291440.9
291450.3
290952.7
291418.5
291828.6
291731.1
291784.2
291838
291883.4
291853.7
291757.4
291624.1
291437.5
291187.4
290898.5
290629.3
290448.6
290421.1
290560
290800.1
291049.3
291261.7
291414.1
291499.9
291527.7
291516.8
291492.8
291481.9
291500.1
291543.3
291595.4
291648
291692
291683.1
291602.2
291511
291419.2
291468.2
291007.4
291400.1
291815
291722.3
291779.8
291839.2
291890.4
291867
291778.5
291655.4
291483.8
291255.8
290996.5
290758.9
290603.3
290587.1
290708.3
290902.5
291106.3
291281.9
291407.6
291476.6
291495.7
291482.2
291459.4
291451.3
291472.8
291518.6
291573
291628.4
291676.8
291673.1
291597.4
291510.6
291420.2
291469.2
291002
291313.7
291780.8
291733.5
291776.7
291829.7
291879.1
291864.9
291797.2
291704.5
291572.2
291388.9
291176
290982.4
290859.6
290846.4
290932.7
291068.9
291213.4
291337.6
291423.6
291465.5
291469.5
291451.1
291431.4
291430.8
291457.5
291500
291543.7
291587.7
291629.4
291628
291565.2
291496.6
291429.9
291441.6
290925.9
291230.8
291936.4
292072.5
291810.3
291828.2
291859.9
291852.5
291812.1
291759.5
291676.7
291547.1
291385.7
291235.9
291141.5
291121
291166.7
291246.4
291332.2
291403.8
291448.1
291460.8
291448.3
291424.9
291409.2
291416.2
291444.7
291477.2
291502
291525.5
291553.9
291555.6
291520
291496.4
291741.2
291578.3
290834
291020.6
291834.7
292177.8
291853.1
291845.8
291842.7
291839
291825.3
291809.4
291773.3
291696.2
291585.1
291473.5
291393.6
291359.3
291367
291397.9
291433.3
291459.6
291468.3
291456.8
291431.5
291405.1
291393
291403.8
291426.5
291442.8
291446.2
291449.9
291464.3
291471.5
291478.8
291487.5
291807.6
291440.2
290598.5
290752.1
291692
292088.9
291836.4
291835.3
291823.4
291832.6
291842.8
291851.5
291850.4
291817.3
291749.3
291663.6
291586.5
291537.5
291515.1
291507.5
291503.8
291496.5
291480.4
291454
291422.3
291394.7
291382.9
291389.3
291398
291395.1
291381.5
291375.2
291375.2
291375.7
291399
291406.7
291663.3
291245.7
290279.8
291523.6
291887.1
291765.6
291790
291809.3
291837.5
291860.1
291878.9
291895.6
291890.5
291851.3
291786.6
291719.5
291663.9
291619.3
291582.5
291550.3
291520.8
291491.2
291459.3
291427.2
291398.6
291379.8
291370.7
291359.1
291338.9
291316.6
291307.2
291297.6
291283.1
291281.2
291267.3
291390.6
291003.2
291133
291789.3
291925.1
291781.9
291839
291868.4
291884.9
291903.2
291919
291921
291900.4
291862
291813.8
291759
291700.4
291642.4
291589.5
291546.1
291510.9
291478.8
291446.9
291412.6
291379
291348.2
291317.3
291288.7
291268.1
291258.9
291254.3
291240.7
291202.7
291355.6
291223
290554.4
290746.1
291498.8
291905.8
291813.8
291903.3
291936.7
291925.7
291934.9
291944.5
291942
291929.1
291907.6
291874.6
291826.1
291764.8
291697
291632.5
291580.8
291541.6
291506.1
291466.7
291420.3
291370.4
291322.6
291283.9
291258.3
291241
291237.8
291261.9
291247.5
291176.5
291286.2
290882.3
290129.3
291484.3
291960.6
292039.1
291964.3
291982.4
291957.8
291958.5
291966.9
291958.9
291939
291918.7
291893.6
291854.3
291801.3
291737.7
291674.1
291618.7
291571.4
291524.7
291471.1
291411
291350.9
291299
291265.9
291244.7
291226.8
291231.1
291272.2
291273.3
291363.9
291306.4
290830.7
291745.6
292154.6
292235.7
292035.3
291996
291978
291976.4
291963.5
291933.7
291904.6
291878.5
291846.4
291807.8
291759.9
291707.1
291651.7
291593.6
291530.7
291462.2
291394.6
291335.4
291293.4
291269.8
291250.3
291239
291260.3
291316.2
291533
291461.4
291070.6
291192.2
291871.5
292378.5
292350.9
292073.5
292017.6
291995.2
291968.4
291925.1
291888.8
291858.6
291830.3
291808
291780
291741.4
291688.3
291621.1
291544.4
291466.6
291402.2
291351
291320.3
291312.1
291304.4
291309.9
291365.6
291653.1
291685
291190.5
290517
291498.6
292078.6
292487.1
292379.9
292085.5
292045.7
291999.9
291924.8
291878.3
291852.3
291835.8
291828.7
291816.6
291789.7
291741
291672
291590.8
291509.8
291445.2
291401
291392.3
291420.7
291430.9
291449.8
291741.5
291839.3
291440.4
290862.9
291636.5
292116.9
292445.4
292329
292062.8
291999.9
291925.6
291879.1
291869
291860.9
291851.1
291840
291818.9
291777.4
291717.1
291650.3
291589
291534
291491.6
291500.2
291535.7
291572.4
291810.4
291902.6
291577.8
291090
291593.4
291988.6
292300.5
292198.3
291963.1
291920.8
291913.6
291936.4
291919.6
291872.4
291841.4
291820.5
291789.5
291750.1
291723.9
291720
291694.8
291638.9
291629.9
291652.7
291864.2
291939.3
291612.1
291202.6
291391.6
291956.5
292195.6
292135.5
292146.7
291970.1
292021.1
292012.2
291945.6
291882.5
291861.6
291843.9
291830.8
291860.7
291897.6
291895.2
291837.8
292030.3
292012.1
292068.8
291827.6
291216.4
291824.4
291832.9
292108.6