/*--------------------------------*- C++ -*----------------------------------*\
  =========                 |
  \\      /  F ield         | OpenFOAM: The Open Source CFD Toolbox
   \\    /   O peration     | Website:  https://openfoam.org
    \\  /    A nd           | Version:  6
     \\/     M anipulation  |
\*---------------------------------------------------------------------------*/
FoamFile
{
    version     2.0;
    format      ascii;
    class       volScalarField;
    location    "49.8";
    object      p;
}
// * * * * * * * * * * * * * * * * * * * * * * * * * * * * * * * * * * * * * //

dimensions      [1 -1 -2 0 0 0 0];

internalField   nonuniform List<scalar> 
203709
(
306189.7
306034.7
306039.8
306210.9
306385.8
306340.9
306259.2
306154
306174.8
306323.5
306445.8
306500.4
306206.6
306267.8
306316.3
306322.4
306436.9
306523.2
306567.2
306568.4
306531.1
306549.7
306516.6
306414
306161.1
306042.3
306097.9
306311
306536.7
306757.3
306924.9
307003
306999.3
306919.8
306759.5
306551.1
306439.2
306480.8
306054.6
305890.2
306068.2
306346.2
306664.9
306979.6
307224.5
307356.4
307377
307283.2
307088.3
306829.1
306577.1
306602.4
306012.8
305837.9
305765.5
305956.2
306279.7
306668.4
307051.3
307357.2
307546.8
307609.3
307538.1
307346.2
307066
306761.9
306623.4
306628.1
305839.4
305612.4
305688.4
305892.5
306232.2
306665.2
307092.1
307444.7
307668.3
307746.5
307691.8
307514.7
307231.5
306888.5
306569.2
306536.6
305900.8
305723.9
305624
305746.8
305977.3
306321.2
306752.8
307177.3
307522.2
307748.6
307836.9
307787.8
307618.5
307339.7
306974.7
306595.8
306386.2
306320.9
305776.5
305642.2
305746.4
305938.9
306211.3
306554.1
306939.1
307312.2
307606.3
307805.2
307881.6
307831.8
307658.5
307387
307014.4
306599.6
306231.8
306128.4
305876.7
305778.3
305935.5
306176
306472.9
306800.1
307129.2
307443.3
307679.3
307834.1
307880.4
307815.1
307635.3
307364.9
306996.1
306585.5
306221.1
306119
306171.6
306098
306138.4
306385.4
306686.3
306994.8
307276
307527.6
307720.5
307827.3
307831.2
307738.6
307553.2
307276
306919.2
306549.2
306355.3
306294.4
306382.5
306306.5
306529.8
306813.6
307098.8
307347.1
307543.1
307683.5
307748.9
307722.9
307610.7
307411.1
307127.6
306793.5
306484.9
306476.9
306586.5
306527.7
306588.4
306831.9
307091.5
307315.8
307480.9
307580.2
307607.4
307555.8
307421.1
307204.3
306921.1
306625.4
306502.7
306544.4
306640.1
306563.5
306756.3
306982.4
307178.3
307315.1
307383.6
307380.6
307315.1
307165.6
306947.7
306680.3
306434.2
306488.8
306646.9
306592.2
306649.8
306824.2
306968.7
307066.2
307105.5
307082.9
307012.3
306876
306695.5
306473.4
306362.7
306418.6
306697.4
306767.3
306802.1
306757.3
306792.6
306782.5
306749.6
306707.2
306620
306615.5
306529.7
306413.7
306849.9
306779.1
306665.1
306486.7
306451.8
306562.7
306617.5
306640.1
306590.6
306398.9
306364.3
306501.9
302479.3
302540
302736.2
302875.2
302933
302906.3
302795.5
302604.2
302357
302248.1
302487.2
302668
302792.8
302900.6
303067
303168.1
303198.1
303174.9
303099
302953.1
302742.4
302587.5
302426.3
302211.4
302720.4
302763.8
302972.9
303228.3
303416.6
303575.4
303612.8
303575.3
303559.6
303568.2
303498
303301.7
303072.3
302774.8
302523.3
302462.5
302815.8
302912.5
303144.1
303436.8
303707.5
303835
303813.1
303756.2
303534.9
303533.3
303753.9
303786
303786.4
303624
303307.3
302965
302692.9
302591.7
302760.9
302937.1
303214.5
303558.7
303779
303865.5
303899.4
303686.3
303491.6
303108.6
303124.8
303537.6
303746.9
303961
303884.3
303760.7
303479.9
303073.3
302747.2
302564.7
302574.3
302829.3
303176.8
303561.7
303731.6
303767.4
303640.2
303517.9
303172.5
303152.3
303161.8
303202.6
303269.5
303350.2
303712.2
303824.8
303909.1
303781.2
303544.1
303080.5
302672.4
302406.4
302779
303039
303449.7
303749.7
303719.2
303343
302999.7
303023.8
303123.3
303262.8
303387.1
303460.7
303489.1
303477.5
303440.3
303414.1
303690.4
303977.7
303890.7
303484.6
302977.8
302661.6
302618.9
302911.2
303274.3
303659.4
303726.8
303427.3
302803.8
302744.9
302879.7
303110.1
303365.5
303578.3
303705.5
303748.9
303700.6
303592.1
303477.4
303460
303930.9
304057.7
303837.1
303305.2
302835.8
302497.4
302695.3
302997.7
303416.1
303692.8
303576.9
303075.5
302508.1
302509.1
302714
303026.5
303365.5
303650.3
303840.3
303919.8
303882.4
303754
303581.3
303468.1
303808.5
304101
303981.4
303518.7
302965.6
302581.8
302898.6
303147.7
303530.7
303593
303230.5
302487.5
302285.9
302344.1
302597
302969.5
303359.7
303689.3
303910.7
304006.3
303980.1
303850.7
303653
303461.3
303406.9
303849
303943.1
303674.4
303138.6
302790.7
303055.1
303258.7
303553.4
303476
302985.8
302354.7
302240.2
302343.4
302619.1
303005.3
303399
303730.2
303957
304060.3
304040.2
303912.7
303703.4
303464.8
303307.3
303611.6
303857.2
303699.7
303239.8
302936.5
303148
303329.9
303561.8
303301.8
302619.1
302388.4
302368.4
302515.6
302792.6
303144.8
303495.4
303787.7
303989.8
304081.6
304057.7
303928.4
303716.3
303456.2
303234.2
303184.2
303608.1
303655.7
303275.8
303005.8
303174.5
303374.8
303627.9
303395.8
302745.8
302565.2
302591.5
302760.6
303020.3
303322.6
303615
303852.5
304011.2
304073.1
304032.7
303897
303685.3
303429
303211.2
303166
303593.8
303642.4
303264.3
302996.6
303127.9
303379.6
303734.4
303741.9
303339.4
302834.6
302837.4
302998.7
303231.9
303481.3
303713.1
303896
304006.4
304030.2
303966.4
303821.9
303613.1
303383.1
303235
303556.7
303807.6
303650.3
303196.7
302904.2
303004.3
303317
303774.6
303941.8
303711.5
303124.6
303061.5
303181.9
303377.3
303580.4
303757.6
303888.6
303954.7
303945.1
303860.4
303707.1
303508.2
303326
303285.1
303753.3
303842.2
303583.1
303053.9
302725.1
302816.5
303183.2
303684.7
304069.3
304088.6
303710.5
303259.3
303297.3
303442.9
303603.1
303735.9
303822.3
303851.2
303816
303715.3
303559.8
303385
303282.9
303647.2
303969.8
303839.4
303385.1
302843.7
302484.1
302755.5
303102.2
303548.3
304030.7
304183.5
303978.4
303426.2
303373.1
303452.5
303558.6
303646
303693.5
303694.3
303646.3
303546
303410.9
303283.1
303271.9
303775.5
303902.9
303680.4
303156.5
302700.1
302387.3
303000
303328.7
303815.5
304176.8
304191.1
303865.8
303516.5
303498.3
303507.2
303526.1
303528
303510.1
303471.8
303409.9
303351.3
303314.6
303604.3
303898.6
303784.4
303366.5
302858
302543.1
302820.8
303135.2
303545
303983.2
304178.8
304245.2
304119.7
303982.8
303573.6
303476.8
303399.3
303370.4
303388.5
303427.2
303775.9
303864.4
303941.1
303794.3
303526.1
303044.1
302621.7
302329.6
303089.9
303311.4
303633.4
304015.6
304254.4
304347.6
304364.4
304120.5
303890.3
303433.6
303400.2
303781.6
303955.2
304148.4
304042.3
303888.6
303588.9
303152.6
302784.2
302535.1
303205.4
303343.3
303607.3
303917.2
304199.2
304313.4
304273.3
304184.2
303928.4
303895.4
304091.2
304092.4
304060.7
303870.1
303529
303163.7
302837
302644.6
303143.1
303220.4
303447.7
303718.4
303902.4
304049.7
304066.9
304005.4
303967.9
303961.3
303866.1
303645.9
303385.2
303051.5
302761.5
302623.4
302914.5
303117.5
303263.9
303372.4
303532
303623.4
303637.4
303600.4
303514.8
303351.4
303120.1
302930.3
302715.6
302477.4
302892.6
302968.9
303161.4
303289.3
303329.5
303291.9
303178.3
302981.6
302728.6
302608.1
298642.6
298625.6
298743
298801.6
298773.8
298660.7
298486.3
298444.4
298555.4
298761.2
299083.8
299152.9
299213.4
299324.5
299375.3
299346
299237.8
299073
298956.2
298832.6
298470.1
298234
298992.6
299025.3
299289.2
299525.8
299674.9
299837.2
299955.6
300006.2
299976.2
299866.9
299693.8
299481.5
299285.6
299010.9
298714.6
298638.8
298610.9
299043.2
299366.8
299559.9
299703.9
299864.1
299833.4
299962.9
300060.3
300099.2
300070.4
299974.9
299824.1
299646.3
299633.9
299434.2
299260.1
299027.4
298674.9
298217.1
298670.3
298970.8
299428.5
299713
299871.7
299831.1
299802.8
299567.3
299613.3
299651.7
299660
299634.8
299576.7
299490.9
299400
299587.7
299580.2
299593.8
299394.8
299074.2
298589.7
298272.9
298639.6
298990.4
299479.6
299820.9
299978.8
299802.7
299586.9
299623.8
299647.3
299642
299609.9
299580.2
299561.6
299554.6
299549.2
299516.5
299453
299377.9
299553.8
299696.9
299495.8
299121.2
298600.4
298246.8
299089.4
299467.4
299844.1
300052.3
299893.1
299638.7
299671.6
299702.8
299692.9
299638.1
299544
299466.4
299459.1
299520.9
299592.1
299619.5
299594.5
299524
299449.6
299657
299782.8
299526.6
299113
298720.7
299057.1
299441.7
299780.9
300026.5
299918.6
299674.3
299674.2
299686.2
299676.8
299616.4
299529.8
299432.6
299357.3
299367
299456.6
299556.2
299631.9
299661.9
299631.2
299570.3
299518.7
299705.3
299776.1
299483.6
299112.5
298725.5
298633.3
299125.9
299666.6
299972.2
299874.1
299676.6
299685.9
299647.8
299575.5
299509.8
299441.6
299378.8
299360
299367.7
299400.4
299452.7
299514.3
299586.1
299633.2
299654.4
299663.6
299638.5
299565.6
299692.7
299749.6
299398.8
298835.2
298346.6
298861.4
299417
299839.8
299947
299662.3
299703.6
299678.2
299541.2
299368.9
299264
299253.1
299305.5
299398.3
299490.4
299554.7
299592.8
299604.8
299597.6
299597.8
299644.6
299732.8
299777.9
299715.9
299590.5
299800
299630
299173.6
298614.5
299210.2
299677.3
300019.6
299928.5
299688.5
299693.8
299582.9
299343.1
299097.2
299010.5
299066.5
299218.2
299409.7
299583.8
299701.6
299759.2
299750.6
299704.2
299658.8
299666.8
299777
299867
299837.4
299709.9
299837.1
299852.8
299463.7
298987.7
298744.4
299316.7
299859.6
300003.4
299682.9
299679.6
299606.5
299375.1
299053.8
298784.1
298716.5
298820.7
299047.3
299326.6
299579.7
299763.3
299859.5
299862.5
299798.1
299706.5
299657.8
299721.8
299823.4
299852.2
299765.2
299642.7
299856.6
299650.3
299073.3
298481.7
298762.3
299406.7
300047.2
300147
299725.2
299642.1
299474.5
299148.2
298761.8
298511.2
298467.7
298619.6
298911.9
299252.2
299553.8
299770.9
299885
299897.1
299828.2
299714.8
299616.1
299605
299703.9
299783.1
299758.8
299699.3
300002.3
299831.4
299146.8
298488.8
298910.1
299544.1
300190
300267.2
299778.8
299605.7
299344.4
298983.3
298614
298400.9
298384.6
298566
298885.6
299238.2
299549.6
299776.4
299898.8
299916.7
299846.5
299719.1
299584.3
299513.2
299565.5
299664.6
299718.5
299741.2
300112.3
299966.9
299275.5
298623.2
298992.8
299622.1
300272.3
300342.1
299826.5
299615.1
299300.4
298928.2
298631.4
298479.9
298498.6
298685.6
298983.4
299303.2
299584.6
299790.5
299901.5
299914
299840.5
299706.7
299554.1
299446.3
299451.2
299567.7
299685.1
299756.5
300167
300038.5
299350.5
298705.5
298986.1
299623.1
300281.8
300362.2
299862.2
299670
299382.7
299044.9
298793.9
298686.6
298728.7
298902.2
299155.2
299419.4
299648.3
299812.2
299893.8
299889.2
299808.2
299673.7
299524.1
299420.4
299429.8
299549.7
299668.9
299741.9
300156.5
300030
299345.4
298703.1
298900.8
299549
300216.9
300323.6
299877.9
299756
299567.5
299297.6
299046.4
298945.5
298988.6
299136
299335.5
299538.1
299709
299823.9
299868.9
299841.6
299751.8
299621.8
299493.8
299432.9
299498.5
299605.5
299663.6
299691.5
300076.4
299936.2
299253.2
298608.6
298764.4
299419.1
300088.5
300231.1
299869.2
299852.6
299776
299568.9
299322.2
299201.9
299221.2
299330.7
299477.8
299623.3
299739.9
299808.7
299819.2
299771.3
299675.2
299557.1
299465.5
299466.6
299582.7
299671
299655.2
299604.1
299931.7
299766.3
299090.7
298443.4
298752.4
299334.8
299915.2
300105.7
299850.9
299917.6
299929.3
299807.5
299602.3
299434.9
299404.9
299466.6
299564
299659.2
299728.9
299759.2
299743.5
299682.3
299588.3
299492.4
299451.7
299531.2
299652.4
299692
299614
299503.3
299750.3
299540.4
298965.6
298392.9
299255.9
299757.3
300144.2
300109.7
299941.1
300016.5
299981.3
299820
299630.6
299550.9
299559.7
299603.9
299650.1
299678.5
299680
299650.7
299591.4
299515.7
299453.4
299461.1
299583.5
299682.2
299659.4
299539.2
299685.8
299727.1
299317.5
298827.1
298925.4
299514.5
299982
300150.6
299936.8
300038.6
300062.6
299968.5
299824.7
299715.4
299666.8
299641.1
299628.7
299614.5
299596.4
299571.7
299538.4
299508.8
299494.1
299534.8
299619.5
299651.8
299578.7
299448.7
299667.4
299485.1
299014.4
298440.6
298705.7
299243.3
299837.3
300200.9
300168.3
300029
300077.1
300064.9
300011.6
299945.7
299856.1
299742.6
299655.8
299587.7
299556.9
299560.6
299581.3
299626.3
299649.6
299651.7
299641.1
299592.4
299502.6
299633.2
299672.5
299276.8
298688.1
298167.8
299199.9
299636.9
300034.9
300342.6
300283.4
300079.1
300106.2
300134.2
300127
300051.1
299932
299791.1
299659.7
299620.5
299671.2
299736.3
299781.8
299779.9
299721.1
299632.2
299552.5
299726.3
299769.4
299436.3
299029.4
298592.7
299309.9
299743.7
300175.5
300435.8
300318.2
300087.4
300132.5
300167.7
300146.7
300069.1
299942.5
299827.4
299785.2
299816
299855.9
299852.3
299792.9
299690.7
299584.8
299769.7
299856
299553
299108.5
298680.1
298864.4
299276.2
299826.6
300213.3
300410.6
300259.3
300050.7
300091.1
300106.7
300084.8
300029.8
299974.2
299931.4
299902.4
299871.3
299809.5
299711.6
299603.7
299750.3
299859.1
299611
299193.2
298637
298226.9
298961.9
299314.8
299815
300135.7
300324.9
300294.6
300266.9
300021.1
300055.8
300080.9
300072.8
300032
299958.8
299851.8
299736.7
299904.5
299867.3
299840
299596
299241
298717.1
298361.9
298925.7
299392.4
299763.2
299983.5
300136
300307.2
300279
300405.4
300497.3
300524.7
300488.1
300387.1
300223.4
300028.1
299993.1
299755.3
299550.5
299302.4
298914.8
298437.6
299335.1
299409.3
299683.7
299929.3
300084
300248.5
300367
300408.9
300379.6
300277.1
300100
299880.8
299682.8
299397.3
299089.5
299059.4
298893.3
299110.8
299437.2
299525.7
299598.6
299718
299772.2
299754.4
299660.6
299500.4
299386
299283.6
298956.8
298783.9
298995.8
298987.1
299117.5
299195.1
299189.1
299096.2
298955.1
298992.2
294897.9
294791.7
294817.1
294798.8
294726.7
294788.3
294702.9
294947.4
295340.1
295615.9
295521.3
295483.3
295507.1
295484
295410.6
295391.6
295423.9
295119.1
294696.9
294427
294601.1
295092.1
295340.6
295556.1
295784.5
295929.4
295801
295830.1
295849.5
295822.5
295749.8
295664.4
295739.3
295556.6
295304.4
295068.6
294796.7
294308.1
295051.6
295311.5
295598.1
295802.7
295847.7
295979.6
295952.2
295686.6
295697.6
295707.4
295677.5
295609.4
295543
295758.9
295748.7
295587.8
295524
295297.4
294995.1
294717.6
295360.6
295568.1
295819.2
296034.4
295846.8
295625.4
295663.4
295706
295744.5
295787.1
295803
295771.6
295694.8
295595.8
295509.1
295427.7
295359.8
295555.7
295721.5
295488.1
295213.5
294987.6
295443.4
295643.2
295904.2
295993.5
295989.1
295671.2
295643.1
295645.5
295664.5
295709.6
295750.1
295761.2
295729.9
295658.4
295562.2
295469.1
295411.2
295377.4
295378.2
295666.7
295651.5
295540
295264.6
295059.5
295385.5
295659.5
295892.2
295849.9
295703.5
295703.1
295662.5
295640.9
295628.4
295618.3
295634.3
295647.3
295642.5
295614.3
295564.1
295499.8
295437.5
295406.3
295386.1
295380.5
295392.5
295365.4
295483.3
295509.6
295275.5
295004.6
295092.3
295610.9
295947.6
295874.2
295703.4
295720
295707.5
295658.3
295628.1
295624.4
295620.2
295609.5
295588.6
295564.9
295542.7
295522.8
295501.2
295471.2
295436
295405
295403.6
295422.7
295403.9
295355.5
295494.6
295559.7
295228.7
294714.5
294652.2
295374.7
295889.6
296057.2
295750.1
295745.3
295746
295704.3
295658.7
295646.1
295640.3
295621.3
295585.6
295538.4
295499.9
295487.6
295500.6
295519
295522.9
295506.8
295477
295454.5
295464.1
295470.9
295434.1
295405.8
295691.3
295519
294998.3
294272.4
295145.3
295677.3
296125.7
296073.4
295775.4
295759.1
295730.4
295688.6
295660.4
295639.2
295613.8
295575.3
295528.9
295483.3
295453.7
295456.7
295488.5
295527.2
295555.5
295563.9
295551.2
295531
295517.7
295516.6
295505.2
295485.9
295747.8
295786.9
295327
294785
294730.4
295419.2
295913.3
295961.5
295783.8
295762.5
295734.6
295707.3
295680.2
295633.1
295574.1
295522.1
295480.3
295453
295449
295462.5
295487.2
295518.7
295551.8
295579.7
295597.1
295605.9
295610.9
295603.7
295579.5
295556.1
295541.4
295528.3
295674.4
295609
295087.8
294408.9
294997.9
295658
295978.2
295765.6
295782.7
295762.6
295723.3
295705.5
295653.9
295556.6
295447
295374.1
295356.4
295388.2
295456
295529.2
295585.3
295623
295639.8
295638.9
295639.5
295656.5
295689.7
295707
295682.4
295635.3
295619.2
295590.9
295534.7
295717.3
295373
294711.3
295412.3
295900.8
296129.8
295827.4
295808.5
295768.2
295725.3
295679.4
295568.4
295401.7
295239.6
295156.9
295171.5
295268.4
295411.4
295554.7
295662.8
295727.7
295742.9
295730.4
295714
295717.2
295756.2
295788.7
295774.3
295721.2
295684.4
295658.5
295627
295890.9
295633.1
295143.7
295690.5
296062.5
296125.2
295896.7
295847.8
295765.3
295703.8
295602
295408.8
295162.8
294948.4
294851.8
294888.1
295043.6
295265.2
295485.3
295659.5
295767.4
295802.2
295783.3
295740.2
295716.8
295739.9
295778.9
295789.7
295756.9
295717.6
295716.5
295702.3
295879.7
295781.3
295417.3
294926.7
295621.6
295960.8
295888.2
295962.9
295914.8
295788.6
295670.9
295497.9
295232
294920.9
294667.3
294561.8
294626.3
294839.5
295127.6
295399.4
295610.4
295740
295787.2
295769.8
295717.7
295671.1
295667.2
295706.7
295744.7
295750
295747.9
295781.5
295763.7
295638.9
295671.4
295319.8
294587.7
294852
295613.2
296021.5
295928.8
296035.3
295983.2
295821.1
295650.3
295419.7
295113.3
294780.7
294523.1
294419.8
294508.5
294753.1
295060.5
295349.5
295575.2
295716.6
295771.6
295755.3
295695.1
295628.8
295598
295624
295678.2
295724
295767.4
295837.6
295827.4
295672.5
295721.4
295285.8
294496.6
294902.5
295660.8
296066.1
295967.7
296084.7
296031.7
295854.8
295662.3
295409
295099.3
294792.3
294566
294483.4
294578.2
294810.4
295092.6
295358.5
295567.7
295699.3
295749.8
295730.7
295666.2
295590.6
295544.7
295559.1
295623.6
295697.7
295770.8
295865.8
295866.4
295707.9
295765.9
295328.4
294541.1
294888.5
295649
296058.3
295968
296092.3
296048.4
295883.7
295708.4
295479.5
295201.9
294937.1
294752.1
294694.2
294781.3
294975.3
295205.2
295420.5
295588.7
295691.3
295724.1
295696.7
295630.5
295557.2
295515.2
295533.6
295601.1
295677.3
295752.9
295851.7
295856.5
295701.8
295763.9
295327.5
294540
294829.4
295591.5
296007.3
295932.5
296058
296031.1
295902.4
295776.8
295609.1
295387.4
295162.3
295008.4
294965.4
295033.8
295178
295346.6
295502.5
295620.3
295685.1
295693.8
295655.3
295590
295528.8
295507.4
295543.9
295605.8
295657.6
295708.6
295790.3
295791.3
295645.9
295706.1
295270.4
294482.1
294908.9
295600.4
295950.6
295898
296000.6
295989
295909.5
295849.6
295754.9
295594.9
295408.6
295273.8
295231.3
295272.4
295365.7
295475.8
295575
295643.9
295671.8
295657.1
295609.1
295548.7
295506.4
295512.5
295564.7
295613.1
295628.6
295638.4
295690.6
295687.3
295573.5
295621.9
295259.9
294537.5
295677.4
296059.1
296138.9
295948.8
295943.2
295912.7
295907.9
295877.9
295781.5
295639.3
295515.3
295457.1
295463.8
295510.6
295569.8
295620.3
295648.4
295646.7
295615.4
295564.3
295514.2
295494.7
295526.5
295578.8
295602.2
295581.7
295556.9
295578.5
295577.6
295764
295681.4
295289.2
295391.3
295895.3
296154.3
295897
295925.4
295938.3
295949.3
295963.6
295924.1
295825.4
295710.2
295633.6
295607.4
295611.9
295626.7
295637
295634.5
295615
295578.7
295534.3
295498.8
295497.2
295537.9
295574.1
295566.1
295520.8
295497
295486.9
295457.8
295723.7
295460.6
294957.7
294978.8
295655.3
296015.5
295852.3
295920.2
295958
295975.3
296010.7
296009.5
295950.7
295860.7
295782.7
295730.1
295693.3
295666.1
295641.8
295618.7
295594.5
295566.9
295540.6
295521.3
295522.9
295542.9
295545.5
295509
295454.8
295439.9
295406.6
295344
295525.4
295162.4
294482
294725.7
295433.8
295967.1
296068.4
295943.9
295980.8
296011.2
296034.1
296044.2
296022.6
295978
295923.5
295858.5
295786.2
295719.4
295663
295626.6
295609.1
295599.9
295594.6
295581.2
295562
295540.3
295504.9
295457.6
295422.3
295397.9
295363.7
295497
295414.2
294875.5
294165
295189.2
295753.1
296256.5
296259.3
296018
296055.9
296075.2
296068.4
296062.3
296053.2
296027.1
295971.1
295892.1
295802.7
295722.8
295678.2
295668.4
295668.1
295659.4
295629.5
295580.5
295522.9
295473.1
295445.3
295413.9
295375.1
295622.9
295630.3
295132.7
294575.7
294706.2
295471.4
296033
296262.2
296014.7
296062.6
296108.7
296099.8
296071.5
296066.7
296059.6
296026.2
295965.3
295884.3
295808
295759
295737.8
295721.2
295687.5
295629.4
295559
295493.6
295466
295442
295378.5
295332.8
295593.5
295369
294816
294056.6
295210.9
295780
296172.8
296158.1
296036.6
296092.4
296106.2
296069.5
296041.6
296033.6
296015.8
295984.4
295936.8
295884.5
295835.1
295788.8
295737.4
295672.1
295596.4
295526
295482.2
295465
295414.4
295343.3
295467.6
295492.3
295107.2
294538.1
295571.4
295899.5
296192.1
296192.6
296075.5
296093.4
296062.9
296040.1
296018.4
295993.8
295993.3
295986.7
295961.6
295914.2
295844.5
295756.4
295664.8
295599.5
295544.3
295501.6
295481.3
295428.5
295530.4
295524
295243.4
294924.4
295685.2
295936.9
296244.2
296360.9
296369.6
296051.5
296018.6
296013.3
296021.2
296056.2
296084
296080.7
296037.1
295953.8
295841.1
295724.9
295638.4
295576.4
295558.7
295840.1
295795
295657.5
295356.5
295115.7
295646
295891.6
296162.6
296399.5
296213.1
295980.1
296009.4
296043.5
296075.8
296111
296118.3
296082.5
296003.9
295899.4
295802
295707
295628.4
295829.6
295988.6
295734.1
295455.7
295225
295370.3
295651.5
295941.8
296157.7
296201.2
296327.2
296292.9
296016.1
296025.6
296036.8
296011.8
295950.5
295893.1
296129
296126.1
295969.3
295917
295711.8
295406.8
295178.1
294952.7
295431.3
295688.7
295913.1
296142.1
296283
296153.7
296193.5
296230.8
296219.4
296157.5
296093.9
296210.9
296064.3
295841.5
295639
295413.3
294976.2
295081.8
295323.1
295725.2
295998
295909.7
295891.5
295948.6
295951.1
295896.8
295914.1
296024.5
295795.8
295476.2
295328.7
295370.5
295275.9
295350.1
295368.4
295340.7
295507.7
290883.9
291130.7
291325.3
291391.3
291445.2
291433
291334.4
291215.8
290995.8
290728.1
290804.5
291197.2
291604
291766.3
291893.2
291978
291802.5
291801.7
291781.8
291732.4
291858.7
291745
291595.7
291390.7
290973.6
290594
291483.5
291500.8
291801.7
291910.9
292103.6
292181
292065.1
291695.2
291650.2
291625.2
291617.3
291933.8
292015
291913.6
291692
291569.8
291282.2
291259.8
291098.2
291672.6
291903
291857.8
291888.6
291728.3
291792.1
291796.5
291738.3
291677.9
291650
291621.5
291592.7
291599.4
291616.6
291583.3
291498.3
291644.8
291607.5
291646.7
291412.9
290846.5
291368.4
291744.3
292036.1
291932.1
291714.8
291687.2
291694.9
291735.2
291733.9
291697.4
291675.3
291658.3
291626.8
291583.1
291549.8
291542.4
291511.2
291448.6
291425.6
291440.1
291643.4
291741.3
291453.2
291062.9
291475.3
291919.5
292214.5
292077.2
291812.8
291753.6
291692.5
291660.9
291668.9
291677.4
291679.6
291681.7
291672
291638.4
291584
291524.5
291475.7
291432.2
291398.9
291411
291457
291500.5
291752.6
291886.6
291600.3
291153.1
291398.6
291936.2
292300.1
292158.3
291841.2
291788.7
291742.6
291674.5
291639.8
291630.4
291631.5
291640
291645
291634.4
291599.9
291545.3
291482.6
291427
291389.3
291371.2
291382.9
291431.3
291461
291501.5
291812.5
291961.9
291613
291072.2
291157.4
291793.3
292253.3
292179.6
291862.8
291774.9
291730.4
291693.8
291649.3
291619.5
291602.6
291592
291588.8
291582.7
291565.8
291533.2
291488.1
291439.1
291396.3
291369.2
291356.4
291361.7
291383.9
291401.4
291432.6
291515.3
291829.8
291912.1
291457.6
290811.4
291736.7
292102.2
292136.1
291887
291799.6
291740.5
291706.4
291672.5
291633.2
291604
291586.5
291571.3
291555.2
291534.6
291510.5
291483.2
291454.3
291426
291399.3
291377.4
291364.2
291367.1
291382.1
291394
291409.6
291456.8
291541.1
291787.6
291751.3
291381
291554.7
291987.4
292014.4
291891.6
291857.1
291779.6
291732.5
291699.7
291661.6
291625.2
291599.9
291579.7
291557.2
291530.4
291500.7
291474.2
291455.7
291445.2
291437.9
291428.5
291416.1
291404.6
291401.3
291409.8
291420.9
291429.7
291459.9
291528.9
291556
291659.9
291611.5
291158.6
290873
291586.7
291952.5
291812.7
291852.4
291833.3
291769
291726.4
291690.4
291653.1
291618.6
291587
291556.9
291526.7
291498
291473.7
291458.2
291454.1
291459
291466.8
291471
291469.6
291464.4
291460.9
291462.2
291467.3
291474.2
291494.3
291540.7
291544.6
291486
291596.3
291212.9
290479.9
291249.5
291877.3
291984.6
291800.3
291810.4
291789.2
291751.7
291716
291683
291646
291598.5
291546.6
291502.1
291470.2
291454.6
291457
291471.4
291488.7
291505.1
291519.3
291527.2
291531
291533.6
291537.4
291539.5
291537
291534.4
291541.1
291554.3
291550.5
291514.4
291665.8
291552.8
290904.5
291647.3
291994.5
291841.9
291827.7
291802
291780.6
291749.5
291715
291681.2
291625.4
291545.4
291462.8
291402.7
291380.5
291399.3
291450.7
291511
291559.9
291594.2
291609.9
291609.1
291607.1
291611.2
291623.2
291631.2
291625.8
291614
291609.7
291604.7
291591
291584.3
291569.3
291700.8
291342.2
290909.3
291830.3
292204
291919.5
291886.5
291834.1
291797.3
291757.1
291715.2
291660.7
291560.3
291427.4
291300.2
291219.9
291209.1
291268.7
291377.5
291497
291595.6
291662.7
291689.3
291693
291689
291688
291700.3
291711.5
291706.4
291687.2
291670.9
291659.4
291649.8
291664.5
291667
291925.1
291546.3
290645.6
291162.3
291959.1
292284.3
291935.3
291904.6
291867.7
291823.7
291764.4
291698.2
291601.1
291436
291230
291040.9
290927.1
290918
291017.5
291190.5
291381.7
291545.3
291659.2
291713.7
291722.8
291707
291696.3
291704.9
291720
291726.6
291717.9
291705.8
291700.4
291689.6
291683.2
291680
292007.6
291658.7
290856.6
291342.7
292037.7
292170.4
291892.8
291890.9
291896.4
291857.1
291776.4
291672.5
291519.9
291293.3
291020.3
290769.1
290622.3
290620.7
290768.2
291006.1
291250
291453.6
291594.1
291667.1
291685.9
291673
291655.9
291656.2
291675.2
291698.2
291711.9
291721.5
291731.5
291715.3
291664.9
291628.1
291878.7
291709.6
290995.7
291418
291880.5
291826.9
291859.9
291897.7
291928.8
291891.6
291793
291657.4
291463.9
291198.3
290888.5
290609.7
290447.2
290454.8
290627.9
290894
291162.1
291385.9
291542.7
291627.8
291652.6
291639.1
291614.5
291605
291621.8
291655.9
291691.8
291726.3
291755.1
291740.2
291665.3
291587
291519.4
291530.2
291033.7
291489.1
291900.9
291804.5
291857.6
291910.5
291953.6
291919
291814.1
291667.4
291462.5
291193.6
290892.6
290626.3
290470
290482.9
290651.2
290898.2
291149.1
291360.8
291510.8
291593.3
291617.5
291603
291575.7
291561.8
291577.5
291618.8
291669.5
291721.1
291764.6
291755.9
291676
291586.1
291496.1
291546.7
291087.2
291470.8
291887
291795.2
291852.6
291911.1
291960.2
291932.8
291837.4
291704.4
291520.2
291280.9
291018.2
290790.3
290659.9
290673.5
290812.3
291009.4
291211.3
291383.1
291504.2
291568.5
291583.4
291566.3
291540.4
291529.7
291549
291593.1
291646.3
291701
291749
291745.4
291670.3
291584.4
291495.4
291545.8
291080
291384
291852.1
291805.4
291848.8
291901
291948.6
291931.2
291858.6
291759.2
291619.1
291430
291217.9
291035
290932.7
290938.5
291034.6
291172.2
291314
291433.8
291514.9
291552.3
291552.5
291531.1
291509.3
291507
291532.4
291573.8
291616.8
291660.3
291701.8
291700.4
291637.8
291569.5
291503.5
291516.1
291001.5
291300.7
292006.8
292143.3
291881.3
291898.6
291928.9
291919.1
291875.2
291818.2
291730.7
291598
291438.4
291296.7
291215.5
291206.9
291258.1
291338.5
291422.1
291490.2
291530.6
291540
291524.9
291499.8
291483.1
291489.7
291518.1
291550.5
291575.1
291598.5
291626.8
291628.4
291592.7
291569
291813.9
291651.3
290907.4
291089.7
291904
292247.4
291922.7
291914.9
291910.5
291905.1
291888.9
291869.7
291830.2
291751.2
291641.6
291534.7
291460.5
291432.3
291443.7
291475.5
291509.8
291534.2
291540.7
291527.6
291501.2
291474.5
291462.8
291474.4
291498.1
291515.2
291519.2
291523.2
291537.6
291544.7
291551.8
291560.1
291879.9
291512.4
290670.8
290820.4
291760.4
292157.5
291904.7
291902.9
291889.7
291897.3
291904.9
291911
291907.3
291872.2
291802.4
291716.4
291641.6
291596.8
291577.4
291571.2
291567.8
291560.1
291543.6
291517.1
291485.7
291459.2
291448.8
291457.1
291467.7
291466.3
291453.8
291448.1
291448.4
291448.8
291471.8
291479.1
291735.3
291317.4
290351.6
291591.1
291954.6
291832.6
291856
291873.9
291900
291920.1
291935.8
291948.7
291939.2
291896
291830.2
291765.5
291712.9
291670.8
291635.7
291604.6
291575.9
291547.1
291516.3
291485.6
291458.9
291442.4
291435.8
291426.7
291408.4
291387.4
291378.9
291369.8
291355.2
291353.2
291338.9
291461.9
291074.1
291199.4
291855.6
291990.8
291846.5
291902
291929.2
291942.7
291956.8
291968
291965.8
291942.9
291903.7
291856.2
291802.7
291745.5
291689
291637.5
291595.5
291561.8
291531.4
291501.6
291469.7
291438.8
291410.8
291382.4
291355.9
291336.8
291328.5
291324.5
291311.1
291272.9
291425.6
291292.9
290624
290811.7
291564
291970.5
291877.3
291965.2
291996.3
291982.4
291987.9
291993.7
291987.6
291972.1
291948.9
291915.3
291867
291806.6
291739.9
291676.8
291626.7
291589.4
291555.9
291518.8
291475
291427.8
291382.7
291346.3
291322.8
291307.2
291304.9
291329.2
291315.2
291244
291353.7
290949.9
290197.4
291548.9
292024.4
292101.9
292025.4
292041.2
292013.9
292011.1
292015.9
292004.7
291982
291959.9
291933.7
291894.3
291841.7
291779.2
291716.9
291663.1
291617.6
291572.9
291521.5
291463.9
291406.3
291356.8
291325.7
291306.1
291289.8
291295.2
291336.5
291337.7
291428
291370.7
290895.5
291808.5
292216.5
292296.1
292093.7
292051.7
292030.5
292025.7
292009.6
291977.2
291946.3
291919.2
291886.7
291848.5
291801.4
291749.8
291695.8
291639.3
291578.1
291511.6
291446.1
291388.9
291348.8
291326.9
291308.7
291298.7
291320.9
291377.2
291593.8
291522.4
291131.7
291254.7
291933
292438.3
292408.9
292129
292070.4
292045.1
292015.5
291970
291932
291900.8
291872.1
291850.1
291822.6
291784.9
291732.9
291666.9
291591.6
291515.5
291452.7
291402.9
291373.5
291366.4
291359.6
291366.1
291422.4
291710.1
291742.2
291247.8
290574.8
291559.9
292138.5
292545.1
292435.7
292138.8
292096.6
292048.7
291971.6
291923.7
291896.8
291879.9
291872.9
291861
291834.6
291786.7
291718.6
291638.4
291558.5
291495.1
291451.8
291443.6
291472.3
291482.7
291502.1
291793.8
291892.1
291493
290916.3
291696.7
292175.7
292502
292383.7
292115.5
292050.7
291974.9
291927.1
291916.1
291907.6
291897.5
291886.4
291865.6
291824.5
291764.8
291698.7
291638.1
291583.7
291541.5
291549.8
291584.5
291620.1
291858
291949.6
291624.1
291137
291653.5
292047.1
292356.9
292253.3
292016.3
291972.7
291964.4
291986.3
291969
291921.4
291890.2
291869.3
291838.5
291799.4
291773.6
291769.9
291744.7
291688.1
291678
291698.5
291907.4
291979.8
291650.1
291240.3
291452.2
292015.5
292252.8
292191.3
292201.5
292023.7
292073.9
292064.3
291997.3
291933.9
291912.9
291895.2
291882
291912
291948.7
291945.8
291887
292076.9
292055.2
292107.3
291857.7
291242.2