/*--------------------------------*- C++ -*----------------------------------*\
  =========                 |
  \\      /  F ield         | OpenFOAM: The Open Source CFD Toolbox
   \\    /   O peration     | Website:  https://openfoam.org
    \\  /    A nd           | Version:  6
     \\/     M anipulation  |
\*---------------------------------------------------------------------------*/
FoamFile
{
    version     2.0;
    format      ascii;
    class       volScalarField;
    location    "49.8";
    object      p_rgh;
}
// * * * * * * * * * * * * * * * * * * * * * * * * * * * * * * * * * * * * * //

dimensions      [1 -1 -2 0 0 0 0];

internalField   nonuniform List<scalar> 
203709
(
122694.1
122672.3
122638.9
122600
122752.9
122744.8
122735.2
122713.4
122688.1
122655.9
122612.8
122574.9
122786.7
122787.8
122784.9
122768.1
122754.9
122739.7
122725.3
122709
122686.3
122659.5
122625.5
122592.9
122784.3
122792.4
122780.1
122765.1
122753.7
122753.9
122759.1
122766.3
122767.5
122760
122746.2
122724.2
122694.8
122687.1
122748.4
122743
122725.3
122713.5
122718.6
122741.9
122775.6
122814.3
122839
122849.2
122847.9
122836.5
122815.9
122794.1
122674.8
122666.8
122656.1
122644.5
122641.9
122667.2
122725.4
122799.2
122869.7
122914.9
122942.6
122955
122953.2
122934.9
122902.3
122871.2
122534.3
122492
122480.7
122501.2
122550.3
122616.6
122701
122811.6
122910.7
122978
123021.3
123040.1
123032.5
123000.7
122953.4
122903.8
122360.3
122301.9
122221.1
122208.4
122272
122395.9
122536.3
122675
122805.9
122902.1
122966.6
123003.2
123014.1
123002.4
122973.5
122934.7
122891.4
122834.7
122214.2
122069.3
121950.7
121936.2
122048.2
122236.5
122430.1
122591.1
122721.1
122813.1
122876.8
122912.6
122930.6
122930.7
122917.9
122896.5
122869.2
122835.4
122150.3
121978.8
121843.7
121843.3
121975.2
122170.1
122366.9
122533.8
122662.2
122750.8
122808.7
122842.6
122862.8
122870.7
122870.7
122865.2
122855.1
122835.9
122197.4
122054.7
121956.9
121961
122053.8
122199.4
122361.7
122512.6
122632.9
122716.1
122768
122798.9
122817.9
122829.3
122836.8
122841.9
122843
122829.2
122201.2
122144.7
122142.2
122198.4
122297.8
122416.6
122530.4
122627.2
122701.6
122751.6
122781.7
122799.1
122809.7
122817.8
122825.2
122823.3
122371.7
122346.5
122336.5
122363.8
122423.3
122501.7
122582.2
122654.5
122712.3
122754
122780.8
122796.8
122805.2
122810.4
122816.3
122804
122517.5
122511.3
122516
122545.6
122593.6
122644.3
122693.9
122733.6
122768.6
122790.9
122804.6
122811.6
122813.3
122811.3
122650.7
122649.9
122641.3
122654.9
122683
122712.7
122744.6
122767.7
122791.8
122808.3
122820
122825.9
122827.4
122819.1
122741.3
122732.9
122750.4
122761.9
122778.4
122794.8
122805.1
122820.7
122831.8
122842
122835.8
122829.7
122810.2
122814.8
122836.6
122843.4
122844.8
122853
122850.6
122853.7
122863.9
122869.4
122868.3
122876.5
122778.9
122756.7
122732
122700.3
122662.6
122621.9
122580.9
122543
122511.2
122474.7
122785.3
122780.6
122766.1
122745.6
122720.9
122690.6
122654.4
122615.6
122575.9
122534.5
122495.7
122451.8
122403
122360.6
122783.8
122786.6
122780.5
122764.3
122742.5
122717.6
122689.4
122654.2
122616.2
122577.8
122532.8
122490.2
122447.2
122404.7
122358.5
122300.8
122783.5
122796.6
122794.3
122785.9
122771.8
122752.8
122726.4
122702.2
122672
122638.5
122604.4
122549.1
122508.5
122460.6
122415.9
122372.8
122319.9
122285.6
122791
122807.3
122809.6
122804.9
122799.4
122786.1
122771.4
122750.2
122724
122688.7
122660.7
122633.9
122601.3
122568.2
122504.5
122464.1
122416.4
122369.2
122339.5
122351.6
122805.4
122816.2
122817.1
122814.1
122812.9
122812.2
122804.1
122783.7
122753.1
122731.8
122713.6
122696.7
122676.9
122654.4
122629.2
122596
122562.9
122500.8
122455.3
122430.9
122439.9
122486.1
122817.2
122816.1
122809.4
122805.3
122805.2
122800.6
122781
122759.9
122744.4
122739
122740.6
122744.4
122742.2
122732
122713.9
122689.1
122657.6
122635
122571.4
122541.5
122544
122570.6
122819.4
122819.6
122800.5
122782.9
122776.9
122761.8
122747.5
122729.2
122717.5
122719.2
122736
122764.5
122798.4
122820
122828.6
122824.9
122809.7
122783.6
122754.9
122695.1
122659.5
122643.1
122657.4
122699.2
122823.8
122797
122762.2
122731.8
122705.7
122685
122660.7
122648.1
122649.8
122675
122726
122793
122858.1
122900.9
122928.8
122941.1
122937
122913.2
122872.1
122826.2
122755.1
122704.8
122685.6
122700.1
122800.4
122750.1
122686.1
122623.2
122559.3
122506.8
122488.1
122501.9
122547.1
122613.6
122697.9
122804.9
122900.4
122966.6
123010.7
123031.1
123022.7
122988.4
122937.3
122879.1
122795.1
122738.6
122701
122694.5
122758.4
122680.4
122577.8
122441.9
122349.1
122247.2
122219.5
122265.3
122377.3
122514.4
122654.5
122785.7
122884.8
122950.4
122986.7
122998.1
122987
122958.1
122918
122874
122815.3
122767.3
122735.1
122725.7
122726.7
122612.1
122465.7
122279.5
122100.7
121972.5
121940
122026.8
122202.7
122392.9
122559
122692.5
122789.1
122853.8
122892.2
122910.7
122912.5
122901.4
122881.2
122854.9
122822.9
122793.4
122774.3
122765.3
122725.6
122592
122421.8
122215
121999.1
121843.4
121818.7
121930.2
122119.5
122318.8
122492
122626.9
122721.3
122782.4
122819
122839.8
122849.7
122852
122849
122841.4
122828.7
122816.6
122808.4
122801.2
122755
122628.1
122458.3
122260.8
122080.6
121935.4
121912.4
121995.5
122140.7
122308.1
122465.8
122592.5
122681.8
122739.2
122773.8
122794.3
122806.9
122816.3
122824.9
122834.7
122830.4
122827.9
122825.6
122820.2
122803.8
122699.9
122556.2
122413.3
122239.9
122122.7
122095.3
122143.8
122241.6
122362
122482.1
122585.9
122665.5
122720.1
122754.1
122774.2
122786.8
122796.8
122808.4
122819.3
122823.6
122828.2
122826.4
122821.2
122851.1
122775.8
122669.7
122547.5
122414.4
122347.6
122299.1
122315.2
122371.4
122449.2
122532.4
122609.2
122672.3
122719.1
122750.8
122770.5
122782.4
122790.7
122805
122810.5
122815.9
122817.9
122817.8
122809.3
122886.5
122847.5
122771.4
122683.8
122598.3
122524.6
122482.9
122477.4
122501.9
122546.4
122598.6
122650.5
122695.8
122732.9
122759.4
122776.7
122787.6
122795.2
122803.6
122802.7
122807.4
122805
122803.4
122784.8
122899.3
122854.5
122796.4
122732.5
122666.2
122644.1
122616.5
122622.2
122642.4
122670.7
122702.3
122731.5
122757.6
122777.5
122791.4
122800.9
122812.8
122812.3
122801.6
122794.4
122787.4
122777.2
122933.5
122916.1
122877.6
122831.2
122786.7
122749.1
122734.4
122739.1
122731.2
122743.3
122758
122774
122790.6
122804.6
122822.9
122828.3
122827.8
122809.6
122798.2
122787.1
122774.8
122753
122943.6
122935.4
122901.5
122868.4
122838.3
122824.2
122814.7
122813.6
122823.4
122815.9
122822
122837.5
122844.5
122849.5
122835.5
122827.9
122815.2
122799.7
122779.7
122748.6
122956.1
122954.3
122930.6
122907.7
122893.4
122879.2
122875.3
122874.5
122874
122875
122877.7
122868.8
122863.3
122852.3
122841.5
122826
122798.1
122758.6
122970.6
122974.8
122957.9
122948.4
122935.3
122927.3
122920.2
122916.6
122911.1
122909.4
122900.1
122890.7
122875
122852.6
122824.4
122774
122985.7
122980.6
122991.7
122979.6
122968.6
122960.7
122954.4
122944.6
122937
122926.1
122910.8
122883.2
122830.5
122790.8
122996.2
122993.7
122984.6
122971.9
122958.2
122941.3
122927.8
122912.3
122890.2
122850.8
122877.1
122850.7
122830.6
122805.7
122779.5
122755
122734.4
122730.7
122868.6
122852.9
122836.2
122810.5
122787.6
122765.3
122738.7
122710.9
122684.6
122660.6
122639.4
122616.1
122610.6
122618.7
122836
122819.4
122807.7
122792.6
122766.7
122741
122714.2
122684
122652.8
122622.6
122595.5
122572.9
122552.5
122536.1
122529
122520.6
122813.3
122806.6
122803.2
122788.9
122772.7
122758.2
122736.9
122711
122680.8
122647
122611.6
122576.7
122544.4
122515.6
122487
122466.3
122451.5
122439.4
122428.7
122437.4
122799.9
122795.7
122790.5
122779.9
122769.8
122757.9
122740.7
122709.4
122680
122647.1
122610.4
122572
122533.8
122496.9
122463.9
122439.1
122413
122386.6
122370.5
122366.4
122380.2
122393.5
122803.3
122795.9
122785.7
122778.5
122774.1
122763.3
122744.5
122725.2
122700
122670.3
122636.3
122598.3
122558.4
122518.3
122477.8
122440
122404.2
122372.2
122346.7
122324.4
122318
122332.1
122380.5
122446
122802.3
122793.2
122783.9
122781.6
122775.7
122759.8
122746.1
122728.4
122704.6
122674.6
122642.1
122605.9
122567.2
122527.4
122484.7
122445.9
122405.6
122368.8
122334.9
122308.9
122299.7
122313.1
122370.5
122454.4
122815.3
122809.6
122799.1
122794.2
122788.5
122776.7
122767.7
122757.1
122740.3
122718.4
122690.9
122660.2
122627.4
122594.3
122559.2
122523.2
122486.2
122442.7
122405
122368.4
122337.1
122321.8
122344.6
122411.5
122508
122590.9
122842.4
122831.5
122818.8
122813
122801.9
122789
122783.8
122778.4
122770.5
122755.5
122732.9
122707.1
122683.8
122662.5
122641.3
122616.3
122588.1
122555.7
122519.1
122483.7
122446.4
122415.1
122401
122423.7
122491.5
122575.3
122657.4
122702.8
122853.6
122842.2
122828.1
122815.2
122797.4
122789.8
122786.1
122781.2
122771.8
122755.7
122735.2
122717.6
122707.5
122703.6
122701.8
122694.5
122679.9
122657.3
122627.9
122593.7
122562.7
122531.8
122515.2
122531.2
122587.9
122658.7
122713.7
122743.3
122861.8
122849.4
122837
122817.1
122791.6
122779.8
122770.5
122758.4
122743.2
122725.5
122712.2
122708.8
122718.2
122739.7
122766.4
122782.8
122787.8
122781.1
122762.4
122732.7
122698.2
122661.3
122634.6
122630.3
122658.6
122709.3
122745.6
122766.8
122891
122879
122856.3
122831.1
122792.8
122765.4
122741.2
122716.2
122691.8
122669.4
122653.6
122653.9
122673.9
122715.4
122774
122831.7
122870.4
122895.8
122906.3
122900.1
122873.7
122828.9
122777.7
122726.7
122690.1
122686.5
122718.9
122754.3
122778.2
122783.4
122898.6
122885.1
122855.3
122814.1
122755.2
122704.1
122647.2
122587.9
122537.8
122510.2
122512.6
122546.2
122603.9
122683.9
122783.5
122873.1
122935.6
122977.8
122997.2
122986.5
122949.5
122894.8
122833.2
122769.9
122718.5
122695.5
122708
122744
122770.8
122781.6
122906
122886.5
122846.7
122783.4
122694.3
122603.1
122490.1
122377.8
122284.8
122243
122266
122355.9
122484.7
122621.7
122749.5
122847.3
122911.9
122947.5
122958.6
122948.2
122921.1
122881.9
122836.4
122786.3
122745.4
122724.4
122727.7
122749.5
122769.5
122780.2
122912.2
122887.9
122840
122758.4
122634
122495.4
122326.8
122148.8
122004
121944.1
121997.7
122149.7
122334.4
122504
122642.2
122743.1
122810.3
122850.7
122870.7
122874.8
122866.7
122849.4
122825.5
122797.7
122775.2
122763.7
122765.6
122773.9
122781.9
122785.7
122917.1
122892.7
122842.7
122754.7
122613
122448.5
122248.8
122030
121851.1
121789
121865.4
122038.5
122237.2
122418.2
122562.9
122666.1
122733.5
122774.6
122798.3
122811.1
122817.2
122818
122814.4
122808.1
122802.5
122799.5
122800.1
122799.9
122799.2
122794.9
122924.8
122902.9
122856.6
122774.7
122639.2
122476.8
122283.6
122079.8
121912.8
121852.4
121911.1
122052.3
122223.8
122389
122524.5
122622.8
122687.9
122728.3
122752.8
122769.1
122781.7
122792.8
122802.9
122809.8
122814.7
122817.8
122818.9
122814.6
122808.4
122798.8
122933.9
122917
122878.9
122811.3
122697.8
122559.9
122399.1
122229.7
122091.4
122034.9
122068.2
122164.5
122288.4
122414.5
122525
122610.8
122671.2
122710.4
122734.8
122751
122763.9
122776.7
122789.3
122801.1
122810.3
122815.2
122817
122811.4
122803.2
122791.5
122943.2
122932.7
122905.1
122852.7
122767.6
122661.4
122536
122405.6
122301.5
122246.6
122254.6
122308.5
122387.8
122474.8
122556.2
122623.8
122674.9
122710.5
122734
122749.5
122760.6
122771.3
122781
122789.2
122795.6
122799.9
122801
122794.2
122787.1
122771.4
122946.1
122931
122895
122843.5
122757.8
122666.6
122572.2
122492.3
122442.2
122431
122452.8
122496.5
122550.2
122604.6
122653.1
122692.6
122722
122742.3
122755.8
122764.6
122770.8
122774.1
122776.6
122777.2
122782.7
122777.9
122766.3
122757.1
122956.7
122951.7
122929.9
122892.6
122837
122774
122707
122644.9
122602.9
122580.5
122582.2
122599.8
122628.1
122660.6
122692
122719.5
122741.1
122756.5
122766.8
122773.4
122775.2
122770
122762.9
122758
122757.6
122741.2
122737
122725.2
122963.4
122964.3
122954.8
122934.8
122907.2
122856.7
122807.6
122759
122720.1
122697.6
122691.2
122691.2
122701.7
122717
122734.8
122751.9
122766
122777.4
122782.9
122783.4
122775.7
122764.2
122752.3
122749.3
122737.6
122713.2
122702.5
122686.5
122971.8
122977.1
122963.7
122943.9
122923.7
122879.7
122840.5
122808.1
122786.3
122774.1
122768.7
122770.1
122771.9
122779.1
122788.9
122795.5
122799.5
122795.8
122789.3
122777
122761.3
122752.8
122734.9
122700.6
122684.4
122664.2
122985.8
122985.6
122975.4
122956.9
122940.6
122904.7
122877.1
122857.8
122842.8
122832.9
122827.5
122824.3
122824
122825
122822.7
122819.1
122809.8
122797.4
122782.7
122771.5
122748.8
122703.2
122675.8
122658.1
122991.6
122999
122997.6
122986.4
122975
122964.4
122934.3
122916.9
122901.7
122890.1
122880.2
122872.3
122865.7
122860.3
122852.9
122843.6
122829
122812.6
122801.3
122775.7
122724.9
122688.7
122655.8
122632.2
123003.4
123015.9
123014.2
123008.6
123001.8
122989.7
122982.5
122957.1
122942.7
122931
122920.6
122910.3
122900.1
122888.8
122876.5
122867.1
122842.8
122814.1
122760.3
122716.7
122677.8
122644.5
123023.7
123025.3
123039.1
123034.5
123027.2
123019.4
123013
123003.8
122992.5
122980.8
122968.1
122955
122939.3
122918.2
122892.6
122845.1
122808
122762.6
122711.2
122677.3
123045.3
123059.7
123055.9
123049.3
123046.2
123034.6
123021.2
123007.4
122992
122976.7
122957.3
122930.8
122900.9
122863.6
122823.2
122783.6
123068.4
123067.5
123063.2
123073.1
123063
123050.6
123037.7
123021.9
123005.3
122984.5
122948
122901.9
122885.5
122880.5
123082.9
123074.9
123063.3
123050.9
123036.1
123021.5
123008.8
123005.4
122964.4
122940.3
122922.9
122907
122894
122900.2
122947.8
122934.9
122922.7
122911
122881.8
122863.1
122845.6
122827.4
122810.1
122796.8
122781.2
122777.1
122777.9
122793.2
122897.7
122893.3
122881.3
122868.7
122856.5
122838.1
122815.5
122793.4
122771.7
122750.2
122731.1
122715.3
122700.7
122692.8
122691.1
122695.3
122702.1
122734
122866
122851
122842.3
122828.1
122814.2
122797.4
122779.5
122747.5
122720.7
122694.5
122669.3
122646.9
122628.8
122621.3
122608
122602.8
122604.5
122617.5
122637.2
122663.8
122837.2
122826
122809.2
122798.1
122787.4
122763.3
122743.3
122720.6
122692.5
122662.5
122631.7
122601.4
122573.7
122550.2
122532.1
122517.1
122510.3
122518.5
122519.6
122541.2
122565.4
122593.6
122822.1
122808.5
122792
122778.4
122769.1
122745.7
122725.3
122705.8
122681.8
122652.4
122619.2
122583.4
122547
122512.7
122482.3
122457.2
122436.8
122423.4
122420.3
122433.6
122441.5
122463.3
122517.1
122549.5
122822.4
122807.4
122786.3
122771.3
122750.2
122734.6
122719.3
122703.3
122684.1
122657.6
122625.7
122589
122548.6
122506.7
122466.3
122429.5
122397.5
122370.7
122349.3
122336
122335.8
122350
122389.9
122440.6
122528.9
122585.3
122835.5
122815.8
122796.4
122775.4
122750.3
122732.7
122719.8
122707.4
122692.6
122673.3
122646.8
122614
122575.6
122532.4
122487.1
122442.9
122401.2
122363
122328
122299.2
122279
122273.6
122287.6
122328.9
122407.5
122500.8
122592.5
122656.6
122858.2
122835.6
122812
122789.8
122762.1
122741.3
122727.9
122717.2
122706.3
122693.2
122674.9
122649.3
122616.7
122578.7
122536.2
122491.4
122446.3
122401.7
122360.1
122321.1
122288.1
122261.4
122248.8
122260.1
122305.4
122394.7
122509.3
122604.8
122667.5
122714
122854.7
122834.3
122812
122790.4
122760.6
122743.1
122731
122722.2
122714.2
122703.4
122686.6
122662.8
122632.8
122598.3
122560.3
122520.4
122479.1
122436.5
122395.5
122355
122319
122288.6
122270.4
122277.1
122330.6
122429.9
122541.7
122624.7
122686.1
122725.6
122887.8
122862.9
122841.4
122816.8
122787.3
122765.8
122749
122738.6
122733.5
122728.4
122719.8
122704.8
122683
122656.9
122629.5
122601.5
122572.6
122541.3
122507
122470.7
122432.5
122396
122364.8
122345.5
122352.4
122405.2
122500.2
122602
122673.3
122716.5
122749.9
122773.2
122889.8
122870.1
122849
122817.9
122791.9
122771.4
122756.2
122747.9
122743.4
122738.6
122730.5
122716.1
122696.7
122676.9
122661.3
122649.9
122640
122626.1
122606.2
122580.6
122549.5
122515.6
122484.8
122464.3
122468.6
122511.8
122588.5
122670.3
122725.8
122755.3
122771.5
122785.7
122897.2
122878
122856.4
122824.2
122799.8
122777.4
122760.7
122748.8
122739
122728.4
122714.8
122698.2
122683.8
122676.3
122679.4
122693.6
122711.8
122721.8
122722
122712.2
122692.1
122663.1
122629.6
122600.4
122589.4
122608.4
122656.6
122715.7
122757.3
122778.9
122786.7
122795
122903.3
122889.2
122866
122830.8
122801.9
122773.3
122748.8
122724.6
122701.1
122677.6
122653.9
122635.7
122631.4
122645.4
122680.2
122731.4
122781.4
122815.4
122837.2
122845.8
122838.1
122811.1
122766.7
122716.8
122676.1
122660.6
122681.4
122725.8
122764.4
122784.1
122790.1
122797.7
122933.4
122916.4
122899
122867.3
122833.1
122795.3
122752.4
122705.8
122653.3
122598.3
122548.2
122512.3
122501.3
122522.6
122571.7
122646.1
122738.2
122822.1
122881.5
122920.7
122936.9
122923.7
122886.1
122833.5
122775.2
122721
122685
122684.2
122716.9
122756.5
122779.1
122790.7
122800.4
122803.3
122934.6
122921.3
122905.1
122869.6
122830.6
122778
122707.4
122624.1
122521.3
122410.2
122313.7
122256.8
122255.1
122320.2
122434.7
122565.1
122688.5
122784.5
122848.3
122883.7
122894.8
122886.5
122863.8
122829.4
122788.2
122746.5
122716.5
122710.4
122729.3
122757.1
122776.6
122787.3
122794.2
122798.3
122941
122927.2
122910.2
122872.3
122828.2
122761.6
122659.4
122529.9
122373.4
122198.8
122040
121951
121966
122085
122257.3
122425.1
122566
122670.8
122741.6
122785.3
122808.7
122817.6
122815.8
122805.1
122787.7
122767.1
122752.2
122749.8
122760.5
122773.9
122783.4
122789.1
122791.3
122789.6
122944.4
122931.8
122915.1
122877.4
122831.5
122759.3
122641.6
122485.5
122293.4
122074.4
121875.1
121771.4
121804
121948.7
122138.8
122322.8
122475.1
122586.8
122661.7
122708.9
122738.1
122757.2
122770.6
122779.5
122783.1
122782.5
122781.7
122783.6
122788.8
122793.7
122796
122795.3
122790.7
122784
122946
122936.1
122921.5
122887.1
122843.6
122775.4
122662.3
122508.3
122317.4
122104.9
121913.7
121811.5
121832.9
121955.5
122122.6
122291.6
122435
122542.6
122616.5
122664.5
122695.8
122718.9
122738.9
122757.5
122773
122784.4
122792.3
122797.6
122801.1
122802.2
122800.4
122795.4
122785.6
122775.6
122949.2
122940.9
122930.3
122902
122863.6
122805.5
122710.7
122580
122417.4
122239.1
122078.7
121987.9
121993.9
122078.3
122199.4
122328
122444
122536.8
122604.3
122650.4
122681.4
122704.3
122724
122742.8
122759.9
122773.9
122783.8
122789.5
122791.8
122791.4
122788.9
122784.5
122774.5
122762.4
122948.6
122943.2
122923.4
122886.5
122840.9
122769.9
122670
122544.9
122407.2
122282.9
122206.4
122196
122240.4
122315.8
122402.8
122486.7
122558.2
122614
122654.6
122683.5
122704.8
122721.8
122736.3
122748.4
122757.6
122763.8
122767.4
122768.6
122767.7
122768
122763
122752
122950.1
122945.7
122934.4
122908
122875.9
122827.6
122756
122666.7
122567.8
122476.3
122412.6
122388.9
122402.1
122440.5
122491.8
122545.8
122595.4
122636.9
122669.2
122693.5
122711.4
122724.4
122733.1
122737.9
122739.6
122739.3
122739.2
122737.7
122735.8
122736.5
122724.8
122722
122954.2
122948
122944.1
122928
122905.7
122873.7
122826.5
122766.5
122698.9
122632.5
122578.8
122547.8
122541.2
122553.8
122578.7
122608.9
122639.5
122667.1
122690
122707.7
122720.6
122728.4
122730.7
122727.2
122720.1
122713
122708
122701.7
122701.7
122703.7
122690.3
122685.7
122959.2
122953.3
122953.9
122948.3
122929.6
122908.8
122880.1
122840.4
122793.1
122742.1
122696.5
122665.4
122650.4
122647.9
122655.2
122668.4
122684.4
122700.3
122713.9
122724.4
122730.6
122731.4
122725.8
122713.9
122699.8
122688.5
122678.8
122670
122671.7
122667.7
122654.8
122652.5
122960.9
122959.9
122959.7
122955.5
122935.3
122915.5
122890.1
122853.6
122813.1
122777
122749.6
122731.9
122722.5
122719.6
122721.4
122726.6
122733.1
122738.2
122740.6
122738.5
122731.3
122717.8
122698.8
122680.8
122664.3
122648.5
122645.9
122639.2
122623.5
122622.7
122963.9
122965.9
122965.9
122967.3
122957.4
122941.9
122921.1
122896.2
122866.1
122837.2
122813.4
122795.3
122782
122772.8
122767
122763.9
122762.2
122759.4
122754.1
122743.6
122728.3
122708.1
122685.7
122663.6
122640.2
122625.9
122623.1
122603
122597.7
122594.6
122976.3
122980.6
122983
122983
122968.3
122951.3
122933
122912.6
122887.9
122866.5
122847.7
122832.1
122818.4
122806.6
122796.6
122787.7
122778.4
122766.1
122748.2
122727.1
122703.2
122677
122649.4
122628.9
122618.3
122607.6
122586.6
122576.4
122990.7
122998.4
123003.2
123003.2
122987
122971.9
122955.4
122936.6
122918.1
122897.3
122879.2
122862
122845.9
122830.6
122816
122801.2
122783
122761.3
122736.6
122709.2
122676.1
122650.7
122634.5
122616.4
122597
122587.6
123012.2
123022.8
123029.7
123028.3
123023.4
123000.5
122982.3
122965.3
122948.1
122930.8
122912
122893.5
122875
122856.8
122837.5
122812.4
122785.1
122751.8
122725.4
122705.3
122675.3
122650.5
122629.7
122621
123039.7
123051.6
123055.8
123054.2
123050.3
123028.4
123012.3
122996.7
122978.2
122957.3
122936.8
122916.6
122896.8
122875.4
122846.5
122817.9
122787.1
122768.2
122741.5
122709.3
122694.4
122683.6
123073.7
123085.2
123084.9
123085
123080.9
123073.9
123060.5
123029.4
123006.3
122986.3
122966.4
122946.7
122927.6
122911.4
122886
122853.6
122828.7
122810.6
122785.7
122783.7
123107.8
123109.8
123119.7
123117.2
123110.3
123102
123090
123073.9
123059
123042.4
123023.5
123003.9
122988.2
122968.7
122947.8
122930.8
122917.4
122907.3
123159.5
123151.5
123141
123136.3
123142.2
123133.3
123125.2
123115.7
123103.6
123086.4
123079.8
123084.4
123104.8
123130.6
123223.5
123212.2
123212.7
123214.7
123224.6
123268.1
123015.6
123002.6
122993
122978.2
122966.4
122953.9
122937.7
122923.5
122920
122927.6
122968.6
122958.9
122959.3
122944.2
122932.1
122914.9
122899.6
122885.1
122871
122857.9
122848.1
122846.7
122846.3
122833.7
122838.5
122865.4
122919.5
122902.3
122894.6
122891
122878.9
122863.1
122849.3
122823.6
122805.1
122788.7
122775.6
122772.1
122762.5
122760.3
122756.1
122761.9
122787.6
122810
122871.1
122864.5
122862.5
122848.5
122842.6
122824.3
122810.1
122793.7
122775.8
122752.1
122730
122710.1
122693.8
122682.6
122671.6
122667.5
122668.5
122683
122692.1
122712.8
122731.2
122777.2
122850.5
122835.3
122825.6
122817.7
122798.5
122786.4
122769.1
122751.2
122731.8
122707.6
122680.5
122654.1
122629.5
122608.7
122593.7
122583.5
122576.5
122576.9
122585.3
122599.1
122625.7
122646.6
122695.3
122731
122841.8
122825.4
122804
122792.2
122769.9
122753.2
122740.3
122721
122699.6
122675.1
122646.8
122615.9
122584.4
122553.8
122527
122505.9
122490.7
122481
122479.4
122486.9
122500
122525.7
122564
122600.7
122660.9
122698.2
122847
122825.8
122800.9
122780.9
122753.4
122732.4
122716.1
122699.4
122679.7
122657.7
122630.6
122599.2
122564
122526.5
122489
122454.8
122426
122403.5
122387.8
122380.2
122383.2
122397.8
122422.7
122465.6
122531
122591.3
122659
122697
122864.6
122837.1
122809.1
122784.8
122750.8
122725
122703.2
122684.8
122667.9
122650.3
122629.1
122600.2
122565.5
122525.5
122481.9
122437.6
122396.1
122359.5
122329
122305.2
122289.6
122285.5
122296.7
122326.5
122382.5
122464.1
122559.5
122633.5
122691.9
122724.2
122851.4
122825.5
122798.5
122763
122730.7
122703.6
122682
122664.7
122649.6
122633.5
122613
122583.4
122546.3
122502.7
122454.8
122405.6
122358
122314.4
122276.5
122245.1
122222.4
122212.4
122221.3
122256.5
122327.5
122430.5
122536.6
122623.7
122682.6
122722.2
122883.5
122854.6
122822.3
122783.9
122750
122717.6
122691.2
122671.9
122657.1
122644
122629.2
122609.5
122581
122544.2
122500.4
122451
122399.1
122348.6
122301.4
122258.9
122222.5
122195.2
122180.7
122186.5
122223.7
122307.3
122425.3
122539.4
122623.8
122685.1
122728.7
122755.8
122915.6
122884.2
122852
122813
122777.2
122744.5
122713
122688.9
122671.9
122660.1
122650.3
122638
122620.2
122593.8
122559.5
122518.8
122472.7
122423.9
122375.6
122329
122285.8
122247.3
122216.9
122198.8
122201.3
122240.2
122330.7
122453.9
122565
122643.2
122698.3
122740.6
122768.5
122785.4
122910.9
122882.9
122852.3
122812
122777.1
122744.2
122715.5
122694.3
122681.1
122672.6
122665.5
122655.6
122639.7
122616.1
122586.3
122552.6
122516.2
122478
122439
122399.4
122360.8
122324.4
122293.5
122273.3
122273.5
122314.2
122403.3
122517.6
122618.4
122681.3
122723.5
122757.4
122780.3
122791.6
122914.7
122888.2
122851.4
122816
122781.2
122749.7
122724
122705.9
122694.6
122686.8
122679.9
122670.3
122655
122634.2
122611.3
122589.9
122570.7
122551.9
122530.3
122505.2
122477.4
122448
122419.6
122398.6
122395.7
122428.6
122502.8
122598.8
122681.8
122727.8
122753.2
122774.9
122791.8
122798
122951.9
122923.6
122896.3
122856
122822.4
122788.5
122759.1
122735.6
122717.9
122704.3
122691.7
122678.9
122663.5
122645.5
122628.8
122617.6
122615.2
122622.2
122632.1
122635.2
122630.5
122618.7
122599.6
122574.7
122548.6
122534.7
122547
122592.6
122661.3
122724.9
122759.7
122774.5
122787.4
122800.7
122802.7
122804.3
122950.3
122925.2
122899.9
122861.8
122830.3
122797.1
122768.1
122743.4
122720.6
122696.8
122670.3
122643.6
122615.9
122593
122583
122591.2
122620.2
122664.6
122707.6
122737.2
122755.5
122763.2
122754.4
122727.7
122687.2
122646.2
122623
122633.5
122678.8
122733
122768.2
122782.5
122793
122804.9
122805.4
122804
122950.4
122925.9
122903.1
122868.5
122836.6
122803.4
122771.3
122738.2
122699.4
122650.6
122594.2
122539.4
122493.5
122469.1
122477.1
122517.8
122586.2
122671.5
122749.8
122806.1
122841.5
122853
122837.7
122802.5
122755.5
122704.6
122663
122648.8
122673.4
122721
122761.3
122782.3
122794.5
122804.8
122806.1
122802
122951.2
122929.5
122902.6
122874.2
122841.8
122805.8
122765
122711.8
122641.8
122547.4
122435.5
122331.4
122256.8
122232
122272.5
122367.8
122488.7
122606.7
122700
122762.7
122797.9
122809.2
122804.3
122787.3
122759.7
122726
122695.2
122681.2
122693.6
122725.9
122758.7
122779.3
122791.1
122797.8
122800.2
122794.9
122952.7
122932.7
122905.4
122879.3
122846.7
122807.1
122755.4
122678.1
122565.7
122417.5
122245
122074.2
121955.8
121930.2
122013.2
122166.3
122328.2
122469.7
122577.6
122652
122699.4
122727
122741.6
122747.1
122744.4
122735.3
122725
122721.9
122732.1
122751.5
122768.8
122780.4
122787
122789.4
122788.5
122783.1
122953
122934.2
122908.8
122884.8
122853.2
122812.4
122754.1
122662.5
122524.8
122340.5
122121.1
121903.9
121761.9
121744.9
121850.9
122027.5
122210.9
122368.8
122488.3
122571
122625.1
122660.9
122687.1
122708.4
122725.4
122737.1
122745.1
122752.4
122761.6
122771.5
122779.3
122783.9
122785.4
122783.7
122779.6
122772.9
122952.2
122934.8
122913.4
122891.8
122862.8
122824.4
122767.2
122676.1
122539.1
122354.1
122135.7
121921.7
121778.5
121755.1
121848.5
122007.4
122178.1
122328.4
122445.3
122528.6
122585.1
122624.1
122654.7
122682.3
122707.7
122729.2
122746.4
122759.2
122768.7
122775
122778.5
122779.2
122777.5
122773.6
122768.7
122761.7
122954.2
122939.7
122924.6
122900.7
122875.3
122842.1
122792.4
122713.7
122596.5
122438.1
122251.8
122069.9
121944.1
121916.3
121981.4
122096
122225.5
122346.7
122446.9
122522.4
122576
122614.4
122644.4
122670.6
122694.7
122715.9
122733.1
122745.3
122752.9
122757
122759.4
122760.2
122759.6
122757.9
122753.5
122746.2
122953.4
122937.9
122927.2
122908.9
122888.5
122861.4
122822.8
122762.3
122672.6
122551.8
122408.6
122267.4
122165.4
122130.9
122161.3
122230.6
122316.3
122402.1
122477.7
122538.3
122584.1
122618.5
122645.6
122668
122686.8
122701.6
122712.6
122720.1
122724.3
122726.5
122728.8
122731.2
122732.8
122733.8
122726.6
122724.8
122952.4
122936.4
122929.8
122914.4
122900
122880.7
122853.3
122811
122747.9
122662.9
122561.8
122459.7
122379.8
122339.9
122341.7
122373.2
122420.5
122472.7
122522.4
122565.4
122600.1
122627.7
122649.8
122667
122679.3
122686.4
122689.6
122690.2
122689.8
122689.7
122691.7
122695.1
122697.7
122704
122697.5
122697.7
122942.5
122932.8
122919.5
122910
122897.7
122879.2
122851.6
122810
122753.8
122686.2
122614.2
122549.5
122506.5
122490.9
122496.8
122515.9
122541.7
122569.7
122596.2
122619.2
122638.3
122653.7
122664.3
122669.5
122668.7
122664.1
122658.3
122653.5
122650.8
122652.8
122657.2
122661
122668.1
122660
122946
122936.4
122929.4
122919.7
122911
122898.4
122880.4
122854.2
122817.5
122769.5
122713.6
122660.3
122621.2
122599
122590.8
122592.4
122600.5
122612.6
122625.8
122638.1
122648.4
122655.8
122658.6
122656
122647.4
122636.2
122625.7
122617.6
122613.8
122615.8
122620
122627.1
122631.6
122626
122949.3
122937.9
122934.7
122928.1
122921.2
122912.7
122898.7
122878.8
122850.5
122812.6
122769.5
122729.3
122696.8
122673.5
122658.6
122650.6
122647.8
122648.9
122651.8
122654.7
122656.1
122654.9
122649.1
122638.6
122623
122607.2
122593.7
122584.4
122581.5
122583.1
122586.4
122596.9
122594.3
122599.4
122953.6
122946.8
122944.6
122934
122925.5
122913.9
122896
122872.2
122843.1
122810.6
122778.6
122750.3
122727.1
122709
122695.2
122685.4
122678.5
122673.1
122667.8
122660.9
122651
122636.8
122619.2
122598.6
122580.4
122566.2
122558.9
122558.1
122558.8
122565.6
122571.3
122566.9
122957.4
122957.4
122955.8
122945.8
122936
122920.6
122900.2
122876.1
122849
122820.8
122794.5
122770.9
122750.3
122732.2
122716.9
122703.5
122691.1
122678.6
122663.8
122646.3
122625.2
122602.6
122579.7
122562.5
122550.5
122546
122547.6
122550
122547.7
122547.7
122971
122970.9
122975.5
122977.1
122965.9
122953.7
122936.3
122915
122890.4
122864.1
122838.2
122812.9
122789.4
122767.3
122746.9
122727.8
122709.3
122690.6
122668.9
122646
122621.2
122597.3
122574.7
122560.6
122552
122550.3
122552.7
122547.8
122545.6
122551.8
122990.6
122995.7
123002.5
123004.6
122991.5
122977.9
122960.3
122936.5
122910.9
122884.7
122858.1
122832.1
122806.2
122781.4
122757.6
122734.3
122710.6
122683.7
122658.8
122633.8
122611.6
122592.4
122581.1
122575.6
122575.7
122567.7
122564.2
122567.4
123019.2
123027.4
123033.9
123034.3
123020.1
123004.4
122984.9
122961.3
122936
122908.3
122880.1
122851.5
122823.9
122797.5
122772.1
122746.3
122716.9
122692.6
122670.7
122653.1
122637.9
122629.3
122626.1
122611.1
122608.8
122609.8
123056.9
123064.8
123068.3
123069.9
123051.9
123035
123016.6
122994.5
122966.8
122937.8
122908.5
122880.7
122854.2
122829.2
122805.1
122778.1
122758.3
122738.7
122726.1
122714.9
122712.4
122694
122679.1
122682.7
123099.1
123097
123112.2
123108.6
123097.7
123075.6
123055.1
123031.3
123009.2
122982.3
122957
122933.9
122913.1
122894.4
122872.1
122859.3
122845
122843.5
122829.6
122822
122795.9
122779.3
123153.6
123159.7
123151
123149.5