/*--------------------------------*- C++ -*----------------------------------*\
  =========                 |
  \\      /  F ield         | OpenFOAM: The Open Source CFD Toolbox
   \\    /   O peration     | Website:  https://openfoam.org
    \\  /    A nd           | Version:  6
     \\/     M anipulation  |
\*---------------------------------------------------------------------------*/
FoamFile
{
    version     2.0;
    format      ascii;
    class       volScalarField;
    location    "49.8";
    object      p_rgh;
}
// * * * * * * * * * * * * * * * * * * * * * * * * * * * * * * * * * * * * * //

dimensions      [1 -1 -2 0 0 0 0];

internalField   nonuniform List<scalar> 
203709
(
122177.4
122210.2
122229.7
122229.4
122111.6
122135.7
122184.1
122227.9
122258.6
122274.5
122286.3
122266.7
122065
122050.8
122076.1
122106.1
122170
122237.8
122287.2
122315.7
122337.2
122330.4
122324.6
122289.9
122018.2
121964.5
121934.4
121953.9
122019.8
122125.3
122232.1
122312.2
122370.9
122407.2
122405.2
122389.8
122360
122331.8
121833.7
121725.6
121676.7
121704.5
121817
121988.3
122156.9
122287.4
122381.8
122430.4
122440.3
122430.7
122406
122374.2
121722.1
121585.3
121400.6
121308.5
121354.6
121526.4
121764.4
121993.7
122178.3
122312.2
122389.3
122421.5
122424
122408.2
122386.3
122352.6
121608.3
121371.6
121143.6
121008.2
121062.6
121287.5
121577.9
121855.5
122072.9
122220.5
122308.5
122352.7
122365.7
122358.1
122339
122313.9
121818.8
121604.7
121320.3
121075.8
120938.1
120982.8
121201.6
121490.6
121773.7
122004.9
122164.1
122256.7
122300.7
122314.4
122307.6
122289.2
122262.5
122240.5
121861.1
121652.2
121410.5
121199.9
121094.6
121139.6
121303.5
121537.4
121775.3
121985.4
122136.3
122231.5
122272.4
122283.4
122273.1
122252.3
122229.2
122211.1
121950.2
121777.7
121591.1
121431.6
121355.5
121389.7
121500
121673.5
121849.8
122013.5
122135
122217.7
122253.4
122263.5
122251
122227.8
122204.3
122185.4
122063.5
121949.2
121811.9
121701.6
121649
121670.2
121741
121850.3
121972.4
122081.9
122161.9
122215.5
122240.6
122245.2
122231.3
122207.9
122187.3
122173
122114.6
122037.6
121970.2
121934.7
121941.2
121980.2
122034.5
122096.1
122156
122199.8
122224.1
122232.3
122226.8
122210.1
122188.8
122181.5
122263.3
122250.8
122209.7
122182.5
122174.7
122183.6
122199.6
122217.2
122231.7
122238.4
122235.5
122225.5
122208
122186.6
122170.8
122175.4
122408.2
122398.5
122371.2
122347.6
122331.8
122315.2
122300.6
122280.9
122267
122245.1
122221.8
122195.7
122170.8
122166.7
122494.4
122510.9
122477.8
122449.5
122421.4
122388.5
122356.9
122318.4
122288.4
122255.6
122226.7
122192.2
122165.4
122160.2
122502.4
122495.8
122496.5
122461.3
122428
122387.3
122341.9
122306.7
122266.5
122234
122167.7
122133.1
122451.9
122444.7
122437.9
122396
122352.2
122310.5
122241.3
122199.3
122365.9
122350.1
122310.7
122270.2
122205.9
122219
122221.9
122221.9
122215.5
122201.8
122182.8
122161.1
122139.3
122109.7
122157.3
122187.6
122209.7
122217.9
122221.1
122223.3
122220.5
122212
122198.9
122180.8
122161.1
122132.9
122098.1
122060.8
122143.8
122172.4
122188
122196.3
122201.1
122206.9
122217
122224.5
122225.3
122220.6
122205.3
122188.2
122165.9
122137.7
122099.9
122063.8
122140.5
122168.9
122175.4
122173.5
122172.4
122178.1
122189
122208.3
122233.7
122249.3
122255
122241
122230.7
122206.5
122179.3
122144.6
122103.8
122076.5
122158.2
122184.2
122184.1
122170.4
122154.3
122145.7
122150.2
122169.6
122195.7
122231.4
122262.4
122286.9
122297
122293.2
122260.3
122238.8
122200.8
122159.6
122121.6
122100.1
122183.7
122208.9
122202.1
122172.3
122148.8
122111.2
122095.8
122100.6
122125
122176.8
122240.1
122290.5
122324.2
122346.7
122351.7
122341.7
122311.3
122263.8
122225.5
122184.3
122147.3
122129.9
122223.2
122218.8
122177
122121.7
122061.4
122000.9
121963
121976.2
122042.3
122141.9
122245.6
122323.4
122381.8
122415.5
122417.4
122404.3
122372.7
122336.5
122286.5
122241
122199.2
122171
122193.3
122231.1
122194.1
122105.5
121999.2
121877.6
121764.6
121714.8
121738.9
121846
122005.8
122166.4
122293
122388.7
122437.4
122453.3
122449.1
122420.7
122378
122332.4
122290.5
122246.2
122210
122175
122198.6
122196.7
122133.7
122005.1
121812.6
121647.7
121451.9
121361.9
121395.4
121548.3
121772.6
121995.6
122182.1
122319.9
122399.5
122435.3
122437.5
122418.7
122390.6
122351.1
122313.2
122273.4
122236
122202.3
122191.6
122159.8
122070.8
121916.7
121685.2
121416.6
121177.9
121048.7
121094.4
121297.3
121572.1
121840.9
122059.1
122213.3
122307.4
122355.6
122370.3
122362.7
122342.1
122311.5
122282.5
122253.3
122223.8
122199.2
122193.1
122145.9
122037.2
121849.2
121641.4
121341.5
121078.6
120934.5
120974.2
121181.5
121460.9
121740.9
121974.6
122141.5
122243.2
122294.1
122310.3
122304.4
122286.8
122262.8
122237
122212.7
122189.3
122172.7
122209.5
122159.9
122057.4
121887.9
121665.7
121408.9
121174.9
121050.6
121082.6
121246.5
121477.4
121720.5
121936.1
122098.8
122202.8
122254.8
122270.1
122261.9
122241.2
122216.5
122194.2
122171.7
122153
122139.7
122240.6
122201
122113.1
121968.6
121778.9
121574.3
121390
121292.5
121311.6
121427.5
121599.1
121784.8
121955
122088.4
122178.1
122225
122239.1
122230
122207.8
122182.8
122161.6
122138
122119.4
122107
122280.2
122259.3
122193.3
122081.4
121957.6
121790.2
121654.7
121583.2
121591.8
121664.1
121776.4
121902
122017.8
122108.7
122170
122201.8
122209.3
122198.2
122175.8
122155.5
122133.7
122104.9
122084.9
122074.4
122322.2
122322.7
122284.3
122220.8
122120.4
122014.1
121925.2
121873.7
121870.9
121907.2
121966.9
122034.7
122097.5
122145.1
122174
122184.8
122180.5
122164.3
122142.1
122129.4
122089.4
122067.6
122045.6
122037.1
122353.5
122378.4
122371.4
122339.6
122283.7
122246.4
122174.5
122133.1
122117.7
122122.4
122138.2
122157.5
122174.1
122183.2
122182.2
122171.7
122153.8
122131.3
122116.6
122103.9
122051.9
122021.2
122000.7
121995
122365.4
122420
122442.2
122445.1
122429.4
122406.6
122372.5
122334.2
122303.5
122281.4
122263.4
122247.4
122230.8
122212.8
122189.6
122161.8
122133
122105.3
122099.2
122047.7
122007.4
121974.8
121958.6
121958
122439.8
122488.7
122518.5
122528.9
122509.7
122502
122451.8
122413.5
122375.7
122339.2
122304.5
122269.5
122234.2
122197.7
122160.2
122126.9
122107.8
122089.8
122010
121959.7
121924.3
121909.2
122418.4
122484.7
122528.6
122545.9
122538.5
122519.5
122497
122478.6
122423.3
122381.7
122338.3
122295.6
122251.6
122211.9
122184.6
122143.9
122110.5
122039
121976.1
121925
121882.7
121863.4
122441.6
122498.2
122525.4
122533.1
122521.7
122506.5
122479
122449.7
122419.9
122359.5
122315.7
122278.8
122236.9
122201.4
122124.1
122071.8
122015.1
121950.5
121880.5
121807.1
122443.8
122493.4
122513.6
122510.5
122500.4
122472.8
122440.6
122405.8
122369.7
122329.9
122292.6
122224.9
122174.2
122113.6
122055
121991.7
121904.9
121806.1
122434.6
122472.9
122480
122474.3
122450.3
122423.1
122389.2
122351.6
122310.4
122271.2
122218.1
122163.5
122098.6
122029.5
121948.6
121846.3
122395.8
122414.2
122423.2
122407.5
122381.3
122351.4
122319.2
122282.4
122241.8
122194.7
122141.8
122066.4
121976.8
121919.6
122328
122328
122305.1
122275.8
122243.6
122209.7
122174.8
122137.4
122096.6
122044.4
122299.5
122292.7
122288.4
122275.6
122257.7
122240
122226.3
122225.3
122194.6
122228
122249.6
122256.2
122254.3
122246.7
122231.2
122212.1
122194.7
122182.1
122171
122149.4
122133.7
122111.7
122153.1
122171.3
122205.9
122229.5
122233.1
122229.5
122221.2
122205.8
122186.8
122168.4
122153.8
122144.1
122129.9
122107.1
122077.5
122026.3
122089.2
122116.4
122143.6
122164
122189.3
122209
122220.7
122220.6
122214.6
122202.3
122185.7
122167.8
122151.3
122137.4
122118.7
122089.1
122061.9
122013.7
121953.9
121905.1
122082.8
122094.4
122119.6
122140.6
122160
122187.8
122201.4
122202.9
122203.5
122201.6
122195
122183.6
122169.5
122154
122139.3
122121.4
122099.1
122070
122019.7
121967.9
121910.8
121860.1
122092.7
122098.4
122104.6
122125.7
122146.6
122163.7
122175.4
122181.9
122188
122192.6
122196.9
122198.7
122196
122188.9
122176.8
122162.2
122142.5
122120.7
122091.4
122057
121997.6
121946.8
121898.1
121891.4
122103.8
122113.2
122120.5
122141.8
122156.4
122158.3
122164.8
122166.7
122171.8
122179.2
122191.9
122206.2
122216
122218.7
122212.9
122204.2
122186.7
122164.2
122134.3
122097.7
122060.6
122001.5
121958.2
121931.3
122128.1
122133.7
122135.6
122148.6
122161.6
122159.4
122157.6
122153.4
122147.9
122151.6
122165.3
122187.4
122216.8
122242.4
122258.2
122265.3
122261.7
122245.5
122224.5
122193.6
122155.7
122112.8
122078.1
122028.4
121994.1
121983.8
122158.2
122155.6
122156.3
122169
122175.5
122168.8
122162.4
122148.4
122125.8
122109.9
122111.3
122134.9
122179.3
122234.2
122278.5
122307.3
122325.1
122325.8
122314.7
122292.7
122261.1
122223.4
122180.9
122135.1
122103.5
122060.7
122036.8
122039
122172.8
122175.5
122175.8
122186.9
122178.8
122164.1
122135.5
122089.2
122037.4
122007
122014.5
122067.3
122153.2
122244.4
122315.2
122368.1
122396.7
122397.4
122384.7
122358.9
122327.1
122288.9
122244.4
122197.6
122157
122108.7
122084.2
122074
122188.3
122188.7
122190.4
122195.6
122165.3
122120.3
122040.6
121937.3
121837.1
121782.8
121795.8
121884.6
122022.4
122166.7
122285.3
122375.6
122424.4
122444.4
122442.7
122416.7
122378.5
122336.2
122289.6
122241.8
122196
122152.7
122117.8
122101.9
122211.3
122214.8
122204.7
122193.4
122165.6
122121.2
122037
121888.4
121710.4
121536.2
121440
121452.1
121579.2
121782
121992.6
122173.7
122309.7
122391.1
122428.9
122432
122413.5
122383.9
122347.9
122309
122268.1
122227.8
122186.2
122151.1
122123.4
122093.9
122218
122225.6
122214.5
122193.4
122142.6
122071.4
121946.5
121746.8
121492.7
121248.2
121108.8
121130.8
121306.6
121564.6
121822.9
122038.5
122195.1
122293.4
122345.4
122363
122357.1
122336.7
122307.7
122278.3
122246.8
122215.7
122183.7
122152.7
122125.8
122104.2
122225.7
122235.7
122224.5
122199.1
122135.6
122045.1
121895.6
121678.4
121392.1
121117.1
120952.9
120973.1
121164.3
121434.1
121709.4
121943.8
122115.6
122223.9
122280.5
122300.3
122296
122277.8
122251.7
122226.7
122202.5
122178.6
122155.8
122131.2
122111.7
122099.7
122231
122246.3
122239.4
122215.9
122150.8
122058.8
121911.5
121698.5
121433.9
121181.6
121031.7
121046
121204.2
121434.5
121680.3
121900.2
122069.3
122179.8
122238
122257
122250.6
122230.3
122204.9
122180.7
122159.1
122138.5
122120.6
122099.4
122086.1
122083
122232.8
122256.6
122258.9
122244
122188.2
122107.4
121981.1
121800.4
121583
121378.9
121257.7
121262.9
121378.2
121551.9
121742.7
121918.9
122059
122154.3
122206.2
122223
122215.4
122193.7
122167.8
122143.8
122122.3
122102
122085.7
122063.6
122052.1
122053.6
122233.4
122265.2
122279.4
122278.6
122240.7
122180.2
122085.8
121953.4
121788.8
121636.3
121546
121544.1
121616.7
121732.2
121862.2
121983.6
122080.6
122146.3
122180.9
122189.6
122179
122156.9
122132.5
122109.5
122086.2
122064.3
122049.7
122023.8
122010.4
122011.8
122233.6
122269.7
122297.3
122313.5
122298.8
122264.7
122205.7
122117
122007.3
121903.9
121840.5
121830.9
121866.3
121929.1
122000.9
122067.3
122118.2
122149.3
122160.7
122155.9
122138.8
122115
122092.5
122067
122041.8
122017.7
122006.9
121976.2
121960.5
121960.8
122229.2
122264.6
122308.3
122340.8
122352
122345.8
122319.8
122273.9
122215.6
122151.4
122104.4
122084.2
122087.6
122104.9
122126.5
122144.9
122154.9
122154.1
122142.8
122123.1
122097.7
122073.3
122050.4
122020.1
121988
121961.3
121955.3
121916
121900.3
121905
122264.9
122316.9
122362.7
122397.9
122410.6
122414.8
122404.4
122382.1
122345.7
122304.2
122271.5
122248.5
122231.3
122216
122199.6
122179.7
122154.9
122125.3
122092.7
122059.4
122033.7
122000.7
121963.7
121925.9
121906.9
121894.4
121842.7
121828
122257.7
122308.7
122353.3
122412.4
122451
122479.1
122491
122482
122455.3
122415.1
122376.1
122337.6
122301.3
122265.8
122229.5
122191.4
122151.4
122110
122069.2
122032.2
121998.5
121950.9
121901.8
121859.2
121847.8
121792.1
121765.5
121759.8
122241.7
122287.4
122344.3
122401.4
122454.1
122484.5
122499.9
122496.5
122480
122452.5
122419.2
122374.9
122330.8
122285.5
122239.9
122192.5
122145.8
122101.4
122054
122008.6
121954.9
121897.5
121846.5
121815.6
121790.2
121716.8
121689.4
121685.9
122274.8
122331.4
122380.3
122429.8
122467.4
122482.1
122486.6
122477.9
122457.5
122426.7
122386
122340.1
122287.4
122237.5
122189
122140.9
122092.6
122032.6
121977.1
121915.6
121856.1
121813.8
121767.5
121697.1
121653.9
121618.6
122317.4
122366.8
122406.1
122445.8
122471.1
122471
122462.1
122444
122413.1
122372.5
122327.2
122278.9
122230.6
122182.3
122128.7
122075.9
122013.4
121952.9
121889.7
121840.4
121784.8
121702.9
121653.2
121618
122303.8
122350.3
122392.6
122419.6
122446.2
122452
122434.3
122414.4
122383.7
122345.8
122303.7
122260.6
122216.1
122170.5
122120.1
122065.4
122001.8
121942.9
121887.5
121833.6
121751.9
121692.2
121643.8
121601.2
122325.3
122362.3
122393.6
122405.7
122414.9
122409.5
122391.6
122351.6
122317
122282.8
122247.7
122209.1
122166.5
122119
122068.4
122019.9
121965.1
121904.6
121831.8
121774.9
121718.4
121674.8
122315.8
122336.1
122362.7
122366.1
122353.8
122352.2
122332.4
122308.7
122283.4
122255.7
122223.9
122188.1
122147.9
122102.7
122050.8
121980.3
121931.5
121890.6
121836.5
121803.2
122301.5
122323.4
122325.5
122317.7
122299.4
122280.5
122261.8
122239.4
122215.2
122188.2
122156.5
122123.5
122095
122055.6
122018.3
122032.9
122296.3
122298.8
122289.4
122295.7
122288.6
122278.2
122266
122251.8
122233.2
122210.8
122180.8
122161.9
122169.7
122209.4
122333.4
122318
122312.7
122310
122306.5
122300.7
122303.9
122352.6
122375.6
122363.8
122355.1
122344.6
122339.6
122354.7
122245.5
122276.5
122296
122319.2
122309.2
122302.3
122291.6
122278
122268
122264.1
122264.5
122262.4
122264.7
122266.2
122145.4
122176.2
122194
122227.5
122250.4
122267.8
122265.9
122255.9
122241.1
122224.7
122212.5
122208.7
122210.1
122203.9
122200
122191.2
122172.7
122176.7
122110.5
122116.7
122143
122157.5
122193.3
122217
122232.3
122227.5
122216.4
122199.6
122181.1
122166.3
122158.5
122158.3
122152.2
122142.3
122125.8
122107.2
122088
122066.2
122084.4
122089.4
122094.1
122114.9
122139.3
122163.8
122184.7
122199
122202.4
122194.3
122178.3
122159.1
122141.4
122127.3
122115.8
122104.5
122089.3
122072.4
122041.9
122012.1
121975.1
121935.9
122082.9
122077.7
122074.1
122086.1
122107.1
122121.3
122146.6
122167
122181.8
122187.8
122184.1
122171.8
122154.2
122135.3
122116.8
122098.9
122080.8
122057.8
122030.6
122000
121960.4
121914.9
121878.2
121861.3
122098.6
122086.9
122074.4
122074
122078.4
122094.2
122115.2
122140.9
122157.9
122170.1
122177
122177.9
122171.9
122159.5
122143
122123.9
122103
122080
122054.6
122021.7
121981.2
121937.9
121892.3
121853.3
121846.6
121870.5
122128.1
122106.5
122092.2
122080.8
122072.9
122080.8
122097.1
122117
122137.4
122150
122160.7
122169
122174.8
122176.5
122172.4
122162.6
122147.7
122129.4
122106
122079.3
122044.8
122003.6
121956.8
121906.7
121863.5
121848.1
121875.8
121928.4
122161.8
122139.1
122116.2
122099.5
122083.9
122081.7
122092.4
122106.9
122122.3
122136.1
122143.6
122152.1
122162.5
122174.9
122186.5
122193.6
122193.9
122186.6
122172.9
122152
122125.9
122092
122051.1
122007.8
121960.5
121919.6
121900.9
121901.3
121937.3
121967.9
122164.6
122147.3
122128.2
122114.5
122097.5
122099
122109.7
122121.5
122130.6
122133.7
122133.3
122138.7
122152.5
122173.9
122199.4
122220.6
122232.8
122235.6
122228.2
122211.3
122187.3
122155.7
122116.9
122074
122032.6
121996
121966.7
121959.1
121961.5
121978.1
122196.9
122180.9
122163.5
122143.8
122123.4
122116
122119.9
122131.9
122137.9
122132.5
122118.3
122106.6
122108.3
122128.4
122167.3
122214.6
122253.2
122278.8
122292.9
122291.3
122278.3
122256.1
122226.4
122190.1
122149.4
122106.6
122070.4
122044.3
122024.4
122021.1
122006.7
122032.9
122200.5
122191.7
122177.6
122152.9
122137.1
122131.3
122138.4
122147.5
122130.9
122096.6
122054.9
122026.7
122028.8
122069.2
122141.4
122220.9
122285.6
122335
122360.3
122360.9
122348.5
122324.9
122294.6
122258.8
122217.1
122173.1
122132.7
122100.5
122076.9
122064.3
122054.7
122065
122202.5
122200.4
122191.1
122165
122149.9
122140.8
122140.6
122128.3
122066.3
121978.4
121888.5
121831.3
121831.8
121899.4
122015
122143.1
122253.1
122338.5
122386.8
122408.4
122407.5
122384.3
122349.8
122309.6
122265.3
122220.1
122176.5
122138.3
122107.9
122089.4
122072.7
122081.3
122205.3
122211.3
122202.9
122177.2
122157.1
122134.9
122113.5
122063.5
121941.2
121775.3
121611.1
121506.8
121497
121596.2
121772.1
121966.1
122138.4
122270.6
122352.3
122391.5
122396.4
122381.5
122356.2
122323.3
122286.9
122248.6
122209.4
122170.1
122135.7
122108.2
122077.5
122079
122204.3
122206.5
122215.6
122204.8
122187.4
122163.2
122125.9
122075.5
121981.2
121807.3
121568.4
121325.1
121172.1
121162.3
121303.5
121540.1
121785
121995.2
122152.1
122253.5
122309.4
122330.8
122328.7
122312.2
122287.5
122260.4
122231.3
122200.9
122169
122140.5
122115.6
122091.8
122078.1
122056.2
122198.4
122203.5
122215.9
122209.7
122197.3
122172.8
122126.4
122055.4
121932.3
121729.9
121453.2
121171.6
120984.5
120971.6
121134.9
121390.4
121658.6
121892.1
122067.7
122181.8
122244.2
122268.8
122268.5
122253.8
122232.3
122210.2
122187.9
122164.7
122140.5
122119.2
122100.9
122086.9
122068.7
122055.3
122195.5
122200.9
122215.4
122215.6
122209.8
122189.9
122143.6
122068
121939.4
121739.1
121474.1
121206
121026.5
121010.8
121150.5
121374.1
121619.2
121842.4
122017.3
122134.6
122199.2
122223.5
122221.3
122204.8
122183.3
122162.4
122142.9
122123.2
122102.7
122085.4
122072.9
122068.6
122056.2
122053.5
122192.9
122197
122213.5
122221.5
122224.8
122214.5
122177.7
122112.1
121999.6
121827
121604.8
121382.1
121233
121214
121316.9
121487
121679.3
121860.1
122006.2
122107.5
122164.8
122186.1
122182.2
122164.3
122141.7
122120.6
122101.6
122082.7
122063
122046
122034.9
122037.2
122032.3
122043.8
122193.8
122192.9
122211.3
122226.9
122240.3
122243.3
122223
122177.6
122094.4
121964.9
121797.6
121629.8
121516.7
121495.7
121559.5
121672.3
121803.4
121928.3
122029.6
122099.3
122137.2
122148.6
122140.6
122121.5
122099
122077.8
122058
122038.3
122018.6
122000.3
121987.6
121992
121989
122008.4
122200.2
122189.5
122211.2
122231.7
122254
122271.1
122271.3
122251.3
122202.6
122119.3
122007.3
121893.3
121814.7
121791.9
121819.8
121879.2
121950.3
122017.5
122069.8
122101.9
122114.2
122110
122094.1
122071.9
122048.8
122026.1
122004.2
121982.3
121963.4
121944
121930.3
121934.4
121927.4
121947.2
122197.1
122213.3
122235.9
122262
122291.6
122312.8
122319.2
122304.6
122264.9
122204
122137.8
122083.3
122054
122050.4
122063.2
122081.9
122098.2
122106.6
122104.4
122091.8
122071.2
122045.4
122018.4
121992
121965.1
121937.8
121912.1
121894.5
121874.3
121864.7
121862.4
121849.4
122194.7
122202.2
122232.6
122265.5
122304.8
122342.1
122370.2
122385.8
122383.2
122363
122326.1
122280.9
122242.5
122213.7
122191.3
122171.4
122151
122127.6
122099.9
122068
122033.2
121997.4
121963.7
121929.1
121894
121859.1
121832
121812.9
121791.6
121792.4
121772.6
121775.8
122195.3
122201.2
122229.5
122263.7
122304.3
122351.4
122395.6
122431.3
122450.1
122445.4
122418
122379.4
122338.3
122296.8
122255.7
122214.8
122173.7
122131.6
122088
122043.3
121997.3
121952.2
121908.5
121861.8
121815.5
121774.2
121748.2
121721.6
121705.8
121714.4
121693.6
121699.4
122197.9
122205.2
122228.8
122261.6
122296.9
122340.3
122383.6
122419.2
122440.6
122443
122428.5
122401.5
122365
122321.1
122273.4
122223.5
122173
122121.6
122069.4
122016.6
121961.1
121906.3
121849.9
121791.3
121738.4
121698.6
121671.6
121644.4
121636.3
121635.3
121617.9
121633.4
122210.6
122228.6
122261.9
122299.2
122330.7
122366.1
122396.8
122415.3
122420.6
122412.1
122389.9
122355.1
122311
122261
122207.8
122154
122099.4
122043.1
121984.6
121920.7
121858.3
121792.4
121728.7
121677.3
121638.3
121606.8
121594.4
121581.2
121560.9
121561.8
122213.8
122233.8
122259.1
122297.6
122326.2
122353.2
122377.3
122389.9
122388.4
122377.2
122354.6
122319.6
122275.9
122226.4
122174.5
122121.6
122067.6
122010.4
121949.1
121881.2
121816.1
121748.4
121689.5
121642.5
121600.7
121575.3
121566.6
121539.9
121532.7
121527.1
122236.1
122265.5
122301
122327.5
122342
122353.3
122357.1
122348.6
122330.5
122303.7
122268.6
122227.5
122181.8
122134.8
122086
122035.2
121980.4
121919.7
121853.6
121793.4
121732.5
121680.8
121634.3
121602
121585.1
121568
121545.5
121524
122262.3
122291.8
122320
122331.3
122329.6
122321.8
122308.5
122288.6
122258.2
122222.2
122185.6
122146.4
122106.3
122062.8
122016
121965.7
121911.4
121854.6
121802.9
121750.9
121704.3
121667.7
121644.1
121618.8
121601.6
121579.9
122274.1
122296
122314.8
122314.8
122307.6
122278.3
122253.7
122227.3
122198.3
122169.6
122137.4
122103.4
122065.6
122025.4
121982.6
121935.3
121886.6
121841.5
121808.8
121790.1
121752.2
121721.5
121702.3
121685.4
122275.6
122295.1
122287.7
122291.5
122275.9
122246.7
122221.5
122197.5
122172.9
122144.9
122116.6
122086.4
122055.9
122025.3
121990.9
121956.9
121929.4
121920.8
121901.2
121873
121868.4
121856.6
122293.1
122298.7
122293.7
122286.2
122276.5
122261.9
122247.5
122212
122187.6
122167.2
122146.4
122126.6
122112.6
122110.6
122092.4
122075.7
122070.2
122082.9
122070
122119.3
122332.5
122326.3
122327.9
122322.9
122312.9
122309.9
122293.9
122280.7
122272.8
122263.6
122253.9
122252.3
122261.5
122264.5
122273
122286.9
122317.4
122369.6
122426.4
122407.6
122392.3
122396.1
122390
122388
122393
122395.9
122398.5
122408.5
122445.9
122485.1
122564
122662.2
122555.4
122539.8
122554.8
122571.9
122605.6
122698.6
122355.4
122372.8
122388.3
122387.3
122385.5
122377.8
122370
122368.1
122375.2
122388.8
122216.9
122236.9
122278.7
122293.4
122313
122324.3
122323.4
122315.8
122305.1
122298.9
122301.7
122311.7
122323.9
122325.8
122326.7
122342
122158.8
122160.1
122183.7
122224.7
122247.4
122268.1
122281.8
122275.5
122263.8
122250.4
122241.9
122244.6
122247.9
122257.3
122260.7
122260.7
122273.6
122277
122097.5
122101.4
122113.5
122124
122147.7
122175.8
122203.2
122229.6
122244.1
122242
122228.5
122212.6
122200.2
122194
122191.1
122191.7
122191.2
122193.9
122187.5
122181.1
122169.3
122185.8
122091.9
122077.8
122075.7
122086.4
122093.2
122112.6
122142.3
122172.1
122201.7
122215.2
122212.8
122198.4
122180.2
122164
122151.9
122143.4
122135.5
122126.6
122115.4
122100.9
122088.5
122069.8
122060.5
122042.2
122102.8
122081.9
122063.5
122061.3
122060.7
122070.2
122090.4
122118.1
122146.9
122175.6
122191.3
122190
122175.9
122156.3
122136.4
122117.7
122100.7
122084.1
122065.7
122044.2
122018.5
121991.3
121969.9
121951.3
121947.5
121960.1
122129.7
122100
122075.3
122060
122047.2
122047
122056.5
122075.2
122102.2
122129.9
122156.5
122172.7
122174.8
122163.6
122144.7
122122.7
122099
122075
122050.1
122022.4
121990.4
121955.3
121919
121890
121882.7
121900.4
121953.2
122002.3
122161.7
122129.5
122098.5
122077
122053.3
122042.6
122040.6
122049.1
122069
122096.1
122121.2
122143.9
122159
122164.1
122158.3
122143.8
122123.8
122099.6
122073.8
122043.9
122009.4
121969.6
121926.5
121885.2
121854.7
121850.2
121885.1
121942.4
122002.2
122037
122154.1
122128.3
122102.1
122074.4
122054
122042.2
122040.8
122051.1
122072.2
122096.8
122117.8
122136.4
122150.8
122159.3
122160.1
122153.3
122140.2
122121.3
122096.3
122064.9
122028.4
121986.1
121939.9
121894.9
121858.3
121848.3
121880
121937.9
121984.7
122018.3
122191.9
122166
122135.9
122103.1
122078.6
122058.5
122047.9
122049.3
122062.3
122082.5
122101.7
122115.8
122129.2
122142.9
122156
122165.8
122169.5
122165.9
122154.5
122134.9
122107.7
122074.6
122035.3
121990.6
121945.2
121904.7
121882.8
121895
121934.6
121974.9
121995
122008.4
122219.1
122191.3
122167.7
122136.3
122109.9
122087.5
122068.4
122060.9
122067.4
122082.3
122097.2
122105.6
122109.6
122116.8
122130.6
122150.3
122172.1
122189.1
122197.6
122197
122185.6
122164.8
122136.9
122102.7
122062.9
122021.3
121983.8
121958.5
121945
121953.4
121977.9
121999
122019.9
122045.3
122207.8
122187.7
122169.6
122142.3
122119.5
122098
122082.7
122082
122094.4
122107.6
122109
122099.9
122090.4
122090.4
122106.1
122139.2
122179.7
122213.5
122236.3
122247.8
122244.4
122229.8
122206.5
122176.6
122142
122105.1
122068.8
122040.7
122022.7
122009.9
122006.9
122012.4
122037.9
122059.2
122208.8
122193.6
122170.5
122151.3
122130.1
122110.7
122100.3
122105.5
122121.7
122118.9
122092.1
122056
122027.1
122022.3
122051.1
122110.4
122179.8
122239.3
122286.4
122309.8
122310.4
122298.3
122276
122247.4
122213.6
122176.4
122140.2
122108.4
122083.1
122062.6
122048.4
122044.9
122058.8
122080.8
122225.9
122200.8
122190.3
122172
122159.3
122141.1
122123.7
122114.2
122117.5
122123.1
122081.5
122004.4
121920.3
121858.7
121845.5
121892.5
121988.5
122101.3
122203.1
122284.1
122330.4
122352.3
122352.3
122331.7
122301.2
122265.1
122226.7
122187.9
122150.9
122117.9
122090
122070.6
122062.1
122071.7
122101.5
122167.6
122215.3
122188
122180.3
122169.7
122163.4
122150
122133.7
122118.4
122105.3
122078.8
121983.2
121830.6
121672.1
121558.6
121527.9
121597.6
121745.4
121921.9
122084.1
122211.6
122292.3
122332.2
122339.4
122328.8
122309.2
122281.5
122250.5
122216.7
122181.1
122145.2
122112.5
122086.8
122068.2
122070.5
122082.5
122118.7
122209.7
122181
122174.5
122168.4
122165.2
122156.7
122141
122116.8
122080.2
122010.1
121861.9
121639.1
121398.4
121229.1
121187.7
121294.3
121503.5
121732.8
121936.3
122092.3
122195.6
122254.4
122279.4
122281.8
122270.8
122251.7
122229.4
122204.1
122176.1
122146.3
122118.9
122096.1
122076.3
122068.4
122054.5
122071
122204.1
122176.4
122164.6
122165.8
122166.8
122163.2
122149.4
122119.4
122065.4
121964.5
121782.3
121517.8
121233.2
121024.7
120971
121097.5
121336.2
121595.7
121827.4
122006
122125
122192.5
122221.9
122226.2
122216.6
122200.7
122183.2
122164.2
122142.9
122120.3
122100.2
122083.9
122070.4
122060.1
122047.7
122041.9
122202.5
122173.9
122161
122163.7
122168.9
122171.2
122162.6
122134
122075.7
121966.7
121781.4
121521.7
121242.7
121033.6
120979.7
121091.9
121305.3
121548.1
121773.7
121953.8
122077.4
122148
122177.5
122180
122168.4
122152
122135.8
122119.8
122102.1
122083.2
122067.7
122057.7
122052.2
122046.9
122041.9
122029.7
122201.1
122172.9
122160.4
122163.8
122172.3
122181.1
122181.3
122162
122113.1
122017.1
121856.1
121634.4
121397.3
121219.3
121170.6
121254.2
121416.5
121608.1
121792.2
121943.7
122050.5
122112.7
122138.4
122138.6
122125
122107.2
122090.8
122075.7
122059.2
122041.2
122026.4
122018.8
122019
122021.1
122028.7
122025.4
122201.4
122174.3
122162.8
122166.9
122177.7
122192.3
122202.9
122198.6
122169.1
122100.3
121980
121812.6
121632.5
121496.4
121452.8
121502.6
121608.8
121738.5
121865.2
121969.8
122042.6
122083.2
122097.2
122092.1
122076.4
122057.8
122040.9
122025.3
122008.7
121990.6
121974.7
121966.2
121967.7
121973.7
121990.6
121999.5
122201.1
122178.1
122169.9
122173
122185
122203.8
122223.6
122236.3
122230.7
122195.1
122120.9
122010.9
121888.9
121794.9
121755.6
121772.4
121825.1
121893
121959.3
122011.6
122043.9
122056.2
122052.7
122038.2
122018.4
121998
121979.2
121961.7
121943.4
121925.1
121908.9
121899.9
121902
121909.8
121922.9
121937.3
122200.8
122179.9
122173.9
122178.6
122192.3
122213.3
122240.7
122268.2
122285.3
122282.6
122252.2
122195.4
122126
122062.3
122021.3
122008.1
122013.5
122026.9
122039.6
122045.4
122040.7
122026.3
122004.8
121979.3
121953
121927.9
121904.8
121882.8
121861.5
121843.1
121827.9
121821.7
121825.1
121838.5
121839.4
121860.3
122210
122184.8
122177
122180.9
122197.7
122221.3
122251.7
122288.8
122325.1
122349.7
122355.3
122337.9
122299
122247.6
122201.5
122165.4
122136.1
122110.1
122084.9
122057.4
122026.1
121991.4
121954.9
121918.3
121883.5
121850.2
121819.5
121791.4
121767.5
121749.1
121736.2
121735.8
121740.1
121760.7
121761.7
121784.6
122186
122177.5
122182.2
122200.8
122225.3
122255.1
122292.5
122334
122370.5
122392.1
122389.8
122363.5
122324
122279.7
122233.8
122187.2
122140.8
122095
122048.7
122001.2
121952.9
121904.3
121857.1
121812.1
121768.3
121729.1
121696.3
121671.9
121653.7
121644.8
121649.8
121657.7
121679.7
121679.2
122187.6
122181.5
122188.4
122202.4
122224.9
122251.3
122281.9
122316.3
122348.1
122368.4
122371.5
122357
122328.4
122289.1
122241.9
122189.7
122135.4
122080.5
122025
121968.5
121911.1
121852.7
121796.1
121741.1
121688.8
121644.8
121611.5
121587.9
121572.6
121568.3
121574.2
121586.2
121604.6
121610.1
122200.6
122191.3
122194.5
122205.4
122224.7
122248.2
122271.3
122296.5
122319.5
122334.2
122336.2
122324.2
122298.7
122261
122214.4
122161.8
122106.1
122048.9
121990.1
121929.2
121866.1
121801.2
121738.8
121677.9
121623.1
121579.7
121549
121526.9
121517
121515.6
121519.9
121536.7
121544.3
121559.5
122204
122205.4
122216.4
122227.1
122245.3
122261.5
122276
122288.2
122293.2
122288.6
122273.2
122246.5
122209
122164.2
122114.1
122061.2
122006
121948
121886.7
121822
121755.9
121693.5
121633.1
121581.4
121542.6
121516.8
121499.5
121494.9
121493.5
121501.1
121507.8
121508.3
122213.1
122225.6
122239.3
122247.5
122253.5
122255.7
122254.7
122247.2
122233.7
122213.2
122183.4
122146.1
122104.9
122059.5
122011.9
121961.2
121906.9
121848.8
121787.1
121725.6
121669.2
121616.6
121572.8
121540.3
121519.1
121505.5
121504.8
121507
121499.3
121498.9
122232.1
122237.3
122248.5
122254.9
122245.9
122237.8
122225.2
122206.2
122184.8
122159.7
122126.8
122090.8
122054.3
122014.6
121973.1
121927.4
121878.2
121826.6
121772.9
121722.6
121676.8
121635
121599.8
121573.5
121555.1
121543.2
121547.9
121536.1
121532.7
121531.6
122242.6
122249.7
122254.6
122245.8
122227.7
122208.5
122184.6
122157.9
122129.9
122095.8
122062.7
122031.5
121996.7
121959.9
121919.5
121878
121836
121793
121754.6
121721.5
121693.6
121667
121643.1
121625.9
121619.7
121607.6
121604.6
121595.6
122254.1
122254.8
122246.4
122237.8
122208.5
122185
122160
122133.5
122100.9
122072.2
122045.2
122013.9
121981.7
121948.2
121915.5
121884.6
121853.4
121828.3
121809.6
121795.4
121775.1
121759.2
121745.8
121716.2
121723.5
121710.4
122277.3
122265.3
122261.3
122246.9
122214.5
122192.7
122170.2
122142.4
122119.5
122096
122068.6
122043
122018.2
121996.9
121980
121962.2
121949.4
121941.3
121939.7
121935.4
121933
121912.8
121892
121891.6
122325.8
122305.6
122303.3
122281.4
122267.6
122239.2
122214.6
122197.9
122183.8
122162.2
122145.1
122131.2
122123.4
122121.5
122113.1
122119.9
122127
122153.5