/*--------------------------------*- C++ -*----------------------------------*\
  =========                 |
  \\      /  F ield         | OpenFOAM: The Open Source CFD Toolbox
   \\    /   O peration     | Website:  https://openfoam.org
    \\  /    A nd           | Version:  6
     \\/     M anipulation  |
\*---------------------------------------------------------------------------*/
FoamFile
{
    version     2.0;
    format      ascii;
    class       volScalarField;
    location    "49.8";
    object      p_rgh;
}
// * * * * * * * * * * * * * * * * * * * * * * * * * * * * * * * * * * * * * //

dimensions      [1 -1 -2 0 0 0 0];

internalField   nonuniform List<scalar> 
203709
(
122118.5
122147.3
122164.7
122162.2
122064.4
122083.8
122124.2
122164.2
122193.7
122207.5
122216.4
122194.1
122033.4
122018.5
122036.4
122050.7
122106
122172
122220.5
122248.1
122264.6
122257
122252.8
122221.4
122012.4
121961
121927.2
121932.6
121978.6
122075.4
122179.3
122255
122302.3
122331
122330.5
122317.4
122290.8
122265.4
121867.1
121767.2
121714.1
121721.8
121807.1
121954.5
122107.4
122224.5
122308.9
122355.3
122365.3
122356.2
122333.3
122304.4
121767.9
121644.8
121471.2
121372.2
121375.3
121500.5
121714
121931.3
122109.8
122238.1
122311.9
122342.3
122344.6
122329.7
122308.6
122274.4
121648.1
121426.4
121198.6
121045.8
121052.6
121229.9
121500.7
121770.4
121986.3
122134.6
122223.8
122268.7
122282.4
122275.5
122257
122232.5
121815.1
121622.6
121342.8
121083.9
120909.2
120916.8
121108.6
121387.1
121669
121903.6
122068.3
122166
122213.6
122229.6
122224.1
122206.6
122180.5
122160.5
121839.4
121640.9
121395.7
121163.8
121020.1
121033.8
121185.2
121416.8
121659.3
121876.7
122035.6
122137.8
122184
122198.8
122190.7
122171.2
122149
122132.4
121910.2
121740.7
121546.7
121367.6
121263.3
121274.9
121378.5
121552.4
121734.4
121906
122035.5
122125.1
122166.2
122180.2
122170.5
122149
122126.6
122109.7
122012
121893.8
121749
121622.9
121551.4
121559
121625.6
121736.9
121864.9
121981.7
122068.6
122127.9
122157.1
122164.7
122153
122131.2
122112.2
122100.2
122049.6
121964.5
121885.6
121839
121839
121876.9
121934.3
122001.2
122066.8
122115.6
122143.6
122154.3
122150.4
122134.8
122114.4
122108.9
122194.5
122174.9
122127.4
122096.2
122086.7
122096.6
122115.6
122137
122154.8
122164
122162.7
122153.4
122136.2
122114.7
122099.4
122104.8
122336.9
122326.6
122299.6
122276.7
122262.2
122247.1
122233.7
122214.8
122201.3
122179.2
122155.4
122128.5
122102.6
122098.6
122437.2
122456.1
122423
122394.3
122365.8
122332.2
122299.8
122260.2
122229.1
122195.1
122165
122128.6
122100.2
122094.2
122459.1
122451.4
122450.6
122413
122377.8
122335.4
122288.2
122251.4
122209.5
122175.2
122105.9
122068.5
122407
122398.5
122390.2
122346.3
122300.7
122257.4
122186.1
122142.2
122318.8
122301.5
122260.5
122218.8
122146.8
122158.8
122159.9
122157.5
122148.3
122132.3
122112.2
122090.3
122068.3
122037.4
122094.8
122127.8
122149.9
122157.9
122159.5
122159.2
122153.9
122143.6
122129.7
122111.4
122091.4
122062.5
122026.9
121989.3
122077.7
122109.6
122129.6
122139.7
122144.4
122148.3
122155.2
122159.4
122158.2
122152.5
122136.5
122119
122096.1
122067.6
122029.8
121996.6
122067.1
122100.3
122113.6
122117.4
122119
122125
122134.2
122149.5
122170.5
122183.9
122188
122172.3
122161.6
122137.3
122110.5
122076.5
122037.7
122013
122075.7
122107.5
122116.7
122111.5
122102.2
122097.3
122102.5
122118.1
122137.3
122168.7
122197.8
122220.8
122228.5
122223.7
122191.2
122170.8
122134.4
122095.6
122060.5
122041.5
122094.6
122126.3
122133.7
122117.3
122103
122075.8
122061
122061.7
122073.8
122116.9
122176.4
122224.6
122257.6
122276.4
122280.8
122271.9
122241.8
122197.2
122162.7
122124.5
122089
122074.8
122136.5
122151.4
122128.1
122090.6
122049.6
121994.4
121954.7
121956.9
122004.2
122091
122186.4
122260.8
122313.1
122341.4
122345.4
122334.3
122304
122269.1
122222
122178.4
122137.7
122111.6
122113.7
122156.9
122146
122082.7
122001.7
121904.3
121801
121748
121754.1
121834.3
121969
122114.3
122232.9
122319.2
122364.8
122379.9
122375.2
122347.8
122307.6
122265.9
122226.7
122185.9
122152.4
122114.1
122125.9
122137.9
122102
122003.7
121847.2
121701.6
121519.2
121419.1
121416.8
121531.4
121729.3
121939
122116.4
122245.7
122321.3
122354.6
122357.2
122339.7
122313.6
122275.9
122240.4
122203.3
122168.2
122135.9
122123.9
122108.5
122045.5
121921.4
121719.3
121469.8
121238.1
121091.6
121089.5
121247.2
121502.6
121761.1
121974.9
122127.6
122221.8
122270.3
122285.6
122278.9
122259.4
122230
122203
122175.5
122147.9
122125.6
122126.2
122094.4
122007.7
121846.7
121659.6
121366.5
121098.2
120923
120921.9
121099.1
121365.7
121641.4
121875.6
122045.6
122151.3
122205.6
122224.1
122219.6
122203.3
122180.3
122156.4
122132.9
122111
122096.3
122140.6
122103.6
122017.3
121865.5
121656.6
121398.4
121147.8
120990
120989.9
121136.8
121362.9
121608
121828.5
121997.4
122107.4
122164.6
122183.7
122178
122159
122135.5
122114.9
122093.1
122075.4
122063.4
122168.7
122138.3
122061.5
121928.1
121744.5
121534.4
121332.1
121207.5
121203.3
121309.6
121480.2
121670.1
121847
121987.5
122083.6
122135.7
122153.8
122147.5
122127.2
122103.6
122084.4
122061
122043.1
122031.8
122205.7
122190.8
122132
122026.6
121902.3
121729.9
121579.8
121488.8
121482.1
121549.3
121662.9
121793.4
121916.1
122013.6
122080.5
122116.3
122126.8
122117.7
122096.8
122078.3
122058.1
122028.9
122009.3
122000
122246.6
122250.5
122216.2
122155.9
122054.8
121942.5
121843.1
121779.9
121769
121803.2
121865.3
121938.2
122006.6
122059.3
122091.9
122105.1
122102.2
122086.8
122065.1
122053.9
122014
121991.9
121970
121962.6
122278.6
122305.4
122300.6
122270.2
122213.8
122171.6
122093
122046.6
122028.9
122034.3
122052.9
122076
122096.1
122107.7
122108.3
122098.4
122080.4
122057.5
122043
122030.3
121977
121945.7
121924.9
121920.1
122293.2
122349.2
122372.7
122376.2
122360.8
122335.3
122300.9
122263.1
122232.7
122211.6
122194.9
122180.2
122164.3
122146.4
122122.8
122094.1
122064.1
122035
122028.7
121975.2
121933.6
121899.9
121883.2
121882.4
122373.6
122424.2
122455.4
122467.5
122452.7
122448.8
122398.6
122359.6
122320.8
122283.3
122247.4
122211.1
122174.4
122136.3
122096.9
122061.9
122041.2
122021.6
121939.3
121887.4
121850.2
121833.7
122358.8
122429.7
122479
122501.7
122497.2
122476.9
122452.8
122433
122375.5
122331.9
122286.5
122241.8
122195.7
122153.9
122124.6
122081.8
122046.4
121972.4
121907.1
121854.2
121808.5
121786.2
122391.1
122451.9
122481.7
122490.6
122478.9
122463.1
122434
122403.3
122372.3
122309.8
122264
122224.9
122181
122143.8
122064
122009.1
121949.9
121882.8
121810
121732.8
122394.4
122446.1
122468
122466
122456.1
122427.9
122394.7
122358.2
122320.5
122278.9
122239.9
122170.2
122117.3
122054.5
121993.6
121927.7
121838.6
121737.9
122386
122425.6
122434
122428.6
122404.4
122376.5
122341.3
122302.2
122259.3
122218.5
122163.7
122107.3
122040.4
121969.4
121886.4
121783.1
122347.3
122366.8
122375.7
122359.7
122332.9
122302
122268.6
122230.4
122188.6
122140.1
122085.8
122008.8
121918
121860.3
122277.8
122277.7
122254.3
122224.3
122191.3
122156.5
122120.6
122082.3
122040.5
121987.4
122241.7
122232.1
122226
122211.6
122192.7
122175
122161.7
122158.7
122135.5
122169.5
122191.1
122195.1
122191.1
122182
122165.2
122145.8
122128.9
122117
122105.3
122080.9
122062.4
122038.7
122091.4
122108.8
122144
122168.2
122170.3
122164.9
122154.9
122138.2
122118.8
122100.9
122087.1
122077.3
122061.1
122035.4
122003.5
121950.5
122023.2
122050.1
122078.1
122098.8
122125.1
122145.7
122157.1
122155.5
122147.8
122134
122116.8
122099.1
122083.1
122069.1
122049.1
122017.4
121988
121938.1
121877.8
121828.4
122013.5
122025.3
122049.6
122071.6
122092.6
122122.7
122138.2
122139.7
122139
122135.2
122126.7
122114.3
122100
122084.7
122070.3
122051.9
122028.4
121998
121946.3
121894.8
121837.5
121789.6
122020.6
122026.1
122031.5
122051.9
122074.8
122096.7
122111.5
122120.8
122127.4
122130.6
122132.5
122132
122127.7
122119.9
122107.6
122093.2
122073.9
122051.8
122022
121987.8
121928.8
121878.8
121834.7
121833.8
122028.3
122036.6
122043
122064.1
122085.1
122092.7
122103.3
122108.2
122114.2
122120.3
122130.3
122141.5
122149.3
122151.1
122144.8
122136.2
122119.1
122097
122067.3
122031.1
121996.1
121939.9
121900.8
121877.3
122050.5
122054.7
122054.6
122065.5
122083.7
122088.3
122093.3
122095.6
122094.1
122098.8
122109.6
122127.6
122153.5
122177.1
122192.2
122198.1
122194.3
122178.6
122158.5
122128.6
122092.2
122050.7
122018.1
121972.8
121945.2
121939.3
122079.5
122075.3
122073.7
122082.3
122092.3
122094.5
122096.8
122092.3
122079
122067.3
122067
122084
122121.9
122170.8
122212.8
122241.5
122257.1
122257.9
122247.8
122226.9
122196.9
122162
122121.7
122077.6
122047.7
122008.5
121989.7
121998.9
122092
122093.3
122092.2
122100.8
122102.2
122102.9
122089.7
122059.6
122018.4
121990.3
121990.8
122029.2
122101
122182.4
122250.9
122300.4
122325.4
122328.5
122317.9
122293.6
122263.5
122225.8
122182
122136.4
122098.9
122051.7
122029
122023.1
122106.4
122107
122110
122116.4
122102.8
122083
122029.2
121949.6
121863.2
121808.5
121807.1
121871.5
121986.3
122115.4
122226.5
122308.2
122353.1
122371.6
122369.3
122344.3
122307.3
122267.9
122224.6
122179.9
122137.7
122091.6
122058.1
122040.8
122127.9
122132.5
122124.6
122117.9
122098.5
122074.9
122022.6
121908.3
121757.2
121597.7
121493.4
121478.3
121572
121745.4
121939.6
122109.2
122235.2
122311.5
122346.9
122350.7
122333.7
122305.5
122272.2
122236
122197.7
122159.9
122119.8
122085.6
122057.9
122026
122134.4
122143.8
122136
122121.9
122082.9
122034.4
121942.3
121776
121545.4
121311.3
121156.5
121135.1
121267.9
121503
121747.9
121956.3
122109.5
122206.9
122258.9
122277.2
122272
122252.7
122224.9
122197.4
122167.8
122138.8
122109.2
122079.5
122053.8
122032.7
122141.9
122154
122146.7
122129.1
122077.8
122007.8
121885.9
121694.6
121423.5
121148.1
120957.1
120932.3
121089
121345.3
121614.2
121846.9
122020.3
122131.6
122191.2
122213.2
122210.4
122193.3
122168.2
122144.4
122121.6
122099.1
122078.3
122054.7
122036.6
122026.1
122147.3
122164.7
122161.5
122145.1
122090.6
122014.5
121886.9
121690.9
121431.6
121167.2
120984.4
120962.6
121099.8
121324.1
121570.4
121794
121968.2
122084.3
122147.4
122170.2
122166.3
122147.8
122123.5
122100.4
122079.7
122059.9
122043.3
122022.5
122010.2
122008.6
122149.8
122175.2
122180.5
122171.2
122123.4
122054
121940.4
121768.8
121550
121330.5
121181.2
121160.3
121263.3
121434.9
121629.2
121811.3
121958.1
122059.6
122116.7
122137.5
122132.7
122113
122088.3
122065.6
122044.7
122024.7
122009.5
121987.1
121976
121978.6
122151.7
122184.5
122200.9
122204
122171.5
122118.4
122031.5
121902.9
121734.6
121568.6
121457.3
121437.4
121503.3
121619.3
121753.9
121881.8
121985.4
122056.6
122095.5
122107.1
122098.5
122077.6
122054.4
122032.2
122009.2
121987.3
121973.8
121947.3
121934
121936.5
122153.6
122190.5
122219.5
122238.4
122227
122197.2
122142.4
122055
121941.1
121827.4
121750.6
121731.1
121763.4
121827.9
121904.4
121976.4
122032.4
122067.3
122081.3
122077.8
122061.2
122037.7
122015.5
121989.9
121964.5
121940.1
121930.5
121898.9
121883.2
121884.6
122150.8
122187.6
122232.6
122266.7
122280.1
122276.1
122252.3
122206.8
122145.4
122074.3
122021.4
121997.5
122000.5
122020.1
122045.3
122067.1
122079.8
122080.6
122069.7
122049.7
122023.5
121998.3
121974.5
121943.2
121910.3
121883.1
121878
121837.5
121821.7
121827.5
122190
122243.7
122291.6
122328.3
122342.6
122348.1
122338
122314.3
122277.7
122236.2
122202.9
122180
122163.7
122149.5
122133.8
122114
122088.6
122057.8
122023.6
121988.4
121960.8
121925.9
121887.1
121848.2
121828.9
121816.2
121763.4
121748.7
122185.3
122238.8
122286.5
122347.3
122387.9
122418
122433.7
122429.3
122405.8
122364.9
122324.2
122284.3
122246.6
122209.7
122172
122132.2
122090.2
122046.6
122003.3
121963.8
121927.5
121877.3
121826.2
121782.2
121770.3
121713.7
121686.8
121680.5
122170.8
122219.6
122280.4
122341.9
122399.5
122435.3
122455.6
122455.2
122438.7
122409.8
122374.7
122328.4
122282.2
122234.6
122186.7
122136.9
122087.7
122040.7
121990.5
121942.3
121885.5
121825.7
121772.8
121740.5
121713.6
121640.3
121612
121606.1
122208
122268.1
122321.4
122376.2
122418.3
122436.5
122443.2
122435.4
122414.9
122383.3
122341.2
122293.5
122238.5
122186.3
122135.2
122084.7
122033.7
121971
121912.8
121848.6
121786.8
121742.8
121695
121624
121580.3
121543.1
122254.8
122307.3
122350.4
122394
122422.4
122425.1
122417.9
122400.4
122369.1
122327.5
122280.6
122230.2
122179.8
122129.3
122073.5
122018.4
121953.6
121890.7
121825.2
121773.9
121717.2
121634.4
121583.9
121548.2
122241.5
122290.5
122336
122366.2
122395.9
122404.1
122388.2
122369.1
122338.1
122299.3
122255.9
122211
122164.8
122117.5
122065.3
122008.9
121943.3
121882.5
121825.4
121770.3
121688
121627.3
121578.6
121535.8
122266.1
122305.3
122339.3
122353.9
122365.1
122360.8
122343.5
122303.4
122268.1
122232.9
122196.7
122156.9
122113.1
122064.3
122012.3
121962.4
121906.5
121845.1
121771.6
121714.4
121657.6
121614.7
122258.5
122280.8
122308.9
122313.7
122302.2
122301.1
122281.1
122256.9
122231
122202.8
122170.2
122133.7
122092.6
122046.8
121994.1
121922.9
121873.7
121832.6
121779.1
121748.2
122244.9
122267.5
122270.5
122263.1
122244.8
122225.9
122207
122184.4
122159.8
122132.5
122100.5
122067.1
122038.1
121998.7
121961.4
121977.1
122236.5
122239.9
122231.2
122237.9
122231.1
122220.8
122208.7
122194.5
122175.8
122153.3
122123.1
122103.8
122112.2
122152.6
122272
122257.6
122252.7
122250.2
122246.8
122241.1
122244.3
122292
122318.2
122305
122295.3
122284.7
122280.2
122295.1
122189.2
122220.6
122239.3
122261.8
122249
122240.8
122229.6
122216.4
122207.5
122204.4
122203.5
122199.8
122199.8
122200.5
122086.1
122117.2
122134.5
122168.5
122191.1
122207.2
122203.6
122192.2
122176.8
122160.8
122149.9
122147.3
122147.8
122140.1
122133.4
122122.5
122102.9
122107.3
122049.1
122055.1
122081.2
122095.3
122131.6
122155.6
122170
122163.4
122150.7
122133
122114.7
122101
122094.4
122094.3
122086.5
122073.3
122054.3
122034.4
122014.2
121991.1
122021
122025.7
122029.8
122049.9
122075.1
122099.9
122121.5
122135.4
122137.3
122127.4
122110
122090.5
122073.5
122060.3
122048.7
122035.9
122018
121998.7
121966.6
121935.7
121897.1
121857
122017.6
122012.3
122007.7
122018.9
122039.7
122054.5
122080.9
122102.7
122117.9
122122.8
122117
122102.8
122084.2
122065.3
122047.2
122029.3
122010.2
121985.3
121956.1
121924
121883.5
121836.6
121798.1
121780.8
122031.8
122019.7
122006.2
122004.8
122008.1
122024
122046.4
122074.3
122093.8
122107
122113.1
122111.9
122103.4
122089.2
122071.9
122052.7
122032
122008.9
121982.7
121948.2
121906.7
121863.4
121817.4
121777.3
121767.2
121789.2
122059.8
122037.7
122022
122009.6
122000.3
122007.2
122024.7
122047.5
122071.3
122087.2
122099.3
122107
122110.7
122109.7
122103.3
122092.1
122077.5
122059.2
122035.8
122008.9
121973.9
121933
121887.5
121839.3
121797.5
121783
121797.8
121850.6
122091.1
122068.4
122044.4
122026.2
122008.9
122005.4
122015.8
122033.2
122052.7
122071.3
122082.8
122093.1
122102.9
122113
122121.8
122126.5
122125.4
122117.5
122103.9
122083.5
122057.8
122024.6
121984.8
121943.8
121900.1
121863.9
121849.5
121847
121876.1
121910.9
122091.2
122073.6
122053.1
122037.8
122018.8
122019
122030.5
122046.2
122061.8
122071.8
122076.4
122083.7
122096.2
122114.6
122136.5
122155.2
122166.2
122167.9
122160.4
122144.4
122121.5
122091.3
122054.6
122014.1
121976.4
121944.8
121922.1
121919.8
121919.5
121930.4
122120.5
122104.5
122086.5
122065.8
122043.5
122034.3
122036.9
122050.5
122065.4
122070.2
122065.1
122058.8
122060.9
122078.1
122111.1
122151.7
122187.8
122213.1
122225.2
122223.9
122212.1
122191.4
122163.7
122130.3
122092
122051.3
122018.4
121996.7
121981.6
121982.6
121971
121998.3
122121.8
122112.7
122098.1
122072.6
122055.9
122049.1
122055.4
122073.3
122074.5
122055.1
122025.1
122001.9
122000.4
122030.3
122089.2
122158.7
122221.3
122267.7
122290.1
122293
122282.8
122261.1
122232.7
122197.3
122156.5
122114.1
122075.8
122045.1
122023
122012.7
122008
122021.8
122121.1
122119.2
122110.1
122084.3
122069.9
122062.3
122066.4
122074.8
122040.7
121975.9
121901.8
121847.2
121837
121884.2
121980.4
122093.5
122195.7
122272.3
122315.8
122335.5
122334.1
122312.1
122279
122241.2
122200.2
122158
122116.7
122078.5
122047.2
122027.5
122009.9
122017.8
122122.3
122128.4
122120.9
122097
122080
122063.7
122054.5
122033.7
121947.3
121810.5
121663.1
121555.3
121525.9
121594.1
121740
121915.7
122074.8
122196
122272
122308.9
122314.7
122301.3
122277.4
122247.7
122214.2
122178.7
122142
122104.1
122070.2
122042.9
122009.8
122007.9
122122.5
122122.5
122131.7
122122.6
122108
122088.9
122060.8
122027.6
121965.2
121827.6
121616.3
121386.1
121219.9
121174.9
121278.5
121485.9
121714.1
121915
122067
122166.8
122222.3
122244.3
122242.9
122227.5
122204.4
122179.2
122152.3
122124.1
122094.1
122067
122043.1
122019.2
122003.1
121979.3
122116.7
122119.7
122131.8
122127.5
122118.5
122099.7
122063.3
122009.9
121914.7
121742.1
121486.7
121209.8
121001.7
120943.2
121067.9
121308.4
121567.7
121797.5
121973.1
122089.5
122154.5
122181.3
122182.3
122168.7
122148.2
122127.5
122106.7
122085
122062.3
122042.1
122025.2
122012.1
121993.3
121978.9
122114.4
122117.8
122131.9
122133.7
122131.1
122116.5
122079.1
122018.1
121910.9
121731.5
121477.5
121202.8
120993.3
120937.7
121051.5
121268.2
121512.5
121737.8
121916.6
122038.9
122108.2
122136.2
122136.6
122121.8
122101.3
122081.5
122063
122044.1
122024.4
122007.8
121996.2
121993.5
121981.2
121978.2
122112.9
122115.1
122131.1
122140.2
122146.1
122140.1
122110.1
122055.3
121957.1
121797.2
121577.9
121343.1
121166.3
121118.8
121206.1
121372.6
121567.3
121753.1
121905.4
122012.7
122075.1
122100.3
122099.2
122083.1
122061.8
122041.5
122023.1
122004.7
121985.4
121968.6
121958.1
121962.1
121957.9
121970
122115
122112.6
122130.4
122146.8
122162
122168
122152.4
122114
122039.6
121916.7
121748.5
121569
121434.4
121393.9
121448.8
121560.8
121695.7
121826.6
121934.4
122009.6
122051.7
122066
122059.9
122041.9
122020.1
121999.4
121979.9
121960.3
121940.9
121922.7
121910.4
121916.5
121914.6
121935.8
122122.4
122111
122132.2
122153.3
122176.8
122195.9
122199.2
122183.5
122139.6
122059.4
121945.5
121822.3
121729.4
121694.7
121718.4
121778.8
121854.2
121926.9
121984.2
122020.3
122035
122032
122016.5
121994.2
121970.8
121947.8
121925.7
121903.5
121884.8
121865.5
121852.3
121857.8
121852.2
121873.8
122119.8
122136.2
122159.5
122186.8
122218
122241.3
122250.4
122238.6
122200.2
122137.4
122064.7
122004
121970
121965.1
121979.6
122001.5
122021.2
122032.3
122031.5
122019.3
121998.2
121971.3
121942.9
121915.1
121886.9
121858.6
121832.3
121814.8
121794.7
121785.7
121784.5
121772.7
122118.9
122126.9
122158.3
122192.8
122233.8
122272.9
122303.2
122320.6
122319.3
122298.8
122261.9
122216.4
122176.7
122147.5
122125.6
122106.4
122086.5
122063
122034.4
122001.2
121964.5
121926.4
121890.3
121853.2
121816.2
121779.9
121752
121732.6
121711.4
121712.9
121694
121698.3
122120.9
122127.6
122157.1
122193.4
122236.8
122287.1
122334.8
122374.1
122397.1
122396.8
122372
122332.3
122289
122245.6
122202.8
122160.3
122117.4
122073.4
122027.6
121980.4
121931.7
121883.6
121836.9
121787.3
121738.8
121696
121669
121641.8
121626.2
121635.4
121615.4
121621.8
122124.6
122133
122158
122193
122231.7
122279.5
122328.3
122369.6
122396.1
122401.9
122388.1
122360.1
122322
122276.1
122226.2
122173.9
122120.8
122066.8
122011.9
121956.2
121897.7
121839.8
121780.1
121718.9
121663.9
121622.7
121594.6
121566.9
121559
121558.1
121541.6
121556.1
122139.8
122159.1
122194.6
122234.7
122270.2
122310.3
122345.6
122368.4
122376.9
122370.1
122348.4
122313
122267.4
122215.4
122159.8
122103.4
122046.1
121987.2
121925.9
121859.1
121793.8
121725.1
121659.1
121605.9
121565.7
121533.5
121520.8
121506.9
121486.9
121487.9
122144
122165.4
122192.7
122233.9
122266
122296.9
122325.2
122341.5
122343.2
122334
122312
122276.7
122231.7
122180.4
122126.4
122071.1
122014.8
121955.4
121891.6
121821.3
121753.7
121683.9
121623.2
121574.7
121531.7
121505.4
121496.3
121469.8
121462.6
121456.3
122168.7
122200
122237.8
122267.2
122285.3
122300.3
122307.3
122301.5
122285
122258.9
122223.5
122181.4
122134.2
122085.4
122034.9
121982.4
121925.7
121863.2
121795.1
121733.1
121670.6
121617.3
121569.8
121536.3
121518.8
121501.4
121479.4
121457.4
122197.5
122229
122259.9
122273.9
122275.2
122270
122258.8
122240.1
122210.2
122174
122136.6
122096.5
122055.2
122010.7
121962.8
121911.1
121855.4
121797.3
121744.2
121691.1
121643.5
121606.1
121581.6
121556.1
121539.4
121517.8
122211.5
122235.2
122256.5
122258.5
122252.8
122225.3
122201.7
122175.8
122146.6
122117.6
122085
122050.5
122012.2
121971.3
121927.7
121879.5
121829.8
121784
121750.8
121731.9
121693.9
121662.9
121644.6
121628.5
122213.4
122234.3
122228.5
122233.9
122219.3
122191.1
122166.5
122142.7
122118.2
122090.3
122061.7
122031.4
122000.6
121969.5
121934.7
121900.2
121872.6
121864.4
121845.3
121818.5
121815.1
121805.8
122229.1
122236.2
122232.3
122226.4
122217.4
122203.4
122189.5
122154.6
122130.4
122110.2
122089.4
122069.6
122055.5
122053.5
122035.3
122019.1
122014.6
122029.3
122019.1
122074.9
122266.5
122261.7
122264.3
122260.3
122251
122249
122233.5
122220.8
122213.2
122204.2
122194.7
122193.4
122202.7
122205.9
122215.4
122230.9
122265.1
122324.1
122359.3
122341.8
122327.5
122332.1
122326.7
122325.3
122330.7
122333.9
122336.8
122346.9
122384.3
122424.1
122504.4
122604.6
122489.1
122474.4
122489.8
122507.2
122541.1
122633.4
122300.2
122316.9
122331.5
122329.4
122327
122319.3
122312.2
122311.1
122318.6
122331.4
122160.8
122180.5
122222.8
122236.5
122255.2
122264.9
122263.3
122255.3
122245.3
122240.4
122244.6
122255.3
122266.8
122265.2
122264.7
122279.9
122101.3
122101.9
122124.9
122166.5
122188.8
122208.7
122221
122213.5
122201.4
122188.8
122181.9
122186.3
122190.3
122198.4
122198.7
122196.7
122208.8
122212.1
122037.9
122041.4
122053.5
122063.4
122087.1
122115.7
122143.4
122169.1
122182.1
122178.4
122164.2
122148.9
122137.9
122132.8
122130.1
122129.3
122126.2
122126.8
122118.8
122111.2
122098.1
122113.4
122030.9
122016.7
122014
122024.5
122030.8
122050.2
122080.6
122111.1
122140.6
122152.3
122147.7
122132.1
122114.2
122098.7
122087.1
122078.3
122069.1
122057.8
122044.5
122028.1
122013.9
121993.4
121981.7
121963
122040.9
122019.6
122000.7
121997.9
121996.7
122005.8
122026.2
122054.7
122084.6
122113.8
122127.7
122123.8
122107.9
122087.8
122068
122049.3
122031.5
122013.5
121993.2
121969.9
121942.4
121913.4
121890.4
121870.7
121869.2
121884.1
122066.8
122036.8
122011.3
121995.4
121981.7
121980.8
121989.9
122008.7
122036.9
122066.4
122094.2
122109.3
122108.4
122094.5
122074.2
122051.7
122027.7
122002.8
121976.7
121947.6
121914.4
121878.2
121840.5
121809.6
121800.4
121818
121873.7
121926.5
122096.8
122064.6
122033.1
122011
121986.4
121974.8
121971.8
121979.7
122000.1
122029.2
122057.2
122081.9
122096.3
122098.7
122089.6
122072.7
122051.6
122027.3
122001.1
121969.9
121934.4
121894.3
121850.7
121808.5
121776.1
121768.3
121800
121859.5
121928
121968.6
122086.9
122061
122034.3
122005.6
121984.4
121971.5
121969
121978.9
122001.3
122029.4
122054
122075
122089.2
122095.3
122092.9
122083.6
122069.2
122049.1
122023.8
121991.9
121955.5
121913.7
121868.2
121824.2
121787.5
121773.7
121800
121857.2
121914.1
121956.4
122121.4
122095.8
122065.8
122032.3
122006.9
121985.7
121973.8
121974.2
121987.1
122010.3
122034.8
122053.8
122070.2
122083.9
122094.7
122101.2
122102
122096.6
122084
122064.1
122037.2
122005
121967
121924.4
121882.8
121846.2
121824.6
121830.3
121865.6
121911.8
121942.4
121963.4
122147.1
122117.9
122094.1
122062.7
122035.8
122012.6
121992.2
121983.2
121988.3
122004.6
122024.9
122041
122051.1
122061.4
122074.8
122091.8
122109.7
122123.7
122130.5
122128.3
122116.8
122096.9
122070.5
122038.5
122001.8
121964
121931
121910.9
121901.9
121906.5
121926.6
121951.7
121978.9
122006.8
122133.2
122111.1
122092.8
122065.4
122042.2
122019.9
122003.4
122000.4
122011.6
122029.1
122041
122042.3
122039.1
122041.5
122055.9
122083.5
122117.6
122148.5
122170.3
122179.7
122176.5
122163.4
122142.1
122114.9
122083.6
122049.6
122016.9
121993.5
121979.4
121970
121967.4
121971.3
121996.4
122018.5
122131.7
122114.6
122090.9
122071.7
122050.3
122030.7
122019.3
122022.2
122039.3
122052.1
122041.6
122017.8
121995.6
121989.8
122010.9
122058.4
122118.2
122175.5
122219.1
122239.6
122242.4
122232.7
122212.7
122186
122153
122117.9
122083.5
122053.3
122030
122011.7
121999.7
121997.7
122011.1
122033.6
122150.4
122121.3
122108.5
122089.9
122077.6
122060
122043.6
122035.2
122039.4
122055
122042.5
121988.5
121921.2
121865.1
121844.8
121875.4
121954.2
122053.2
122146.5
122218.4
122259.4
122278.9
122278.6
122259.4
122230.7
122197.6
122162.5
122126.4
122090.5
122057.6
122028.7
122008.6
122000
122008.8
122039.7
122103.1
122138.8
122107.8
122097.1
122086.1
122080.4
122068.6
122055.4
122044.9
122039.3
122033.4
121975.4
121853.2
121713.3
121600.6
121555.4
121597.9
121717.2
121873.1
122021.1
122137.1
122211.7
122249.4
122257.7
122248.8
122231.1
122206.9
122179
122148
122114.4
122079.7
122046.9
122020.7
122000.4
121999.5
122009.3
122042.1
122132.7
122100.3
122091.3
122084.4
122081.9
122075.8
122065
122048.9
122025.3
121981.6
121871.8
121679.9
121454.3
121276.5
121206.9
121278
121454.7
121665.2
121857.8
122007.9
122109.1
122167.4
122193.1
122196.5
122186.7
122169.5
122149.3
122126.3
122100.3
122072.2
122045.9
122023.7
122003.4
121993.8
121978.2
121991.8
122127.3
122096.3
122082.1
122082.3
122084
122082.9
122074.8
122054.3
122015.2
121939.5
121789.5
121550.4
121274.7
121048.8
120954.4
121043.6
121261.3
121508.7
121734.8
121912.3
122033
122103
122134.5
122140.4
122132
122117.3
122101.3
122083.9
122064
122042.7
122023.7
122008.5
121995.2
121984.1
121970.1
121962.3
122125.9
122094.5
122079.6
122081.3
122086.9
122091.5
122088.2
122068.4
122023.8
121935.1
121773.1
121529
121249
121015.1
120918.6
120999.1
121204.1
121444.4
121670.6
121853.9
121982
122057.1
122090.4
122095.6
122085.6
122070.4
122055.3
122040.3
122023.4
122005.2
121990.4
121981.4
121976.8
121971.3
121965
121950.5
122124.8
122094.5
122080.3
122082.8
122091.5
122102.1
122106.4
122094.2
122055.8
121974.4
121828.2
121613.1
121368
121164.3
121083.9
121147.6
121305.2
121498.1
121686.4
121843.5
121956
122023.2
122052.8
122055.8
122044
122027.3
122011.7
121997.2
121981.2
121963.5
121949
121942.2
121943.7
121946.6
121954
121949.1
122125.4
122096.9
122084.3
122087.6
122098.4
122114.1
122127.7
122128.4
122106.1
122046.7
121934.8
121769.1
121579.5
121422.6
121357.8
121396.1
121499.9
121632.4
121764.5
121875.2
121953.4
121998.2
122015
122011.7
121997
121978.9
121962.2
121946.9
121930.4
121912.5
121896.9
121889.1
121892.1
121899.8
121918.4
121927.9
122125.5
122101.5
122092.8
122095.4
122107.4
122127
122148.9
122164.9
122163.8
122133.9
122064.1
121953.9
121824.3
121716.1
121663.5
121674.5
121727.1
121798.5
121869.7
121927
121963.1
121977.8
121975.4
121961.1
121940.9
121919.8
121900.6
121882.7
121864.2
121845.9
121830
121821.8
121825.4
121835.2
121850.8
121868.2
122125.8
122104.5
122097.9
122102.6
122116.5
122138.3
122167.3
122197.2
122217.5
122218.1
122190.1
122132.2
122057.9
121988.1
121941.6
121926.1
121932.4
121948.4
121964.2
121972.3
121969
121954.8
121932.5
121905.6
121877.6
121850.8
121826.2
121803.2
121781.4
121762.9
121748
121742.6
121747.3
121762.6
121765.6
121789.6
122135.9
122110.3
122102.1
122106.3
122123.7
122148.4
122180.5
122220.5
122259.3
122286.4
122293.9
122278.6
122240.5
122188.5
122140
122102.4
122072.8
122047.2
122022
121994.2
121961.9
121925.5
121886.7
121847.6
121810.2
121774.3
121741.6
121712.1
121687.5
121668.8
121656.2
121656.4
121661.7
121683.8
121686.7
121711.7
122112.3
122103.8
122109
122128.7
122154.7
122186.8
122227.6
122273.2
122314.6
122341.8
122344.7
122320.5
122279.6
122233
122184.8
122136.3
122088
122040.1
121991.7
121941.8
121890.8
121839.2
121789
121740.8
121694.2
121652.9
121618.6
121593.3
121574.7
121565.8
121571.2
121579.7
121602.8
121603.7
122115
122109.1
122116.7
122131.9
122156.2
122185.3
122219.7
122259.3
122296.9
122322.7
122329.3
122316.4
122287.7
122247.1
122198.1
122143.7
122086.9
122029.4
121971.2
121911.9
121851.5
121790
121730.2
121672.1
121617.2
121571.2
121536.6
121512
121496.2
121491.6
121497.5
121509.8
121528.8
121535.2
122129
122120.1
122124
122136.3
122157.7
122183.8
122210.5
122240.2
122268
122287.1
122292.5
122282.6
122257.8
122219.7
122171.7
122117
122058.8
121999
121937.6
121874
121808.1
121740.4
121675.1
121611.6
121554.6
121509.3
121477.3
121454.1
121444.1
121442.1
121446.3
121463
121470.9
121485.9
122133.6
122136
122148.3
122161.1
122181.9
122201.5
122220.1
122236.5
122245.3
122243.7
122230.2
122204.3
122166.3
122120.3
122068.4
122013.4
121956.1
121895.9
121832.3
121765.3
121696.8
121632
121569.4
121515.8
121475.6
121448.4
121430.2
121425.1
121423.3
121430.9
121437.4
121437.6
122144.7
122158.4
122173.9
122184.7
122193.8
122199.5
122202
122197.8
122186.7
122167.7
122138.5
122100.9
122058.7
122011.9
121962.8
121910.5
121854.6
121794.7
121731.2
121667.8
121609.5
121555.2
121509.8
121476
121453.5
121439.1
121437.9
121440
121432
121431.7
122164.2
122170.6
122183.6
122192.1
122185.9
122180.6
122170.7
122154.2
122134.7
122110.8
122078.4
122042.2
122005.2
121964.7
121922.3
121875.6
121825.3
121772.4
121717.3
121665.6
121618.4
121575.3
121539
121511.7
121492.1
121479.5
121484.1
121472.1
121469.1
121467.7
122176.2
122184.7
122191.5
122184.8
122168.9
122151.7
122129.4
122104.2
122077.2
122043.5
122010.6
121979.3
121944.5
121907.3
121866.4
121824.1
121781.3
121737.4
121697.9
121664
121635.3
121608.2
121583.8
121565.6
121559.1
121547.2
121544.7
121535.5
122188.4
122190.3
122183.8
122176.6
122148.8
122126.6
122102.8
122077.3
122045.3
122017
121990.3
121959.3
121927.2
121893.4
121860.4
121829.1
121797.3
121771.6
121752.6
121738.2
121718.2
121702.8
121688.9
121659.7
121668.4
121655.5
122210.8
122200
122197.5
122184
122153
122132.3
122110.8
122083.7
122061.5
122038.5
122011.6
121986.2
121961.5
121940.1
121923.1
121905.1
121892.3
121884.6
121883.7
121880.8
121880.1
121861.8
121843.1
121844.2
122257.6
122238.6
122237.6
122216.9
122204.1
122176.8
122152.9
122137
122123.5
122102.5
122085.8
122072.1
122064.5
122062.6
122054.6
122061.8
122070