/*--------------------------------*- C++ -*----------------------------------*\
  =========                 |
  \\      /  F ield         | OpenFOAM: The Open Source CFD Toolbox
   \\    /   O peration     | Website:  https://openfoam.org
    \\  /    A nd           | Version:  6
     \\/     M anipulation  |
\*---------------------------------------------------------------------------*/
FoamFile
{
    version     2.0;
    format      ascii;
    class       volScalarField;
    location    "49.8";
    object      rhok;
}
// * * * * * * * * * * * * * * * * * * * * * * * * * * * * * * * * * * * * * //

dimensions      [0 0 0 0 0 0 0];

internalField   nonuniform List<scalar> 
203709
(
0.9929473
0.9928919
0.9928437
0.9928334
0.9932938
0.9932427
0.9931069
0.9930426
0.9929882
0.9929554
0.9929491
0.9929934
0.9936235
0.9935842
0.9934829
0.9934275
0.9933273
0.9932518
0.9931919
0.9931553
0.993141
0.9931648
0.9931903
0.9932792
0.9936177
0.9936221
0.9936119
0.9935821
0.9935558
0.9934993
0.9934409
0.9933903
0.9933584
0.9933462
0.9933656
0.9933982
0.9934463
0.993512
0.9936227
0.9936229
0.9936211
0.9936159
0.9936119
0.9935923
0.9935641
0.9935374
0.9935222
0.9935216
0.9935424
0.9935763
0.9936198
0.9936553
0.9936597
0.9936521
0.9936535
0.9936516
0.9936477
0.993643
0.9936385
0.9936388
0.9936355
0.9936386
0.9936521
0.9936783
0.9937121
0.9937469
0.993761
0.9937802
0.9937012
0.9936966
0.9936892
0.9936803
0.9936697
0.993662
0.9936598
0.9936667
0.9936829
0.9937108
0.9937379
0.9937483
0.9937351
0.9936965
0.993651
0.9936302
0.9938102
0.9937692
0.9937651
0.9937501
0.9937283
0.9937055
0.9936846
0.9936605
0.993634
0.9936098
0.9935909
0.9935746
0.9935608
0.9935479
0.9935342
0.9935193
0.9935034
0.9935005
0.9938794
0.9938981
0.9938823
0.9938383
0.9937877
0.9937526
0.9937473
0.9937486
0.9937391
0.993719
0.9936947
0.9936712
0.9936494
0.9936284
0.9936069
0.9935841
0.9935612
0.9935397
0.9939321
0.9939616
0.9939793
0.9939427
0.9938418
0.9937452
0.9937264
0.993764
0.9938067
0.9938267
0.9938226
0.9938041
0.9937786
0.9937502
0.9937207
0.9936906
0.9936599
0.9936253
0.9939739
0.9939869
0.9939819
0.9939258
0.9938282
0.9937232
0.9936596
0.9936742
0.993754
0.9938416
0.9938947
0.9939085
0.9938952
0.9938669
0.9938329
0.9937998
0.99377
0.9937172
0.9939764
0.9939377
0.9938591
0.9937571
0.9936589
0.9935954
0.9935906
0.9936509
0.9937565
0.9938662
0.9939423
0.9939706
0.9939587
0.9939243
0.9938861
0.9938566
0.9939093
0.9938491
0.993759
0.9936626
0.9935832
0.9935391
0.9935422
0.9935946
0.9936884
0.9938038
0.9939124
0.9939867
0.9940131
0.9939962
0.9939548
0.993904
0.9937182
0.9936361
0.9935665
0.9935213
0.9935095
0.9935342
0.9935931
0.9936799
0.9937835
0.9938886
0.9939764
0.9940308
0.9940422
0.9940208
0.9936014
0.9935519
0.9935219
0.9935123
0.9935314
0.9935766
0.9936437
0.993726
0.9938145
0.9939026
0.9939789
0.9940381
0.9940649
0.9940556
0.9935697
0.9935577
0.993567
0.9936126
0.9936699
0.9937392
0.9938134
0.9938826
0.9939485
0.9940015
0.9940561
0.9940768
0.9937409
0.9937527
0.9938024
0.9938678
0.9939262
0.9939689
0.9940145
0.9940267
0.9939951
0.9940134
0.9940428
0.9940396
0.9930651
0.9929458
0.9928566
0.9927811
0.9927309
0.9927092
0.9927215
0.9927733
0.9928672
0.9929853
0.9933486
0.9931606
0.9930614
0.9929586
0.9928697
0.9927912
0.9927355
0.9927072
0.9927117
0.9927555
0.9928444
0.992959
0.9931113
0.9932513
0.9934761
0.9933604
0.9932009
0.9930975
0.9929993
0.9929111
0.9928264
0.9927598
0.9927234
0.9927189
0.9927467
0.9928152
0.9929231
0.9930613
0.9932147
0.9933573
0.9936345
0.993519
0.993412
0.99328
0.9931795
0.993079
0.9929767
0.9928997
0.9928177
0.992769
0.9927555
0.9927622
0.992811
0.992893
0.9930028
0.9931432
0.9932773
0.9933443
0.9938002
0.9936968
0.9936011
0.9935188
0.9934113
0.9932988
0.9932136
0.9931081
0.9930131
0.9929315
0.9928697
0.9928291
0.9928276
0.9928586
0.9929131
0.9929957
0.9931036
0.9932187
0.9933147
0.9933826
0.9939254
0.9938487
0.9937706
0.9936939
0.9936234
0.9935552
0.9934672
0.9933836
0.9932944
0.993202
0.9931126
0.9930361
0.9929776
0.9929532
0.9929543
0.992994
0.9930763
0.993156
0.9932508
0.9933537
0.9934557
0.9935473
0.9939218
0.9938464
0.9937642
0.9936926
0.9936336
0.9935949
0.9935484
0.9935024
0.9934449
0.9933759
0.9933012
0.9932307
0.993172
0.9931384
0.9931302
0.9931563
0.993232
0.9933402
0.9934
0.9934821
0.993576
0.9936464
0.9939656
0.9938776
0.9937701
0.9936801
0.9936261
0.9935926
0.9935639
0.9935449
0.9935305
0.9935111
0.9934798
0.9934372
0.9933928
0.9933548
0.9933335
0.9933337
0.9933621
0.9934288
0.9935392
0.9935987
0.9936549
0.9937064
0.9937461
0.9937773
0.9939316
0.9938088
0.9937055
0.9936444
0.9936163
0.993598
0.9935755
0.9935641
0.9935554
0.9935454
0.9935331
0.9935195
0.9935069
0.993497
0.9934987
0.9935163
0.9935519
0.9936066
0.9936746
0.9937147
0.9937232
0.9937338
0.9937548
0.9937764
0.9939534
0.9937881
0.9936995
0.9936659
0.9936571
0.9936344
0.9936173
0.9936051
0.9935915
0.9935798
0.9935715
0.9935682
0.9935737
0.9935867
0.9936107
0.9936247
0.9936271
0.9936129
0.9935941
0.9935844
0.9935622
0.9935657
0.9935934
0.9936385
0.9940131
0.9938531
0.9937488
0.9937369
0.9937226
0.9937085
0.9936904
0.9936694
0.9936438
0.9936208
0.9935983
0.9935752
0.993554
0.9935372
0.9935248
0.9935153
0.9935074
0.9934999
0.9934927
0.9934849
0.9934811
0.9934834
0.9934922
0.9935153
0.9940668
0.993942
0.9938416
0.9938195
0.9938231
0.9938274
0.9937912
0.993749
0.9937058
0.9936868
0.9936838
0.9936788
0.9936664
0.9936492
0.9936315
0.9936149
0.9935994
0.9935841
0.9935681
0.9935507
0.9935318
0.9935105
0.9934868
0.9934663
0.9941
0.9940171
0.9939371
0.9939056
0.9939074
0.9939244
0.9939161
0.9938323
0.9937298
0.9936805
0.9936935
0.9937295
0.9937591
0.9937707
0.9937667
0.9937526
0.9937327
0.9937108
0.9936893
0.9936672
0.9936376
0.9936087
0.9935711
0.9935292
0.9941042
0.994057
0.9940046
0.993975
0.9939696
0.9939659
0.9939328
0.9938482
0.9937371
0.9936472
0.9936226
0.9936682
0.9937459
0.9938139
0.9938529
0.993863
0.9938514
0.9938286
0.9938051
0.9937872
0.9937645
0.9937528
0.9937293
0.9936983
0.9940758
0.994053
0.994023
0.9940007
0.9939784
0.9939504
0.9938892
0.9937923
0.9936832
0.993594
0.9935548
0.9935803
0.9936607
0.9937649
0.9938576
0.9939167
0.9939357
0.9939225
0.9938943
0.9938656
0.9938585
0.9938579
0.9938652
0.9938619
0.9940198
0.994007
0.9939866
0.9939609
0.9939229
0.9938737
0.9937914
0.9936936
0.9936005
0.993534
0.9935102
0.9935362
0.9936085
0.9937128
0.9938258
0.9939219
0.9939794
0.9939918
0.993968
0.9939233
0.9939017
0.9939062
0.9939273
0.993944
0.9939614
0.9939319
0.9939069
0.9938724
0.993817
0.9937558
0.9936695
0.9935891
0.9935294
0.9935002
0.9935069
0.9935494
0.9936234
0.9937215
0.9938299
0.9939331
0.9940079
0.9940418
0.9940254
0.9939832
0.9939417
0.9939298
0.9939466
0.9939691
0.993857
0.9938172
0.9937671
0.9937049
0.9936335
0.9935761
0.9935349
0.9935165
0.9935267
0.9935628
0.9936218
0.9936996
0.9937932
0.9938896
0.9939841
0.994051
0.9940888
0.9940756
0.9940369
0.9939917
0.9939669
0.9939667
0.9938149
0.9937599
0.9937024
0.9936462
0.9936076
0.9935924
0.9935897
0.9935954
0.9936304
0.99368
0.9937455
0.9938214
0.9939095
0.9939876
0.9940684
0.9941093
0.9941304
0.9941245
0.9940898
0.9940485
0.9940232
0.9940095
0.9937762
0.9937339
0.9937038
0.9936896
0.9936944
0.9937141
0.9937566
0.9937971
0.9938391
0.9938997
0.9939655
0.9940464
0.994093
0.9941365
0.9941756
0.9941822
0.9941693
0.994141
0.9941114
0.9940891
0.9938547
0.9938402
0.993845
0.9938596
0.9938838
0.9939176
0.9939602
0.9940113
0.9940593
0.9941057
0.9941459
0.9941945
0.994219
0.9942314
0.9942316
0.9942218
0.9942034
0.9941809
0.9940346
0.9940234
0.9940362
0.9940551
0.9940821
0.9941136
0.9941485
0.9941867
0.9942213
0.9942499
0.9942723
0.9942894
0.9942944
0.994293
0.994298
0.9942806
0.9941988
0.9941854
0.994198
0.9942235
0.9942482
0.9942736
0.9942994
0.9943233
0.9943428
0.9943574
0.9943676
0.9943729
0.9943811
0.9943994
0.994354
0.9943518
0.9943622
0.994379
0.9943978
0.9944154
0.9944306
0.9944447
0.9944606
0.9944671
0.9930897
0.9930022
0.9929183
0.9928587
0.9928247
0.9928165
0.9928344
0.9928744
0.9934538
0.9932875
0.9931294
0.9930333
0.9929473
0.9928686
0.9928142
0.9927861
0.9927861
0.9928145
0.9928638
0.9929613
0.9930399
0.9930922
0.9935383
0.9934126
0.9932359
0.9930865
0.9929827
0.9928946
0.9928194
0.9927697
0.9927475
0.9927563
0.9927978
0.9928706
0.9929797
0.9930745
0.9931499
0.9932229
0.9938645
0.9936739
0.9935241
0.9933724
0.9932037
0.9930649
0.9929391
0.9928477
0.9927735
0.9927269
0.9927097
0.9927259
0.992779
0.9928711
0.9930002
0.9931106
0.9932198
0.9933277
0.9934538
0.9935158
0.9939717
0.993848
0.9936566
0.9935063
0.993359
0.993166
0.9930382
0.9929057
0.9928099
0.9927336
0.9926871
0.992672
0.9926922
0.9927513
0.9928528
0.9929901
0.9931301
0.9932698
0.993405
0.9935405
0.993656
0.9937475
0.9940942
0.9939707
0.9938267
0.9936457
0.9934998
0.9933444
0.9931605
0.993033
0.9929069
0.9928064
0.9927245
0.9926721
0.9926521
0.9926674
0.9927209
0.9928173
0.9929561
0.9931075
0.9932635
0.993423
0.9935608
0.9936701
0.9937493
0.9937697
0.9940909
0.9939585
0.9938139
0.9936499
0.9935011
0.993356
0.9931945
0.9930711
0.9929509
0.992847
0.9927585
0.9926954
0.9926644
0.9926679
0.9927029
0.9927764
0.9928986
0.9930461
0.9932087
0.9933674
0.9935143
0.9936347
0.9937062
0.9937521
0.994202
0.9940817
0.9939492
0.9938111
0.9936635
0.9935334
0.9934115
0.9932774
0.9931642
0.993053
0.992948
0.992854
0.9927782
0.9927268
0.9927066
0.992718
0.9927661
0.9928565
0.9929798
0.9931278
0.9932789
0.9934247
0.9935194
0.9936455
0.9937323
0.9937215
0.9943253
0.9941983
0.9940756
0.9939446
0.9938246
0.9937027
0.9935927
0.9934954
0.9933922
0.9932971
0.993201
0.9931031
0.9930064
0.9929224
0.9928559
0.992813
0.9927995
0.9928199
0.9928783
0.9929775
0.9930992
0.993231
0.9933641
0.9934979
0.9936121
0.9937042
0.9937118
0.9936518
0.9943153
0.9941881
0.9940678
0.9939476
0.993839
0.9937308
0.9936322
0.9935501
0.9934771
0.9934115
0.9933444
0.9932704
0.9931894
0.9931099
0.9930403
0.992988
0.9929604
0.9929625
0.9929996
0.9930781
0.9931891
0.9933013
0.9934158
0.9935373
0.9936524
0.9937162
0.9937261
0.993664
0.9943024
0.9941838
0.9940548
0.993944
0.9938136
0.9936929
0.9935964
0.99353
0.9934826
0.9934473
0.993414
0.9933745
0.9933256
0.9932706
0.9932194
0.9931799
0.9931594
0.993164
0.9931983
0.9932675
0.9933699
0.9934663
0.9935576
0.9936339
0.993709
0.9937447
0.9937342
0.9936802
0.9943716
0.9942889
0.9941849
0.9940556
0.9939088
0.9937481
0.9936279
0.9935557
0.9935152
0.9934876
0.9934697
0.9934539
0.9934338
0.9934084
0.9933797
0.9933594
0.9933463
0.9933483
0.9933698
0.9934123
0.993476
0.9935487
0.993606
0.9936418
0.9936727
0.9937079
0.9937359
0.9937083
0.9936482
0.9935838
0.9943458
0.9942816
0.9941909
0.9940747
0.9938831
0.9937047
0.9936131
0.9935748
0.993551
0.9935329
0.9935187
0.9935043
0.9934888
0.9934735
0.9934604
0.9934568
0.9934635
0.993486
0.9935083
0.9935228
0.9935221
0.9935167
0.9935165
0.9935133
0.993531
0.9935731
0.9936339
0.9936395
0.9936128
0.9935808
0.9943139
0.9942691
0.9941975
0.9941009
0.9939235
0.9937236
0.9936546
0.9936417
0.9936298
0.9936138
0.9935944
0.9935685
0.9935435
0.9935208
0.9934992
0.9934801
0.9934654
0.9934555
0.9934487
0.9934434
0.9934381
0.9934331
0.993429
0.9934249
0.9934335
0.9934577
0.9935045
0.9935289
0.9935335
0.9935357
0.9942746
0.9942471
0.994197
0.9941235
0.9939819
0.9938079
0.993726
0.9937297
0.993746
0.9937226
0.9936874
0.9936425
0.9936146
0.9936056
0.993601
0.9935927
0.9935805
0.9935668
0.993553
0.993539
0.9935241
0.9935085
0.9934926
0.9934762
0.9934601
0.9934474
0.9934449
0.993449
0.9934566
0.9934672
0.9942282
0.9942122
0.9941816
0.9941318
0.9940323
0.9939034
0.9938219
0.9938078
0.9938311
0.9938429
0.9937836
0.9936833
0.9936181
0.9936126
0.9936392
0.9936711
0.993692
0.9936983
0.993692
0.9936762
0.9936547
0.9936327
0.9936147
0.9935989
0.9935755
0.9935402
0.9934971
0.9934565
0.9934141
0.9933733
0.9941785
0.9941653
0.9941473
0.9941174
0.9940553
0.9939719
0.9939079
0.9938816
0.9938791
0.9938669
0.9938036
0.9936998
0.9936002
0.9935522
0.9935727
0.9936379
0.9937105
0.993765
0.9937925
0.993793
0.9937736
0.9937471
0.9937299
0.9937289
0.9937294
0.9937156
0.9936811
0.9936412
0.9935965
0.9935577
0.9941331
0.9941122
0.9940962
0.9940774
0.9940411
0.9939919
0.9939468
0.9939159
0.993891
0.9938447
0.9937592
0.9936503
0.993549
0.9934885
0.9934895
0.9935502
0.9936471
0.9937478
0.9938257
0.9938655
0.9938654
0.9938378
0.9938107
0.9938119
0.9938366
0.9938633
0.9938697
0.9938643
0.9938406
0.993786
0.9941
0.9940607
0.9940369
0.9940175
0.993991
0.9939584
0.9939226
0.9938851
0.9938389
0.9937641
0.9936653
0.9935632
0.993481
0.9934381
0.9934454
0.9935029
0.9935994
0.9937144
0.9938224
0.9938987
0.9939284
0.9939128
0.9938784
0.9938652
0.993888
0.9939328
0.9939677
0.9939966
0.9940034
0.9939504
0.9940275
0.9939845
0.9939508
0.9939181
0.9938841
0.9938442
0.9937943
0.9937279
0.9936402
0.9935528
0.9934799
0.9934359
0.9934285
0.9934599
0.9935273
0.9936231
0.9937344
0.9938444
0.9939313
0.9939777
0.9939762
0.9939463
0.9939245
0.993936
0.9939763
0.994012
0.9940556
0.9940781
0.9940284
0.9939616
0.9939073
0.9938619
0.9938106
0.9937553
0.9936907
0.9936137
0.9935436
0.9934911
0.9934629
0.9934625
0.9934903
0.9935451
0.993623
0.9937177
0.9938187
0.9939154
0.9939902
0.9940325
0.9940358
0.994015
0.9939979
0.994007
0.9940311
0.9940747
0.9940983
0.994116
0.9940606
0.9939866
0.9939106
0.9938428
0.9937817
0.9937142
0.9936476
0.9935938
0.9935589
0.9935451
0.9935523
0.9935819
0.9936306
0.9936951
0.9937734
0.9938599
0.9939435
0.9940184
0.9940709
0.9940982
0.9941011
0.9940911
0.9940877
0.9941044
0.9941186
0.994153
0.9941699
0.9941658
0.9940239
0.9939593
0.9939002
0.9938329
0.9937733
0.9937281
0.9937014
0.9936933
0.9937024
0.9937275
0.9937669
0.9938178
0.9938794
0.9939472
0.9940168
0.9940777
0.9941269
0.9941595
0.9941737
0.994179
0.9941842
0.9941981
0.9942142
0.9942567
0.9942619
0.9942508
0.9940522
0.9939929
0.993953
0.9939256
0.9938919
0.9938795
0.9938821
0.9938976
0.9939252
0.9939626
0.9940084
0.99406
0.9941124
0.9941608
0.9942014
0.9942306
0.9942484
0.9942585
0.9942776
0.9943024
0.994319
0.9943741
0.9943892
0.9943815
0.9942145
0.9941632
0.9941231
0.9940964
0.9940857
0.9940691
0.9940719
0.9940843
0.9941078
0.9941401
0.9941779
0.9942172
0.9942544
0.994286
0.9943105
0.9943279
0.9943432
0.9943618
0.9944058
0.9944343
0.9944881
0.9945185
0.994542
0.9945176
0.9942859
0.9942528
0.9942344
0.9942243
0.9942296
0.9942372
0.994245
0.9942666
0.9942941
0.9943235
0.9943515
0.9943763
0.9943967
0.9944142
0.9944314
0.9944564
0.994492
0.9945472
0.9946096
0.9946279
0.9946696
0.9946596
0.994387
0.9943584
0.9943454
0.9943547
0.9943703
0.9943858
0.9944066
0.9944292
0.9944514
0.9944715
0.9944895
0.9945066
0.9945271
0.9945533
0.9945766
0.9946487
0.9947111
0.9947376
0.9947522
0.9947722
0.9944806
0.9944826
0.9944893
0.9944975
0.9945204
0.9945419
0.9945615
0.9945793
0.9945968
0.9946176
0.9946468
0.9946831
0.9947116
0.9947623
0.9948435
0.994837
0.9946053
0.994598
0.9945995
0.9946336
0.9946554
0.9946733
0.9946907
0.9947104
0.9947363
0.9947714
0.9948077
0.9948259
0.994867
0.9949236
0.9947594
0.9947718
0.9947869
0.9948033
0.9948234
0.9948495
0.9948791
0.994902
0.9932208
0.9931365
0.9930609
0.9930081
0.9929771
0.992969
0.9936612
0.993511
0.9933614
0.99321
0.9931287
0.9930385
0.992969
0.9929227
0.9928968
0.9928845
0.9929077
0.9929526
0.9930018
0.9930375
0.9938937
0.9937197
0.9935855
0.9934259
0.9932956
0.9931228
0.9930269
0.9929381
0.9928759
0.9928389
0.9928259
0.9928369
0.9928828
0.9929402
0.9930013
0.9930531
0.9931103
0.9931383
0.9939639
0.9938445
0.9936851
0.9935095
0.9933328
0.9931767
0.993029
0.9929063
0.9928212
0.9927693
0.9927457
0.9927503
0.992785
0.9928538
0.9929314
0.9930096
0.9930821
0.9931474
0.9931969
0.9932405
0.994072
0.9939442
0.9938076
0.9936206
0.9934394
0.9932376
0.9930658
0.9929131
0.9927938
0.9927162
0.9926757
0.9926667
0.9926896
0.9927448
0.9928292
0.9929253
0.993024
0.9931214
0.9932055
0.9932815
0.9933557
0.9934108
0.9941838
0.9940702
0.9939116
0.9937411
0.9935689
0.9933672
0.9931552
0.9929716
0.9928133
0.9926967
0.9926258
0.9925957
0.9926008
0.9926415
0.9927168
0.9928208
0.9929383
0.9930587
0.9931772
0.993294
0.9933981
0.9935081
0.9936317
0.9937069
0.9942964
0.9941741
0.9940382
0.9938747
0.9936987
0.9935192
0.9933102
0.9930929
0.9929054
0.9927435
0.9926268
0.992558
0.9925334
0.9925478
0.9926015
0.9926929
0.9928156
0.9929556
0.9931007
0.993245
0.9933871
0.9935252
0.9936581
0.9937498
0.9937994
0.9937627
0.9944248
0.9942844
0.9941563
0.9940051
0.9938409
0.9936646
0.993481
0.9932725
0.9930611
0.9928792
0.9927194
0.9925997
0.9925246
0.9924952
0.9925083
0.992564
0.9926586
0.9927897
0.9929455
0.9931109
0.9932753
0.9934315
0.993573
0.9936864
0.9937454
0.9937424
0.9936981
0.9936424
0.9945117
0.9944014
0.9942718
0.9941399
0.9939802
0.9938147
0.993639
0.993458
0.9932624
0.9930688
0.9929014
0.99275
0.9926282
0.9925432
0.9924976
0.9924899
0.9925262
0.9926096
0.9927359
0.9928929
0.9930655
0.9932405
0.9934027
0.9935399
0.9936411
0.993691
0.9937038
0.9936511
0.9936017
0.9935703
0.9944927
0.9943883
0.9942617
0.9941101
0.9939587
0.9937952
0.9936251
0.9934596
0.9932893
0.9931229
0.9929752
0.992836
0.992713
0.9926144
0.9925489
0.9925199
0.9925311
0.9925855
0.9926837
0.9928169
0.992977
0.9931483
0.9933106
0.9934517
0.9935565
0.9936527
0.9936896
0.9936307
0.9935657
0.9935344
0.9945439
0.9944668
0.9943749
0.9942351
0.9940917
0.9939423
0.993785
0.993631
0.9934929
0.9933594
0.9932299
0.9931096
0.9929904
0.9928754
0.9927717
0.9926897
0.9926364
0.9926173
0.9926365
0.9926965
0.9927923
0.9929201
0.9930666
0.9932157
0.9933575
0.9934931
0.9936142
0.993675
0.9936155
0.9935445
0.9935072
0.9934691
0.9945177
0.994451
0.9943593
0.9942191
0.9940781
0.9939304
0.9937852
0.9936528
0.9935375
0.9934354
0.9933438
0.9932593
0.993172
0.9930786
0.9929836
0.992897
0.9928296
0.9927893
0.9927818
0.9928099
0.9928727
0.9929693
0.9930918
0.9932229
0.993356
0.9934892
0.9936058
0.9936638
0.9936225
0.9935305
0.9934901
0.993442
0.9944809
0.9944268
0.9943415
0.9942076
0.9940679
0.9939184
0.9937739
0.9936432
0.9935333
0.9934491
0.9933866
0.9933364
0.9932867
0.9932285
0.9931621
0.9930941
0.9930369
0.9929994
0.9929881
0.9930068
0.993056
0.9931352
0.9932393
0.9933525
0.99346
0.9935512
0.9936277
0.9936636
0.9936281
0.9935454
0.993492
0.9934545
0.9944415
0.994396
0.9943152
0.9941979
0.9940629
0.9939008
0.9937321
0.9935907
0.9934923
0.9934328
0.9933965
0.9933715
0.9933477
0.9933173
0.9932784
0.9932361
0.993208
0.9931936
0.9931999
0.9932301
0.9932827
0.9933561
0.993433
0.9934959
0.993546
0.9935926
0.9936346
0.9936487
0.9936088
0.9935465
0.993505
0.9934856
0.9944327
0.9943894
0.9943572
0.9942909
0.9941917
0.9940665
0.9938947
0.9936892
0.9935583
0.993493
0.9934608
0.9934407
0.9934243
0.993409
0.9933901
0.9933685
0.9933473
0.9933368
0.9933406
0.9933638
0.9933948
0.9934181
0.9934242
0.9934264
0.9934331
0.9934446
0.9934763
0.9935273
0.9935705
0.99356
0.9935244
0.9935034
0.9934837
0.9934806
0.9943952
0.9943519
0.9943179
0.9942644
0.994185
0.994077
0.9939182
0.9937021
0.993579
0.9935492
0.9935382
0.993525
0.9935065
0.9934834
0.9934576
0.9934345
0.9934139
0.9933967
0.9933842
0.9933765
0.9933719
0.9933678
0.993363
0.9933581
0.993355
0.9933544
0.9933676
0.9933999
0.9934437
0.9934623
0.9934625
0.9934743
0.9934648
0.9934495
0.9943594
0.9943109
0.994275
0.9942313
0.9941717
0.9940868
0.993955
0.9937673
0.9936434
0.9936273
0.9936492
0.9936387
0.9936107
0.9935674
0.9935331
0.9935182
0.9935126
0.9935075
0.9934998
0.99349
0.9934785
0.9934647
0.9934486
0.993432
0.9934168
0.9934025
0.9933876
0.9933741
0.9933673
0.9933685
0.9933744
0.9933926
0.9933949
0.9933184
0.9943317
0.9942722
0.9942299
0.99419
0.9941461
0.994085
0.9939884
0.9938447
0.9937321
0.9937029
0.9937273
0.9937507
0.9937165
0.9936203
0.9935436
0.9935219
0.9935379
0.9935693
0.9935972
0.9936127
0.9936138
0.9936014
0.9935791
0.9935553
0.9935391
0.9935301
0.9935173
0.9934927
0.9934592
0.9934234
0.9933885
0.9933572
0.9933444
0.9933655
0.9943167
0.9942425
0.9941881
0.9941435
0.9941064
0.9940641
0.9940003
0.9939047
0.9938167
0.993776
0.9937762
0.9937777
0.9937345
0.99364
0.9935346
0.9934681
0.9934665
0.9935183
0.9935916
0.9936578
0.9937005
0.9937129
0.9936974
0.9936691
0.9936524
0.9936602
0.9936797
0.9936903
0.9936829
0.9936616
0.9936327
0.9935978
0.9935872
0.993581
0.9943043
0.994225
0.9941557
0.9940991
0.9940575
0.9940226
0.9939811
0.993923
0.993864
0.9938225
0.9937973
0.9937662
0.9936952
0.9935908
0.9934819
0.9934043
0.9933844
0.9934274
0.9935166
0.9936224
0.9937153
0.993773
0.9937855
0.9937618
0.9937352
0.9937419
0.9937836
0.9938351
0.9938736
0.9938925
0.9938972
0.993868
0.9938495
0.9937657
0.9942187
0.9941348
0.9940688
0.9940118
0.9939693
0.9939331
0.9938931
0.9938507
0.9938107
0.9937673
0.9937018
0.9936064
0.9934998
0.9934055
0.9933464
0.9933376
0.9933826
0.993473
0.9935899
0.9937079
0.9937996
0.993844
0.9938384
0.9938108
0.9938059
0.9938441
0.9939104
0.9939756
0.9940216
0.9940537
0.9940447
0.9940441
0.9942456
0.9941584
0.9940657
0.9939871
0.9939245
0.9938748
0.9938305
0.9937856
0.9937358
0.9936737
0.9935863
0.9934914
0.9934077
0.9933506
0.9933308
0.9933529
0.9934153
0.9935103
0.9936252
0.9937422
0.9938392
0.9938964
0.9939062
0.9938889
0.993884
0.9939168
0.9939805
0.99405
0.9941018
0.9941303
0.994152
0.9941426
0.9942917
0.9941917
0.9940902
0.9939948
0.9939106
0.9938382
0.9937735
0.9937107
0.9936428
0.9935638
0.9934869
0.9934265
0.9933882
0.9933784
0.9934001
0.993452
0.9935299
0.9936265
0.9937315
0.9938324
0.9939138
0.993963
0.9939775
0.9939746
0.9939834
0.9940212
0.9940813
0.9941465
0.9941893
0.9942023
0.9942192
0.9942093
0.9943524
0.9942519
0.9941437
0.9940489
0.993948
0.9938548
0.9937695
0.9936889
0.9936138
0.9935529
0.9935115
0.993492
0.9934948
0.993519
0.9935634
0.9936271
0.9937056
0.9937924
0.9938784
0.9939551
0.9940128
0.9940471
0.9940636
0.9940785
0.9941082
0.9941572
0.9942161
0.9942712
0.9942994
0.9942967
0.9942975
0.9942674
0.9943042
0.9942306
0.9941234
0.994033
0.9939354
0.9938466
0.9937759
0.9937241
0.9936895
0.9936731
0.9936749
0.993694
0.9937284
0.9937757
0.9938345
0.993901
0.9939692
0.9940317
0.9940836
0.9941217
0.9941471
0.9941732
0.9942104
0.9942599
0.9943157
0.9943712
0.9944109
0.994412
0.9944205
0.9943882
0.9944036
0.9943193
0.994249
0.9941429
0.9940595
0.9939952
0.9939439
0.9939059
0.9938832
0.9938764
0.9938847
0.9939066
0.9939401
0.9939827
0.9940315
0.9940826
0.9941313
0.9941738
0.9942082
0.9942378
0.9942664
0.994312
0.99437
0.9944275
0.9944808
0.994525
0.9945338
0.9945477
0.9945268
0.9944859
0.9943957
0.9943342
0.9942759
0.994209
0.9941535
0.9941121
0.9940833
0.9940676
0.9940657
0.9940762
0.9940978
0.9941285
0.9941651
0.994204
0.9942418
0.9942759
0.9943061
0.9943342
0.9943685
0.9944093
0.9944753
0.9945389
0.9945899
0.99463
0.9946611
0.9946564
0.9946539
0.9946238
0.99443
0.9943842
0.9943447
0.9943001
0.9942672
0.9942442
0.9942335
0.9942349
0.9942464
0.9942673
0.9942948
0.9943255
0.9943562
0.9943848
0.9944112
0.9944386
0.9944707
0.9945163
0.9945651
0.9946378
0.9946906
0.9947226
0.9947478
0.9947567
0.9947613
0.9947363
0.9944819
0.9944436
0.9944234
0.9944073
0.9943903
0.9943838
0.9943878
0.9944008
0.9944202
0.9944448
0.9944709
0.9944961
0.9945203
0.9945456
0.9945767
0.9946145
0.9946645
0.9947082
0.9947742
0.9948052
0.9948196
0.9948213
0.9948325
0.9948193
0.994548
0.9945291
0.994527
0.9945229
0.9945237
0.9945294
0.9945438
0.9945614
0.9945849
0.9946085
0.9946309
0.9946539
0.9946807
0.9947142
0.9947497
0.9947917
0.9948174
0.994874
0.9948732
0.994883
0.9948676
0.9948703
0.9946373
0.9946322
0.994637
0.9946489
0.994661
0.9946792
0.9946964
0.9947213
0.9947426
0.9947618
0.9947825
0.9948075
0.9948343
0.9948576
0.994886
0.9948967
0.9949332
0.9949193
0.9949105
0.9948946
0.9947425
0.9947358
0.9947652
0.9947772
0.9948065
0.9948196
0.994854
0.9948702
0.994883
0.9948981
0.9949158
0.9949277
0.9949261
0.9949482
0.9949449
0.9949713
0.994943
0.9949271
0.9948913
0.9948887
0.9949152
0.9949346
0.9949665
0.9949732
0.9949766
0.9949832
0.9949902
0.9949853
0.9949648
0.9949837
0.9949803
0.995013
0.9950607
0.9950551
0.9950472
0.9950447
0.9950437
0.9950411
0.9936708
0.9935357
0.9934057
0.9933059
0.9932191
0.993156
0.9931109
0.9930815
0.993072
0.993083
0.9939862
0.9938498
0.9936837
0.9935743
0.993439
0.9932803
0.993179
0.9930976
0.993041
0.9930047
0.9929879
0.9929892
0.9929988
0.993033
0.9930686
0.9931019
0.994029
0.9939457
0.9937469
0.99358
0.9934383
0.9932772
0.9931402
0.993008
0.9929312
0.9928867
0.9928701
0.9928835
0.9929106
0.9929474
0.9929969
0.993046
0.9930901
0.9931354
0.9942724
0.994133
0.9939792
0.993832
0.99365
0.9934492
0.993272
0.9930893
0.9929428
0.9928241
0.9927592
0.9927305
0.9927329
0.9927635
0.9928128
0.9928756
0.9929473
0.9930211
0.9930809
0.9931365
0.9932
0.9932388
0.9943266
0.9942438
0.9940678
0.9939137
0.9937379
0.9935342
0.9933119
0.9931045
0.9929083
0.9927597
0.9926579
0.9926096
0.9925984
0.992619
0.992666
0.9927318
0.9928098
0.9928938
0.99298
0.9930664
0.9931561
0.9932296
0.9932968
0.9933613
0.9944116
0.9943058
0.9941778
0.9940099
0.9938419
0.9936506
0.9934275
0.9931843
0.9929532
0.9927488
0.9926065
0.992523
0.9924926
0.9925003
0.9925403
0.9926049
0.9926856
0.9927753
0.9928694
0.9929682
0.9930746
0.993189
0.9933056
0.9933937
0.9934854
0.9935712
0.994504
0.9943904
0.9942615
0.994119
0.9939455
0.9937741
0.9935745
0.9933363
0.9930779
0.9928287
0.9926193
0.9924853
0.9924179
0.9924049
0.9924327
0.9924949
0.9925821
0.9926841
0.9927928
0.9929049
0.993023
0.9931513
0.9932901
0.9934358
0.9935759
0.9936616
0.9937127
0.9937463
0.9945867
0.9944793
0.9943608
0.994206
0.9940552
0.9938879
0.9937162
0.9935123
0.9932667
0.9930015
0.9927407
0.992527
0.9923977
0.9923403
0.99234
0.9923852
0.9924694
0.9925823
0.9927126
0.9928515
0.9929955
0.9931465
0.9933055
0.993466
0.9936141
0.9937261
0.9937763
0.9937805
0.9937779
0.9937588
0.9945653
0.9944588
0.994312
0.9941536
0.9940039
0.9938432
0.9936712
0.9934636
0.9932154
0.992954
0.992702
0.9924869
0.9923521
0.9922921
0.9922916
0.9923394
0.9924345
0.9925663
0.99272
0.9928857
0.9930577
0.9932326
0.9934036
0.9935547
0.9936627
0.9937078
0.993714
0.9937046
0.9936899
0.9937031
0.9946089
0.9945259
0.9944153
0.9942649
0.9941128
0.9939672
0.9938106
0.9936363
0.9934274
0.9931858
0.9929405
0.9927089
0.9925032
0.9923577
0.9922769
0.9922571
0.9922964
0.9923898
0.9925246
0.9926855
0.9928628
0.9930478
0.9932307
0.9933968
0.9935271
0.9936041
0.9936403
0.9936337
0.9935976
0.9935918
0.993607
0.9936322
0.9946322
0.9945774
0.9945007
0.9943727
0.9942272
0.9940825
0.9939418
0.9937859
0.993609
0.9934064
0.9931869
0.9929715
0.9927707
0.9925858
0.9924386
0.9923397
0.9922935
0.9923015
0.9923642
0.9924751
0.9926205
0.9927874
0.9929669
0.9931474
0.9933117
0.993445
0.9935391
0.9936035
0.9935872
0.9935161
0.993485
0.9935023
0.9935622
0.9935748
0.994607
0.9945527
0.9944656
0.9943363
0.9941988
0.9940627
0.9939243
0.9937656
0.9935938
0.9934152
0.9932366
0.9930678
0.9929102
0.9927578
0.9926202
0.9925089
0.9924342
0.9924039
0.9924223
0.9924873
0.9925908
0.9927224
0.9928746
0.9930363
0.9931933
0.9933365
0.9934775
0.9935781
0.9935629
0.9934636
0.993414
0.9934195
0.9934338
0.9934628
0.9945717
0.9945176
0.9944248
0.9943056
0.9941793
0.9940505
0.9939095
0.9937524
0.9935953
0.9934478
0.9933145
0.9931972
0.9930887
0.9929779
0.9928645
0.9927563
0.9926662
0.9926071
0.9925875
0.9926096
0.9926698
0.9927613
0.9928786
0.9930142
0.9931561
0.9933011
0.9934404
0.9935484
0.9935555
0.993441
0.9933689
0.9933484
0.9933412
0.9933422
0.9946
0.9945291
0.9944756
0.9943846
0.9942777
0.9941648
0.9940403
0.9938973
0.9937401
0.9935884
0.9934577
0.993354
0.9932753
0.9932104
0.993144
0.993068
0.9929856
0.9929071
0.9928475
0.9928171
0.9928208
0.9928586
0.9929263
0.9930192
0.9931331
0.993256
0.9933702
0.9934698
0.9935448
0.9935532
0.9934516
0.9933634
0.9933311
0.9933001
0.9932762
0.9932807
0.9945679
0.9945001
0.9944351
0.9943444
0.9942497
0.9941516
0.9940324
0.9938874
0.9937105
0.9935454
0.9934253
0.993348
0.993301
0.9932681
0.9932355
0.9931945
0.9931422
0.9930886
0.9930545
0.9930417
0.9930556
0.9930972
0.9931639
0.9932466
0.9933248
0.9933905
0.9934495
0.9935062
0.9935483
0.9935401
0.9934642
0.9933815
0.9933416
0.9933022
0.9932432
0.9932324
0.9945375
0.9944641
0.99439
0.994303
0.9942207
0.9941376
0.994028
0.9938847
0.9936784
0.9935059
0.9934137
0.9933688
0.9933441
0.9933254
0.9933069
0.9932853
0.9932584
0.9932311
0.9932164
0.9932203
0.9932466
0.993286
0.9933127
0.9933229
0.9933304
0.9933437
0.9933674
0.9934116
0.9934646
0.993482
0.9934447
0.993391
0.993356
0.9933263
0.9932639
0.9932109
0.9945143
0.9944301
0.9943455
0.994262
0.9941892
0.99412
0.9940251
0.9938943
0.9936926
0.9935109
0.9934558
0.9934401
0.9934281
0.9934112
0.993391
0.9933656
0.9933425
0.993323
0.9933078
0.9932976
0.9932922
0.9932893
0.9932858
0.9932807
0.993276
0.9932746
0.9932786
0.9932968
0.9933334
0.9933668
0.9933649
0.9933473
0.9933285
0.9932898
0.9932378
0.9932373
0.9944976
0.9944037
0.9943094
0.9942234
0.9941542
0.9940963
0.9940195
0.9939101
0.9937372
0.9935729
0.9935243
0.9935438
0.9935432
0.993521
0.9934833
0.9934447
0.9934245
0.9934171
0.9934145
0.9934113
0.9934057
0.9933965
0.9933828
0.9933653
0.9933481
0.9933352
0.9933241
0.9933104
0.9932951
0.9932825
0.9932718
0.993257
0.9932363
0.9932224
0.9932505
0.9933529
0.9944909
0.9943882
0.9942842
0.9941908
0.9941177
0.9940641
0.9940057
0.9939217
0.9937893
0.9936545
0.9935994
0.9936175
0.9936475
0.9936365
0.993547
0.9934613
0.993425
0.9934295
0.9934582
0.9934915
0.9935158
0.9935248
0.9935159
0.993493
0.993468
0.9934552
0.9934545
0.9934508
0.9934336
0.9934067
0.9933813
0.9933665
0.9933701
0.9933978
0.9934541
0.9935409
0.994495
0.9943853
0.9942732
0.9941695
0.9940856
0.9940266
0.993979
0.993919
0.9938267
0.9937269
0.9936715
0.9936676
0.9936772
0.9936523
0.9935683
0.9934594
0.9933771
0.9933552
0.9933926
0.9934639
0.9935393
0.993596
0.9936201
0.993609
0.9935794
0.9935643
0.9935822
0.9936184
0.993648
0.9936612
0.9936648
0.9936689
0.9936792
0.9936942
0.9937044
0.9937348
0.9944989
0.9943864
0.9942818
0.9941658
0.9940665
0.9939925
0.9939411
0.993895
0.9938343
0.9937653
0.9937157
0.9936918
0.9936705
0.993615
0.9935183
0.9934053
0.9933138
0.9932753
0.9933019
0.9933828
0.9934917
0.9935969
0.99367
0.9936934
0.9936731
0.9936475
0.9936616
0.9937201
0.9937911
0.9938477
0.9938855
0.9939124
0.993931
0.9939419
0.9939182
0.993906
0.9945167
0.994421