/*--------------------------------*- C++ -*----------------------------------*\
  =========                 |
  \\      /  F ield         | OpenFOAM: The Open Source CFD Toolbox
   \\    /   O peration     | Website:  https://openfoam.org
    \\  /    A nd           | Version:  6
     \\/     M anipulation  |
\*---------------------------------------------------------------------------*/
FoamFile
{
    version     2.0;
    format      ascii;
    class       volScalarField;
    location    "49.8";
    object      rhok;
}
// * * * * * * * * * * * * * * * * * * * * * * * * * * * * * * * * * * * * * //

dimensions      [0 0 0 0 0 0 0];

internalField   nonuniform List<scalar> 
203709
(
0.9928233
0.9927655
0.9926956
0.9926769
0.9930235
0.9930036
0.9929371
0.9928978
0.9928481
0.9928131
0.9927737
0.9928358
0.9930623
0.993053
0.9930527
0.9930475
0.9930214
0.9930006
0.9929749
0.9929569
0.9929378
0.9929599
0.9929536
0.9929902
0.9930854
0.9930797
0.9930804
0.9930805
0.9930794
0.9930742
0.9930668
0.9930575
0.9930598
0.9930577
0.9930743
0.9930839
0.9930973
0.9931249
0.993101
0.9930978
0.9930956
0.9930936
0.9930926
0.9930932
0.9930982
0.9931042
0.9931065
0.9931095
0.9931234
0.9931297
0.9931272
0.9931348
0.9931324
0.9931307
0.9931258
0.993119
0.9931105
0.993098
0.9930832
0.9930874
0.9931074
0.9931233
0.9931235
0.9931113
0.9930945
0.9930775
0.9930614
0.9930691
0.9931641
0.9931848
0.9932149
0.9932324
0.993215
0.9931571
0.9930857
0.9930514
0.9930763
0.9931336
0.9931817
0.993201
0.9931958
0.9931782
0.9931586
0.9931408
0.9932511
0.9931997
0.9932289
0.9932783
0.9933314
0.993347
0.9932784
0.9931575
0.9930502
0.9930183
0.993069
0.9931583
0.9932372
0.9932812
0.9932913
0.9932799
0.9932552
0.9932569
0.9933005
0.9932645
0.9932787
0.9933191
0.993359
0.9933623
0.9933064
0.9932001
0.9930858
0.9930164
0.9930228
0.993096
0.9931992
0.9932923
0.993351
0.9933715
0.9933629
0.9933301
0.9933614
0.9933302
0.9933331
0.9933565
0.9933736
0.9933528
0.9932837
0.9931816
0.9930826
0.9930238
0.9930252
0.993083
0.9931772
0.9932804
0.9933671
0.9934207
0.9934373
0.9934166
0.993397
0.9933807
0.9933763
0.9933813
0.9933676
0.9933139
0.9932267
0.9931312
0.9930588
0.9930318
0.9930553
0.9931198
0.9932087
0.9933043
0.9933903
0.9934535
0.9934862
0.9934719
0.9933937
0.993381
0.9933623
0.9933102
0.9932298
0.993143
0.9930758
0.9930478
0.9930648
0.9931201
0.9931996
0.993288
0.9933739
0.9934472
0.9935013
0.9935273
0.9933621
0.9933252
0.9932701
0.9931958
0.9931235
0.9930735
0.9930607
0.9930886
0.9931501
0.9932322
0.993321
0.9934051
0.9934783
0.9935343
0.9935726
0.993568
0.9932208
0.9931526
0.9931009
0.9930777
0.9930898
0.9931371
0.9932112
0.9933007
0.9933923
0.9934767
0.9935467
0.993603
0.993639
0.993653
0.9931648
0.9931216
0.9931344
0.9931727
0.9932354
0.993318
0.9934097
0.9935006
0.9935808
0.9936475
0.9936958
0.9937348
0.9937487
0.9937232
0.9933479
0.9933487
0.9933993
0.9934743
0.993559
0.9936405
0.9937134
0.9937696
0.9938136
0.9938417
0.9938734
0.993855
0.9937078
0.9937181
0.9937947
0.993858
0.9939083
0.993941
0.9939667
0.9939617
0.9940283
0.9940437
0.9940717
0.9940715
0.9927927
0.9926598
0.9925626
0.9924753
0.9923989
0.9923259
0.9922468
0.9921625
0.9920802
0.99204
0.9931523
0.9929492
0.9928123
0.9927129
0.9926218
0.9925324
0.9924492
0.9923726
0.9922977
0.992224
0.9921544
0.9921055
0.9921007
0.9921387
0.9932808
0.9931456
0.9930066
0.9928924
0.992806
0.9927235
0.9926304
0.9925341
0.9924518
0.9923819
0.9923187
0.9922561
0.9922137
0.9922012
0.9922193
0.9922817
0.9934013
0.9932745
0.9931678
0.9930732
0.9929887
0.9929193
0.9928351
0.9927567
0.9926553
0.9925685
0.9925027
0.9924192
0.9923812
0.9923539
0.9923373
0.9923488
0.9923931
0.9924583
0.9934934
0.9933506
0.9932327
0.9931466
0.9930799
0.993027
0.9929879
0.992935
0.9928707
0.9927934
0.9927157
0.9926351
0.9925846
0.9925485
0.9925
0.9924988
0.9925145
0.9925478
0.9925931
0.9926524
0.9935864
0.9934122
0.9932501
0.99315
0.9930877
0.9930361
0.9930117
0.9929986
0.9929732
0.9929431
0.9928962
0.9928456
0.9927849
0.9927388
0.9926978
0.9926855
0.9927212
0.9927112
0.9927398
0.9927792
0.9928171
0.9928596
0.9934888
0.9932993
0.9931682
0.9930928
0.9930461
0.993023
0.9930054
0.9929989
0.9929908
0.9929816
0.9929646
0.992941
0.9929091
0.9928885
0.9928715
0.9928709
0.9929044
0.9929702
0.9929774
0.9930038
0.9930297
0.9930471
0.9937161
0.9934653
0.9932357
0.9931273
0.9930758
0.9930512
0.993026
0.9930142
0.9930096
0.9930076
0.9930069
0.9930078
0.9930074
0.9930012
0.9929963
0.9929993
0.9930108
0.9930349
0.9930743
0.9930607
0.993057
0.993054
0.9930523
0.9930404
0.9937103
0.9934683
0.9932385
0.9931299
0.9930867
0.9930658
0.9930489
0.9930394
0.9930314
0.9930219
0.9930076
0.993007
0.9930208
0.9930354
0.9930403
0.9930361
0.9930287
0.9930221
0.9930199
0.993015
0.9930091
0.9929998
0.9929861
0.9929714
0.9937055
0.9935013
0.9932915
0.9931626
0.9931174
0.9931072
0.9931225
0.9931349
0.9931277
0.9930842
0.9930211
0.992985
0.9929971
0.9930417
0.9930875
0.9931146
0.9931215
0.9931163
0.9931066
0.9930962
0.9930928
0.9930724
0.9930452
0.9930103
0.9936987
0.9935432
0.9933628
0.9932393
0.9931625
0.9931574
0.9931943
0.9932511
0.9932758
0.9932106
0.9930981
0.9929964
0.992956
0.9929875
0.9930619
0.9931401
0.9931968
0.9932267
0.9932349
0.9932168
0.9932184
0.9931974
0.9931679
0.9931237
0.9936822
0.993576
0.9934373
0.9933205
0.9932371
0.9932195
0.993249
0.993293
0.9933059
0.993259
0.9931604
0.9930472
0.9929685
0.9929568
0.993011
0.9931044
0.9932019
0.9932786
0.9933254
0.9933448
0.9933351
0.9933234
0.9932966
0.9932568
0.9936501
0.993586
0.9934898
0.9933952
0.9933201
0.9932916
0.9933022
0.9933205
0.9933102
0.993253
0.9931584
0.9930571
0.9929862
0.9929701
0.9930121
0.9930977
0.9932025
0.9933022
0.9933797
0.9934272
0.9934305
0.993426
0.9934054
0.9933756
0.9936024
0.993567
0.9935077
0.9934419
0.9933936
0.9933574
0.9933475
0.9933365
0.9932924
0.9932137
0.9931195
0.9930394
0.9929987
0.9930083
0.9930641
0.9931521
0.9932545
0.9933547
0.9934398
0.9935016
0.9935091
0.993512
0.993494
0.9934692
0.9935475
0.9935228
0.9934883
0.9934492
0.9934066
0.9933728
0.9933454
0.9933003
0.9932268
0.9931407
0.9930673
0.9930286
0.993035
0.9930845
0.9931655
0.9932634
0.9933639
0.9934557
0.9935315
0.993573
0.9935992
0.9935931
0.9935726
0.9935455
0.9935016
0.9934676
0.993437
0.993404
0.9933678
0.9933292
0.9932782
0.9932051
0.9931294
0.9930727
0.9930517
0.993073
0.9931321
0.993219
0.9933198
0.9934229
0.9935163
0.9935934
0.9936525
0.9936645
0.9936865
0.9936772
0.9936505
0.9936151
0.9934804
0.9934238
0.9933779
0.9933357
0.9932823
0.9932365
0.9931668
0.9931101
0.993083
0.9930925
0.9931383
0.9932137
0.9933088
0.993414
0.9935175
0.9936137
0.9936904
0.9937466
0.9937631
0.9937925
0.9937887
0.9937683
0.993733
0.9936806
0.9934279
0.9933576
0.9932939
0.993231
0.9931976
0.9931596
0.9931673
0.9932029
0.9932662
0.993349
0.9934437
0.9935431
0.9936433
0.9937314
0.9938103
0.9938624
0.9938998
0.9938959
0.9939114
0.9939003
0.9938706
0.9938252
0.993545
0.9934675
0.9934008
0.9933641
0.9933597
0.9933972
0.9934343
0.9934735
0.9935426
0.9936199
0.9937027
0.9937855
0.9938687
0.9939297
0.9939875
0.9940106
0.9940197
0.9940431
0.9940371
0.9940233
0.9939906
0.9939102
0.9936374
0.9936138
0.9936084
0.993616
0.9936416
0.9936876
0.9937493
0.99381
0.9938705
0.993937
0.9939991
0.9940636
0.9940934
0.9941136
0.9941478
0.9941485
0.994166
0.9941739
0.9941646
0.9941245
0.9938246
0.9938166
0.9938361
0.9938622
0.9939034
0.9939566
0.9940229
0.9940791
0.9941334
0.9941749
0.9941982
0.9942329
0.9942392
0.994252
0.9942639
0.9942999
0.9943042
0.9942816
0.9939828
0.9940165
0.9940426
0.9940974
0.9941498
0.9941984
0.9942441
0.9942835
0.9943076
0.994318
0.994324
0.9943346
0.9943513
0.9943599
0.9943957
0.9943807
0.9941886
0.9941992
0.9942788
0.9943223
0.9943607
0.9943874
0.9944009
0.9944052
0.994403
0.9943982
0.9943986
0.9944107
0.9944138
0.994434
0.9944346
0.9944606
0.9944798
0.9944833
0.9944738
0.9944604
0.9944446
0.9944295
0.9944228
0.9944312
0.9927189
0.9926026
0.9925211
0.9924507
0.992367
0.9922511
0.9921067
0.991961
0.9933106
0.9930272
0.9927976
0.992667
0.992566
0.9924876
0.9924203
0.9923421
0.9922358
0.9921028
0.9919659
0.9919017
0.9919024
0.9919449
0.9934155
0.9932392
0.9929882
0.9927788
0.9926395
0.9925386
0.9924566
0.9923878
0.9923138
0.9922196
0.9921065
0.9919912
0.9919415
0.9919539
0.9920153
0.9921462
0.9937775
0.9935684
0.9933768
0.9931884
0.9929614
0.9927894
0.9926328
0.9925271
0.992438
0.9923631
0.9922895
0.9922057
0.9921127
0.9920213
0.9919817
0.9919883
0.9920665
0.9921993
0.9924078
0.9925986
0.993853
0.9937352
0.9935418
0.9933466
0.9931703
0.992947
0.9927855
0.9926494
0.9925429
0.9924462
0.9923612
0.9922835
0.9922061
0.9921303
0.9920602
0.9920245
0.9920304
0.9920996
0.992222
0.9923872
0.9926031
0.9928167
0.9939259
0.9938295
0.993706
0.9935113
0.9933306
0.9931395
0.9929584
0.9928236
0.9927065
0.9926042
0.9925035
0.9924092
0.9923246
0.9922482
0.9921813
0.992125
0.9920909
0.9920887
0.9921359
0.9922278
0.992368
0.9925272
0.9926941
0.9927635
0.9939113
0.9938109
0.9936729
0.9934833
0.9932931
0.9931364
0.9929932
0.9928868
0.9927915
0.9927016
0.9926067
0.9925093
0.9924193
0.9923397
0.9922692
0.9922122
0.9921766
0.992171
0.9922024
0.9922739
0.9923746
0.9925027
0.9926286
0.9927353
0.9939516
0.9938831
0.9937812
0.9936261
0.9934241
0.9932572
0.9931227
0.993008
0.9929288
0.9928596
0.9927912
0.9927149
0.9926297
0.992543
0.9924605
0.9923891
0.9923379
0.9923011
0.9922933
0.9923191
0.9923749
0.9924634
0.9925606
0.9926574
0.9927522
0.9928272
0.9939604
0.9939335
0.9938654
0.9937402
0.9935489
0.9933452
0.9931847
0.9930641
0.9929765
0.9929248
0.9928871
0.9928485
0.9927998
0.9927422
0.9926793
0.992611
0.9925493
0.9925017
0.9924724
0.9924775
0.992501
0.9925483
0.9926147
0.9927038
0.9927939
0.9928579
0.9929206
0.992975
0.9939442
0.9939169
0.9938427
0.9936936
0.9934631
0.9932456
0.9930946
0.9929964
0.9929402
0.9929118
0.992896
0.9928811
0.9928621
0.9928348
0.9927982
0.9927536
0.9927191
0.9926917
0.9926804
0.9926973
0.992743
0.9927921
0.9928472
0.9929075
0.992977
0.9930045
0.9930325
0.9930604
0.9939168
0.9938942
0.9938192
0.993635
0.9933883
0.9931659
0.9930354
0.9929676
0.992934
0.9929203
0.9929149
0.9929119
0.9929093
0.9929053
0.9928977
0.9928833
0.9928692
0.9928631
0.9928723
0.9928991
0.9929424
0.9929634
0.9929758
0.9929866
0.9930118
0.9930205
0.9930315
0.9930637
0.9938826
0.9938727
0.9938616
0.9937954
0.9936106
0.9933632
0.9931295
0.993015
0.9929718
0.9929535
0.9929461
0.9929394
0.9929317
0.9929189
0.9929159
0.992926
0.9929395
0.9929469
0.9929474
0.9929453
0.9929447
0.9929477
0.9929434
0.9929426
0.9929403
0.9929375
0.9929365
0.9929274
0.9929275
0.9929192
0.993854
0.993838
0.9938261
0.9937719
0.993608
0.9933767
0.9931522
0.9930299
0.9930013
0.9930119
0.9930249
0.9930205
0.99299
0.9929342
0.9928985
0.9929038
0.9929412
0.9929854
0.9930171
0.9930313
0.9930335
0.9930301
0.9930226
0.9930183
0.9930086
0.9929932
0.9929693
0.992933
0.992892
0.9928545
0.9938253
0.9937981
0.9937849
0.9937445
0.9936148
0.9934166
0.9932105
0.9930813
0.9930453
0.9930733
0.9931342
0.9931725
0.9931122
0.9930074
0.9929115
0.9928682
0.9928899
0.9929562
0.9930341
0.9930982
0.9931394
0.993159
0.9931599
0.993155
0.9931435
0.9931257
0.9930907
0.9930403
0.9929678
0.9928824
0.9938001
0.9937573
0.9937378
0.9937084
0.9936162
0.9934625
0.9932882
0.993161
0.9931127
0.9931287
0.9931777
0.9932032
0.9931665
0.9930754
0.992966
0.9928851
0.9928653
0.9929102
0.9929986
0.9930994
0.993187
0.9932478
0.9932789
0.9932821
0.9932753
0.9932638
0.9932357
0.9931919
0.9931109
0.9929925
0.9937837
0.9937218
0.9936885
0.9936622
0.9936012
0.9934941
0.9933618
0.9932514
0.9931958
0.9931909
0.9932105
0.9932107
0.9931653
0.9930792
0.9929807
0.9929064
0.9928829
0.9929175
0.9929996
0.993107
0.9932158
0.9933059
0.9933641
0.9933841
0.9933849
0.9933799
0.9933649
0.9933409
0.9932772
0.9931586
0.9937802
0.9936992
0.9936452
0.9936106
0.9935664
0.9934973
0.9934074
0.9933242
0.9932709
0.9932501
0.9932402
0.9932053
0.993136
0.9930474
0.9929671
0.9929217
0.9929253
0.9929774
0.9930662
0.9931746
0.9932847
0.9933807
0.9934474
0.9934755
0.9934817
0.9934792
0.99347
0.993464
0.9934279
0.9933376
0.9937868
0.9936942
0.9936175
0.9935641
0.9935188
0.9934695
0.9934102
0.9933505
0.9933032
0.9932688
0.9932255
0.9931574
0.9930755
0.9930024
0.9929605
0.9929627
0.9930099
0.9930926
0.9931966
0.9933068
0.99341
0.9934955
0.9935508
0.9935773
0.9935828
0.9935789
0.9935654
0.9935675
0.9935488
0.9934854
0.9937955
0.9937054
0.9936126
0.9935363
0.9934742
0.9934227
0.9933731
0.9933231
0.9932741
0.9932214
0.9931497
0.9930753
0.9930179
0.9929945
0.9930132
0.9930723
0.9931626
0.9932707
0.9933833
0.9934879
0.993576
0.9936415
0.9936783
0.9936962
0.9936997
0.9936936
0.9936709
0.9936728
0.9936554
0.9935888
0.9937209
0.9936282
0.9935351
0.9934581
0.9933864
0.9933241
0.9932644
0.9932022
0.9931323
0.9930752
0.9930459
0.9930528
0.9930971
0.993174
0.9932745
0.9933874
0.9935008
0.993605
0.9936913
0.9937563
0.9937982
0.9938247
0.9938363
0.9938392
0.9938306
0.9938026
0.9937954
0.9937696
0.993787
0.9936916
0.993612
0.9935
0.9934055
0.9933213
0.9932459
0.9931894
0.9931588
0.9931603
0.9931925
0.9932531
0.9933368
0.9934367
0.9935441
0.9936507
0.9937469
0.9938276
0.9938879
0.9939297
0.9939596
0.9939807
0.9939919
0.9939975
0.9939699
0.9939714
0.9939319
0.9938805
0.9938735
0.9938055
0.9937241
0.9936434
0.9935483
0.9934728
0.9934268
0.9934049
0.9934088
0.9934376
0.9934871
0.9935566
0.9936396
0.9937297
0.9938194
0.9939019
0.9939693
0.9940211
0.9940585
0.9940854
0.9941188
0.9941396
0.9941506
0.9941587
0.9941344
0.9941164
0.9940682
0.9939892
0.9938697
0.9938175
0.9937825
0.9937467
0.9937018
0.993676
0.9936711
0.9936875
0.9937234
0.9937769
0.993844
0.9939166
0.9939891
0.9940545
0.9941081
0.9941464
0.9941732
0.9941981
0.9942219
0.9942586
0.9942746
0.9942807
0.9942749
0.9942753
0.9942386
0.9941832
0.99392
0.9938963
0.993884
0.9938781
0.9938746
0.9938888
0.993919
0.9939641
0.9940218
0.9940849
0.994145
0.994196
0.9942341
0.9942596
0.9942759
0.9942882
0.9943061
0.9943269
0.9943593
0.9943628
0.9943562
0.9943609
0.9943464
0.9943182
0.9939919
0.9939909
0.9939992
0.9940149
0.9940433
0.9940823
0.9941248
0.994176
0.994232
0.9942845
0.9943241
0.9943481
0.9943602
0.9943641
0.994363
0.9943648
0.9943783
0.9943931
0.9944131
0.9944016
0.9943968
0.9943903
0.9943758
0.9943465
0.994085
0.9941238
0.9941462
0.9942082
0.9942612
0.9943128
0.9943626
0.9944066
0.9944374
0.9944491
0.9944456
0.9944361
0.9944231
0.9944096
0.9944034
0.9944126
0.994423
0.9944318
0.9944178
0.9944085
0.9943974
0.9943847
0.9942554
0.99429
0.9943646
0.9944243
0.9944686
0.9944952
0.9945282
0.994533
0.9945184
0.9944937
0.9944697
0.9944459
0.9944252
0.9944145
0.9944223
0.9944353
0.9944453
0.9944268
0.9944142
0.9944079
0.9945027
0.9945538
0.9945625
0.9945841
0.9945885
0.9945718
0.9945401
0.9945045
0.9944739
0.9944463
0.994424
0.9944126
0.9944226
0.9944474
0.9944651
0.9944563
0.9946307
0.9946246
0.9946235
0.9946071
0.9945787
0.9945379
0.9944973
0.9944655
0.9944392
0.9944203
0.9944104
0.9944251
0.9944641
0.9945093
0.9946098
0.9945708
0.9945256
0.9944838
0.9944542
0.9944331
0.994422
0.9944326
0.9928071
0.9927075
0.9926256
0.9925362
0.9924113
0.9922598
0.9935077
0.9932405
0.9930169
0.9927992
0.9927017
0.9926146
0.9925375
0.9924472
0.9923196
0.9921593
0.9919666
0.991853
0.9917844
0.9917607
0.9937883
0.9935704
0.993416
0.9931562
0.9929425
0.9927389
0.9926069
0.992516
0.9924408
0.9923526
0.9922311
0.9920819
0.9919253
0.9918405
0.991809
0.9918229
0.9918773
0.9918933
0.9938539
0.9937312
0.9935306
0.9933562
0.9930751
0.9928465
0.9926524
0.9924967
0.992397
0.9923208
0.992236
0.9921267
0.992003
0.9918994
0.9918424
0.9918483
0.9919082
0.9919934
0.9920855
0.9921967
0.9939214
0.9938181
0.9936846
0.9934958
0.9932731
0.9930014
0.9927736
0.9925709
0.992411
0.9923009
0.9922204
0.9921383
0.9920427
0.9919448
0.9918718
0.9918467
0.9918867
0.9919857
0.9921204
0.9922624
0.9924585
0.9926505
0.9939609
0.993892
0.9937911
0.9936267
0.9934268
0.9932025
0.9929432
0.9927237
0.9925242
0.9923632
0.9922419
0.9921514
0.9920681
0.9919833
0.9919076
0.9918602
0.9918584
0.9919181
0.9920395
0.9922008
0.9923889
0.9926186
0.9928695
0.9930233
0.9939824
0.9939364
0.9938714
0.9937448
0.9935701
0.9933686
0.9931461
0.9929038
0.9927022
0.9925202
0.9923661
0.9922381
0.9921353
0.9920459
0.9919657
0.9919035
0.99187
0.9918754
0.9919338
0.9920578
0.9922267
0.9924272
0.992671
0.9929227
0.9931014
0.9931285
0.9939871
0.99397
0.9939278
0.9938402
0.9937009
0.9935213
0.9933193
0.9931048
0.9928903
0.9927179
0.992563
0.992424
0.9922972
0.9921855
0.9920878
0.9920053
0.9919403
0.9919006
0.9918989
0.9919444
0.9920485
0.9922032
0.9923901
0.9926179
0.992861
0.9930565
0.9931334
0.9930347
0.9939812
0.993977
0.9939613
0.9939124
0.9938089
0.9936622
0.9934759
0.9932756
0.9930797
0.9929003
0.9927614
0.992636
0.9925161
0.992398
0.992285
0.9921804
0.9920892
0.992019
0.9919753
0.991965
0.9919947
0.992071
0.9921913
0.9923424
0.9925224
0.9927122
0.9928748
0.9930366
0.9930132
0.9929478
0.9939798
0.9939698
0.9939476
0.993888
0.993778
0.9936224
0.9934258
0.9932288
0.993056
0.9929139
0.9928106
0.9927194
0.9926282
0.9925307
0.9924294
0.9923296
0.9922373
0.9921618
0.9921119
0.9920905
0.9921043
0.9921565
0.9922436
0.9923598
0.9924969
0.9926398
0.9927938
0.9929053
0.9930012
0.9930056
0.9940193
0.9939666
0.9939524
0.9939251
0.9938599
0.9937464
0.9935752
0.9933572
0.9931572
0.9930038
0.9928937
0.9928234
0.9927691
0.9927141
0.9926491
0.992576
0.9924994
0.9924214
0.992353
0.9923035
0.9922785
0.9922863
0.9923239
0.9923882
0.9924742
0.9925797
0.9926977
0.9928059
0.9929115
0.9929876
0.9930413
0.993066
0.9939942
0.9939503
0.9939282
0.9938959
0.9938326
0.9937139
0.9935162
0.9932597
0.9930614
0.9929314
0.9928537
0.9928129
0.9927879
0.992765
0.9927362
0.9926984
0.9926495
0.9925954
0.9925527
0.9925213
0.992509
0.9925231
0.9925643
0.992625
0.992698
0.9927756
0.9928542
0.992917
0.9929745
0.9930371
0.9930645
0.993088
0.9939822
0.9939294
0.9938985
0.9938646
0.9938043
0.993681
0.993459
0.9931674
0.9929839
0.9928851
0.9928387
0.9928205
0.992813
0.9928083
0.992803
0.9927947
0.9927812
0.9927605
0.9927402
0.9927293
0.9927378
0.9927655
0.9928097
0.9928454
0.9928709
0.9928937
0.9929219
0.9929484
0.9929791
0.9930323
0.993039
0.9930717
0.99397
0.9939054
0.9938639
0.9938295
0.9937749
0.9936542
0.9934257
0.9931263
0.9929461
0.9928766
0.9928526
0.992845
0.9928391
0.9928318
0.9928207
0.9928165
0.992824
0.9928367
0.9928461
0.99285
0.9928517
0.9928549
0.9928599
0.9928604
0.9928628
0.9928662
0.9928704
0.9928747
0.9928795
0.9929047
0.9929212
0.9929722
0.994091
0.9939748
0.9938863
0.9938271
0.9937907
0.993743
0.9936349
0.9934212
0.9931411
0.9929548
0.9928959
0.9928987
0.9929094
0.9929056
0.9928828
0.9928337
0.9927993
0.9928007
0.9928336
0.9928773
0.9929128
0.992933
0.9929406
0.9929412
0.9929374
0.9929344
0.9929302
0.9929219
0.9929029
0.9928726
0.9928408
0.9928189
0.9928188
0.9928171
0.9940664
0.9939672
0.9938698
0.9937942
0.9937494
0.9937066
0.9936179
0.9934363
0.9931905
0.993004
0.9929354
0.9929502
0.9930069
0.9930512
0.9929982
0.9929004
0.9928099
0.9927657
0.9927818
0.9928435
0.9929219
0.9929917
0.9930405
0.9930669
0.9930746
0.9930721
0.9930663
0.9930569
0.9930305
0.9929811
0.9929113
0.9928313
0.9927729
0.9927328
0.9940393
0.9939545
0.9938557
0.993766
0.9937082
0.9936649
0.9935957
0.9934558
0.9932568
0.9930848
0.9930016
0.9930023
0.9930489
0.9930827
0.9930545
0.9929703
0.9928652
0.9927841
0.99276
0.9927996
0.9928859
0.99299
0.9930852
0.9931545
0.993192
0.9932024
0.9932026
0.993202
0.9931883
0.9931476
0.9930681
0.992946
0.9928382
0.9927283
0.9940128
0.9939437
0.9938481
0.9937468
0.9936719
0.9936203
0.9935641
0.9934641
0.9933174
0.9931756
0.9930888
0.993067
0.9930828
0.9930899
0.9930552
0.9929778
0.9928835
0.9928083
0.9927809
0.9928117
0.9928925
0.993003
0.9931185
0.9932165
0.9932813
0.9933099
0.9933192
0.9933276
0.9933319
0.9933167
0.9932578
0.9931299
0.9929913
0.992804
0.993984
0.9939323
0.9938465
0.9937397
0.9936474
0.9935796
0.9935244
0.9934526
0.9933522
0.9932479
0.9931717
0.9931346
0.9931216
0.9930948
0.9930353
0.9929534
0.9928751
0.9928278
0.9928284
0.992879
0.9929694
0.9930827
0.9931997
0.9933022
0.9933746
0.9934117
0.9934273
0.9934404
0.993455
0.9934615
0.9934345
0.993336
0.9932077
0.9929851
0.9939525
0.9939073
0.9938423
0.9937424
0.9936395
0.9935522
0.9934848
0.9934228
0.993352
0.993278
0.9932161
0.9931704
0.9931286
0.993066
0.9929892
0.9929181
0.9928753
0.9928757
0.9929222
0.9930069
0.9931156
0.9932323
0.9933421
0.9934331
0.9934953
0.993529
0.9935454
0.9935598
0.9935755
0.9935901
0.9935824
0.9935202
0.9934319
0.9932282
0.9938752
0.9938317
0.9937551
0.9936515
0.9935487
0.9934608
0.9933887
0.9933237
0.9932616
0.9932035
0.9931455
0.9930744
0.9930019
0.9929453
0.992921
0.9929388
0.9929985
0.9930917
0.9932048
0.9933232
0.9934338
0.993527
0.9935976
0.9936429
0.9936689
0.993685
0.9937004
0.9937132
0.9937237
0.9937154
0.9936733
0.9936259
0.9938846
0.9938519
0.99378
0.9936824
0.9935757
0.9934715
0.9933782
0.9932972
0.9932243
0.9931538
0.9930819
0.9930228
0.9929922
0.9929977
0.9930414
0.9931195
0.9932231
0.9933403
0.9934581
0.9935659
0.9936557
0.993724
0.9937733
0.9938066
0.9938289
0.9938467
0.9938631
0.9938733
0.993872
0.9938357
0.9938144
0.9937595
0.9939131
0.9938789
0.9938239
0.9937389
0.9936397
0.9935302
0.9934219
0.9933234
0.9932405
0.9931786
0.9931434
0.9931385
0.9931654
0.9932229
0.9933062
0.9934078
0.9935178
0.993626
0.9937228
0.9938029
0.9938642
0.9939082
0.9939449
0.9939737
0.9939962
0.9940155
0.994031
0.9940399
0.9940252
0.9939681
0.9939342
0.9938723
0.9939467
0.9939135
0.9938844
0.9938278
0.9937527
0.9936716
0.9935881
0.993512
0.9934538
0.9934192
0.9934114
0.9934314
0.9934774
0.993546
0.9936301
0.9937212
0.9938102
0.9938895
0.9939534
0.9940021
0.9940388
0.9940671
0.9941002
0.9941262
0.9941457
0.9941624
0.9941786
0.9941778
0.9941541
0.9941004
0.9940466
0.9939689
0.9939557
0.993933
0.9938996
0.9938505
0.9937978
0.9937504
0.9937106
0.9936846
0.9936773
0.9936913
0.9937277
0.9937828
0.9938508
0.9939233
0.9939921
0.9940511
0.9940969
0.9941289
0.9941523
0.9941733
0.9941928
0.9942204
0.9942368
0.994247
0.9942578
0.9942728
0.9942633
0.99423
0.9941906
0.9941436
0.9939891
0.9939777
0.9939618
0.9939368
0.9939106
0.9938921
0.9938841
0.9938888
0.9939078
0.9939411
0.9939905
0.9940482
0.9941071
0.994159
0.9941988
0.9942257
0.9942408
0.9942477
0.9942539
0.9942636
0.9942738
0.9942887
0.9942912
0.9942908
0.9942971
0.9943128
0.994299
0.9942718
0.9942398
0.9941998
0.9940301
0.9940199
0.9940189
0.9940261
0.9940349
0.9940576
0.9940886
0.9941267
0.9941689
0.9942207
0.9942678
0.9943051
0.9943279
0.9943359
0.9943344
0.9943258
0.9943144
0.9943083
0.9943079
0.994307
0.9943074
0.9943038
0.9943052
0.9943152
0.9943343
0.9943128
0.994287
0.994266
0.9940842
0.9941115
0.9941477
0.9941884
0.9942364
0.994283
0.9943248
0.9943601
0.9944025
0.9944271
0.9944348
0.9944272
0.9944083
0.9943863
0.9943615
0.9943383
0.9943229
0.9943134
0.9943084
0.9943149
0.9943222
0.9943307
0.9943453
0.9943501
0.9943143
0.9942967
0.9942124
0.9942905
0.9943352
0.9944087
0.9944535
0.9944835
0.9944984
0.9945217
0.994518
0.9944975
0.9944659
0.9944292
0.9943951
0.9943614
0.9943326
0.9943185
0.9943156
0.9943227
0.9943485
0.9943742
0.99439
0.9943852
0.9943777
0.9943367
0.9944162
0.9944796
0.9945503
0.9945695
0.9945916
0.9945827
0.9945854
0.9945571
0.9945166
0.9944724
0.9944289
0.9943917
0.994358
0.9943331
0.9943304
0.9943426
0.9943689
0.994421
0.9944424
0.9944663
0.9944385
0.9944226
0.9945961
0.9946406
0.9946576
0.9946516
0.9946328
0.9946198
0.9945773
0.9945257
0.9944772
0.9944328
0.9943986
0.9943711
0.9943549
0.9943718
0.994404
0.9944499
0.994505
0.9945254
0.9945498
0.9945153
0.9947105
0.9947016
0.9946891
0.9946596
0.9946443
0.9945901
0.9945453
0.9944989
0.9944573
0.99443
0.9944119
0.994403
0.9944237
0.9944731
0.9945308
0.994593
0.9946089
0.9946519
0.9947214
0.9946798
0.9946597
0.9945995
0.9945688
0.9945292
0.9944917
0.9944715
0.9944626
0.9944551
0.9944712
0.9945416
0.9946198
0.9947208
0.9946166
0.9945746
0.9945399
0.9945271
0.9945307
0.9945543
0.9933589
0.9931485
0.9929565
0.9928427
0.9927494
0.9926645
0.9925526
0.9923999
0.9922262
0.9920825
0.993802
0.9936488
0.993411
0.9932363
0.9930328
0.992836
0.9927137
0.9926237
0.9925344
0.9924111
0.9922424
0.9920793
0.9919202
0.991785
0.9917355
0.9917098
0.993851
0.9937487
0.9935725
0.9933112
0.9930965
0.9928606
0.9926759
0.9925155
0.9924208
0.9923279
0.9922087
0.9920823
0.9919412
0.9918244
0.9917432
0.9917243
0.9917207
0.9917392
0.9940005
0.9939154
0.9938065
0.9936596
0.9934716
0.9931945
0.9929396
0.9926676
0.9924616
0.9923058
0.9922096
0.992115
0.9920021
0.9918897
0.991787
0.9917228
0.9917047
0.9917422
0.9917863
0.991851
0.9919399
0.9919897
0.9939956
0.9939651
0.9938791
0.9937394
0.9935655
0.9933612
0.9930836
0.9928027
0.9925034
0.9922816
0.9921282
0.9920313
0.9919371
0.9918349
0.9917458
0.9916842
0.9916699
0.9917055
0.9917883
0.9918955
0.992034
0.9921821
0.9923743
0.9925341
0.9939835
0.9939664
0.9939243
0.9938101
0.9936524
0.9934752
0.9932614
0.9929853
0.9926979
0.9923935
0.992157
0.9920013
0.9919012
0.9918086
0.9917203
0.9916584
0.9916362
0.9916669
0.9917502
0.9918802
0.992044
0.9922433
0.99247
0.9926806
0.9928905
0.9929412
0.9939621
0.9939606
0.9939351
0.993861
0.9937223
0.9935696
0.9933949
0.9931772
0.9929056
0.9926251
0.9923352
0.9921008
0.9919351
0.9918244
0.9917301
0.9916523
0.9916132
0.9916217
0.9916858
0.9918036
0.99197
0.9921748
0.9924138
0.9926716
0.9928984
0.9929933
0.9929408
0.9928166
0.9939815
0.9939585
0.9939418
0.9938868
0.9937824
0.9936482
0.9935022
0.9933288
0.9931088
0.9928465
0.9925863
0.9923272
0.9921088
0.9919401
0.9918161
0.9917132
0.9916339
0.9915993
0.9916116
0.9916864
0.9918216
0.9920081
0.992233
0.9924877
0.9927484
0.9929493
0.9929992
0.9929069
0.9927651
0.9926887
0.993977
0.9939503
0.9939088
0.9938267
0.9937224
0.9935961
0.9934525
0.9932752
0.9930547
0.9928111
0.9925829
0.9923626
0.9921682
0.9920044
0.9918715
0.991757
0.9916627
0.9916151
0.9916218
0.9916901
0.991816
0.9919936
0.9922102
0.9924558
0.9927131
0.9929173
0.9929791
0.992896
0.9927825
0.9927055
0.9940349
0.9939683
0.9939239
0.9938617
0.9937812
0.9936832
0.9935622
0.9934139
0.9932282
0.9930125
0.9928004
0.9926167
0.9924451
0.9922849
0.9921358
0.9920009
0.9918798
0.991778
0.9917135
0.9916986
0.9917375
0.9918283
0.9919675
0.9921444
0.9923478
0.9925729
0.9927909
0.9929373
0.9929442
0.9928456
0.9927967
0.9928012
0.9941542
0.994055
0.9939679
0.9938917
0.9938231
0.9937483
0.9936577
0.9935368
0.9933729
0.9931773
0.9929789
0.9928075
0.9926734
0.9925535
0.9924366
0.9923167
0.9921962
0.9920802
0.9919765
0.9918992
0.9918614
0.9918678
0.9919191
0.9920125
0.9921398
0.9922921
0.992461
0.9926318
0.9928041
0.992919
0.9929385
0.9929006
0.9928678
0.992858
0.9941485
0.9940472
0.993953
0.9938634
0.9937924
0.9937245
0.993639
0.9935049
0.9933185
0.9931105
0.9929284
0.9927949
0.9927054
0.9926337
0.9925629
0.9924825
0.9923936
0.9923025
0.9922139
0.9921405
0.9920941
0.9920813
0.9921056
0.992164
0.9922503
0.9923576
0.9924831
0.9926173
0.9927479
0.992867
0.9929534
0.9929975
0.9929903
0.9929403
0.9941293
0.9940284
0.9939218
0.9938329
0.9937654
0.9937044
0.993616
0.9934657
0.9932427
0.993012
0.9928545
0.9927587
0.9927058
0.9926718
0.9926408
0.992603
0.992555
0.9924945
0.9924316
0.9923834
0.9923515
0.9923434
0.992363
0.9924101
0.9924835
0.9925688
0.9926541
0.9927386
0.9928176
0.9928934
0.9929678
0.9930199
0.993053
0.9930298
0.9942676
0.9941612
0.9940388
0.993909
0.9938088
0.9937403
0.9936828
0.9935914
0.9934248
0.9931593
0.9929236
0.9927993
0.9927395
0.9927153
0.992705
0.992698
0.99269
0.9926781
0.99266
0.9926352
0.9926121
0.9925998
0.9926105
0.9926413
0.9926872
0.9927265
0.9927595
0.9927903
0.9928238
0.9928601
0.992903
0.9929596
0.9930038
0.9930526
0.9930543
0.9930453
0.9942419
0.9941644
0.9940399
0.9939001
0.993789
0.9937153
0.993657
0.9935676
0.9933952
0.9931164
0.9928748
0.9927809
0.992748
0.9927382
0.9927322
0.9927247
0.9927153
0.9927101
0.9927159
0.992728
0.9927391
0.9927461
0.9927508
0.9927569
0.9927637
0.992768
0.9927736
0.9927812
0.9927901
0.9927996
0.9928136
0.9928443
0.992885
0.9929561
0.9929681
0.9929986
0.9941881
0.9941248
0.9940181
0.9938842
0.9937695
0.9936898
0.993629
0.993545
0.9933821
0.9931175
0.9928853
0.9927912
0.9927841
0.9927908
0.9927863
0.9927668
0.9927237
0.9926912
0.9926902
0.99272
0.9927638
0.9928033
0.9928289
0.9928413
0.9928449
0.9928436
0.9928422
0.992841
0.9928362
0.9928204
0.992795
0.9927725
0.9927661
0.9927983
0.9928223
0.9928693
0.9941403
0.9940921
0.9939895
0.9938679
0.9937529
0.9936654
0.9935997
0.9935225
0.9933809
0.9931504
0.9929338
0.9928308
0.9928277
0.9928752
0.9929198
0.9928741
0.9927827
0.9926976
0.9926537
0.9926665
0.9927256
0.9928053
0.9928801
0.9929348
0.9929658
0.9929768
0.9929766
0.9929742
0.9929685
0.9929447
0.9928948
0.9928271
0.9927597
0.9927176
0.9927068
0.9927209
0.994076
0.9940444
0.9939577
0.9938504
0.9937389
0.9936438
0.9935705
0.9934984
0.9933826
0.9931969
0.9930072
0.9928971
0.992878
0.992916
0.9929531
0.9929318
0.9928534
0.9927525
0.9926727
0.9926467
0.9926838
0.9927695
0.9928768
0.9929776
0.9930524
0.9930937
0.9931078
0.9931123
0.993117
0.9931082
0.9930651
0.9929812
0.99287
0.992771
0.9926967
0.9926727
0.9940159
0.9939957
0.9939216
0.9938303
0.9937275
0.9936275
0.9935441
0.9934719
0.9933789
0.9932388
0.9930858
0.99298
0.992942
0.9929501
0.9929594
0.9929324
0.992863
0.9927738
0.9927001
0.9926717
0.9927012
0.9927822
0.9928955
0.9930157
0.9931185
0.993187
0.9932197
0.993234
0.9932497
0.9932628
0.9932487
0.9931847
0.9930675
0.9929331
0.9927867
0.9926913
0.9939632
0.9939465
0.9938805
0.9938026
0.9937149
0.9936175
0.9935246
0.9934455
0.9933654
0.9932625
0.9931477
0.993057
0.9930087
0.9929905
0.9929683
0.9929176
0.9928439
0.9927706
0.9927251
0.992726
0.9927771
0.9928695
0.992986
0.993107
0.9932128
0.9932881
0.9933289
0.9933494
0.9933711
0.9933982
0.9934117
0.9933844
0.993299
0.9931722
0.9929885
0.9928209
0.9939313
0.9939087
0.993856
0.993773
0.9936964
0.9936103
0.9935148
0.9934253
0.9933448
0.9932622
0.9931763
0.9931019
0.9930489
0.9930076
0.992952
0.9928832
0.9928187
0.99278
0.9927826
0.992831
0.9929182
0.9930299
0.9931498
0.9932621
0.9933546
0.9934185
0.9934546
0.9934754
0.9934989
0.9935298
0.9935553
0.9935532
0.9935071
0.9934173
0.9932648
0.9930829
0.9939099