/*--------------------------------*- C++ -*----------------------------------*\
  =========                 |
  \\      /  F ield         | OpenFOAM: The Open Source CFD Toolbox
   \\    /   O peration     | Website:  https://openfoam.org
    \\  /    A nd           | Version:  6
     \\/     M anipulation  |
\*---------------------------------------------------------------------------*/
FoamFile
{
    version     2.0;
    format      ascii;
    class       volScalarField;
    location    "49.8";
    object      rhok;
}
// * * * * * * * * * * * * * * * * * * * * * * * * * * * * * * * * * * * * * //

dimensions      [0 0 0 0 0 0 0];

internalField   nonuniform List<scalar> 
203709
(
0.9928577
0.9927986
0.9927244
0.9926971
0.9930374
0.993019
0.9929624
0.9929235
0.9928695
0.9928258
0.9927793
0.9928233
0.9930696
0.9930632
0.9930609
0.9930565
0.993037
0.9930154
0.9929854
0.9929615
0.9929365
0.9929503
0.9929329
0.9929711
0.993086
0.9930811
0.9930809
0.9930805
0.9930804
0.9930787
0.9930741
0.9930644
0.993059
0.993053
0.9930644
0.9930676
0.9930797
0.9931082
0.9930975
0.9930919
0.9930868
0.9930824
0.9930793
0.9930805
0.9930886
0.9930972
0.9931001
0.9931016
0.9931133
0.9931202
0.9931209
0.9931313
0.9931335
0.9931324
0.9931254
0.9931147
0.9931046
0.9930788
0.9930601
0.9930681
0.9930946
0.993114
0.9931138
0.9930996
0.9930811
0.9930631
0.9930466
0.9930455
0.993166
0.9931897
0.9932286
0.9932731
0.993226
0.9931398
0.9930567
0.9930224
0.993055
0.9931195
0.9931686
0.9931842
0.9931741
0.9931522
0.9931296
0.9931101
0.9932439
0.9932057
0.9932354
0.9932876
0.9933382
0.9933352
0.9932551
0.993126
0.9930164
0.99299
0.9930505
0.9931464
0.9932247
0.9932627
0.9932659
0.993249
0.993221
0.9932215
0.9932927
0.9932671
0.9932835
0.9933218
0.993352
0.99334
0.9932701
0.9931564
0.9930434
0.9929819
0.9929987
0.9930809
0.9931886
0.9932802
0.9933327
0.993346
0.9933316
0.9932952
0.9933477
0.9933255
0.9933309
0.9933506
0.9933553
0.9933183
0.9932363
0.99313
0.9930359
0.9929873
0.9929993
0.9930653
0.9931643
0.9932687
0.9933528
0.9934012
0.9934121
0.9933861
0.9933766
0.9933632
0.9933594
0.9933582
0.9933292
0.9932617
0.9931683
0.9930762
0.9930141
0.9929992
0.9930326
0.9931033
0.9931949
0.9932909
0.9933755
0.9934359
0.9934653
0.9934468
0.9933576
0.9933421
0.9933118
0.9932475
0.9931633
0.993082
0.9930269
0.9930129
0.9930417
0.9931043
0.9931868
0.9932753
0.9933596
0.993431
0.9934831
0.9935079
0.9933053
0.9932607
0.9931967
0.9931242
0.9930619
0.9930272
0.9930301
0.9930704
0.9931392
0.9932239
0.993312
0.9933935
0.9934635
0.9935167
0.9935534
0.9935488
0.9931506
0.9930904
0.9930532
0.9930467
0.9930735
0.9931307
0.9932096
0.9932994
0.9933884
0.993469
0.9935346
0.9935867
0.9936195
0.9936325
0.9931402
0.9931069
0.9931325
0.9931791
0.9932451
0.9933271
0.9934153
0.9935012
0.993576
0.9936374
0.9936808
0.993715
0.9937259
0.9937013
0.9933726
0.9933707
0.9934183
0.9934878
0.9935665
0.9936417
0.9937086
0.9937593
0.9937983
0.9938216
0.9938485
0.9938267
0.9937112
0.99372
0.9937918
0.9938498
0.9938952
0.9939237
0.9939452
0.9939372
0.9940135
0.9940265
0.9940509
0.9940485
0.9927951
0.9926704
0.9925762
0.9924904
0.9924162
0.9923476
0.9922737
0.992193
0.9921094
0.9920615
0.9931342
0.9929531
0.9928273
0.9927348
0.9926455
0.9925557
0.9924718
0.992396
0.9923226
0.9922497
0.9921779
0.9921227
0.992109
0.9921364
0.9932499
0.9931414
0.9930233
0.9929198
0.9928401
0.9927584
0.9926632
0.9925637
0.9924789
0.9924068
0.9923409
0.9922743
0.9922259
0.992206
0.9922152
0.9922717
0.9933369
0.9932415
0.9931585
0.9930788
0.9930063
0.9929481
0.9928695
0.9927913
0.9926883
0.9925979
0.9925271
0.9924379
0.9923941
0.9923608
0.9923373
0.9923415
0.9923812
0.9924455
0.9933917
0.9932743
0.9931814
0.9931122
0.9930592
0.9930245
0.9929984
0.9929562
0.9928973
0.9928223
0.9927421
0.9926559
0.9925983
0.9925553
0.9924997
0.9924917
0.9925006
0.9925281
0.9925717
0.9926306
0.9934683
0.9933086
0.9931788
0.9931041
0.9930586
0.9930263
0.9930115
0.9930062
0.9929852
0.9929608
0.9929142
0.9928619
0.9927972
0.9927455
0.9926963
0.9926782
0.9927022
0.9926857
0.9927089
0.9927439
0.9927776
0.9928243
0.9933701
0.993219
0.9931218
0.9930695
0.9930401
0.9930236
0.993008
0.9930023
0.9929958
0.9929888
0.9929744
0.9929512
0.9929141
0.99289
0.992866
0.9928582
0.9928816
0.9929392
0.9929357
0.992957
0.9929856
0.9929994
0.9936331
0.9933697
0.9931827
0.9931035
0.9930669
0.9930501
0.9930253
0.9930113
0.9930043
0.9930002
0.992999
0.9930031
0.9930068
0.9930009
0.9929935
0.992991
0.9929986
0.9930204
0.9930635
0.9930546
0.9930568
0.99306
0.9930615
0.9930594
0.9936351
0.9933936
0.9932029
0.9931173
0.9930882
0.9930698
0.9930523
0.9930393
0.9930286
0.9930082
0.9929888
0.99299
0.9930089
0.9930269
0.9930323
0.9930269
0.9930189
0.9930124
0.9930124
0.9930039
0.9930004
0.9929947
0.9929868
0.9929796
0.993636
0.9934405
0.9932623
0.9931561
0.9931231
0.9931166
0.9931439
0.993171
0.9931411
0.9930734
0.9929979
0.992959
0.9929761
0.9930271
0.993075
0.9930995
0.9931014
0.9930913
0.993078
0.9930652
0.9930613
0.9930423
0.9930185
0.9929896
0.9936327
0.993489
0.9933343
0.9932308
0.9931705
0.9931694
0.9932119
0.9932683
0.9932726
0.9931959
0.9930738
0.9929668
0.9929287
0.9929678
0.9930489
0.9931283
0.9931807
0.9932036
0.9932054
0.9931827
0.993183
0.9931611
0.9931323
0.9930906
0.9936177
0.9935228
0.993405
0.9933076
0.9932408
0.9932295
0.9932592
0.9932945
0.9932919
0.9932314
0.993124
0.9930092
0.9929351
0.9929315
0.9929942
0.9930928
0.9931902
0.993262
0.9933019
0.993315
0.9933016
0.9932885
0.9932612
0.9932217
0.9935855
0.9935302
0.9934505
0.9933734
0.9933136
0.9932926
0.9933022
0.9933109
0.9932849
0.993214
0.9931124
0.9930127
0.9929491
0.9929423
0.9929923
0.9930831
0.9931894
0.9932871
0.9933597
0.9934014
0.9934001
0.9933936
0.9933723
0.9933424
0.9935376
0.9935073
0.9934594
0.9934072
0.9933685
0.9933396
0.9933283
0.9933054
0.9932477
0.9931607
0.9930666
0.9929939
0.9929639
0.9929833
0.9930456
0.9931365
0.9932388
0.993337
0.9934187
0.9934765
0.9934806
0.9934808
0.9934619
0.9934373
0.9934845
0.9934604
0.9934315
0.9933979
0.9933639
0.9933325
0.9933006
0.9932442
0.9931643
0.9930805
0.9930168
0.9929911
0.9930095
0.993067
0.9931514
0.993249
0.9933469
0.9934352
0.9935077
0.9935469
0.9935696
0.9935614
0.9935399
0.9935131
0.9934446
0.9934069
0.9933756
0.9933432
0.9933081
0.9932672
0.9932086
0.9931341
0.9930664
0.993024
0.9930189
0.9930532
0.9931205
0.9932103
0.9933099
0.9934093
0.993498
0.9935704
0.9936258
0.9936356
0.9936546
0.9936434
0.9936161
0.9935813
0.9934334
0.9933729
0.9933219
0.9932753
0.9932187
0.99317
0.9931051
0.9930626
0.9930519
0.9930762
0.9931323
0.9932128
0.9933081
0.9934101
0.9935084
0.9935982
0.9936692
0.9937201
0.9937338
0.9937593
0.9937534
0.9937311
0.9936957
0.9936451
0.9933935
0.9933197
0.9932529
0.9931908
0.993174
0.9931487
0.9931681
0.993211
0.9932773
0.9933591
0.99345
0.9935437
0.9936369
0.993718
0.99379
0.9938367
0.9938686
0.9938616
0.9938735
0.9938599
0.9938277
0.9937836
0.9935396
0.9934668
0.9934111
0.9933846
0.9933822
0.993418
0.9934533
0.9934904
0.9935547
0.9936264
0.9937027
0.9937785
0.9938544
0.9939092
0.9939606
0.9939794
0.9939845
0.9940032
0.9939942
0.9939774
0.9939402
0.9938636
0.9936432
0.9936216
0.993618
0.9936262
0.9936509
0.9936949
0.9937524
0.9938091
0.9938652
0.993926
0.9939821
0.9940401
0.9940654
0.9940812
0.9941103
0.9941081
0.994122
0.9941265
0.9941143
0.9940709
0.9938164
0.9938117
0.9938324
0.9938583
0.9938982
0.9939489
0.9940114
0.994063
0.9941123
0.9941489
0.9941679
0.9941977
0.9942011
0.994211
0.9942203
0.9942537
0.9942566
0.9942324
0.9939688
0.9940041
0.99403
0.9940833
0.994133
0.9941779
0.9942193
0.994254
0.9942741
0.9942812
0.9942847
0.994293
0.9943078
0.9943152
0.9943506
0.9943352
0.9941696
0.9941803
0.9942564
0.9942965
0.994331
0.9943539
0.9943639
0.9943654
0.9943614
0.9943554
0.994355
0.9943667
0.9943697
0.9943901
0.9944026
0.9944259
0.9944418
0.9944425
0.994431
0.9944164
0.9944002
0.9943852
0.9943787
0.9943872
0.9927068
0.9925955
0.9925214
0.9924631
0.9923957
0.9922966
0.9921633
0.9920164
0.9932769
0.9930053
0.9927871
0.9926603
0.9925623
0.9924899
0.9924325
0.9923681
0.9922763
0.992153
0.9920136
0.9919334
0.9919101
0.9919389
0.9933774
0.9932095
0.9929692
0.992772
0.9926382
0.9925403
0.9924624
0.9924008
0.9923374
0.9922544
0.9921489
0.9920318
0.9919686
0.9919579
0.9920018
0.9921221
0.9937371
0.9935238
0.9933399
0.9931609
0.9929462
0.9927867
0.9926384
0.9925361
0.9924496
0.9923788
0.992312
0.9922355
0.9921476
0.9920546
0.9920038
0.991992
0.9920531
0.9921738
0.9923759
0.9925648
0.9938077
0.9936914
0.9934938
0.9933087
0.9931453
0.9929391
0.9927923
0.9926655
0.9925624
0.9924669
0.9923829
0.9923073
0.9922325
0.9921582
0.9920862
0.9920435
0.9920367
0.9920912
0.9922009
0.9923649
0.9925812
0.9928087
0.9938785
0.9937808
0.9936549
0.9934591
0.9932905
0.9931243
0.9929618
0.9928427
0.9927348
0.9926355
0.9925346
0.9924386
0.9923521
0.9922738
0.9922049
0.992145
0.9921066
0.9920959
0.9921318
0.9922152
0.992352
0.9925141
0.9927029
0.9927912
0.993859
0.9937526
0.993613
0.9934212
0.9932595
0.9931258
0.9929989
0.9929074
0.9928219
0.9927365
0.992643
0.9925441
0.9924504
0.992367
0.9922922
0.9922302
0.9921882
0.9921751
0.9921975
0.9922602
0.9923586
0.992492
0.9926273
0.9927442
0.9939007
0.9938238
0.9937124
0.9935458
0.9933606
0.9932143
0.9930984
0.9930004
0.9929366
0.9928792
0.992818
0.9927457
0.9926618
0.9925733
0.9924869
0.9924101
0.9923509
0.9923066
0.9922907
0.992308
0.992356
0.992439
0.9925364
0.9926367
0.9927437
0.9928226
0.9939118
0.993877
0.9937984
0.9936509
0.9934601
0.9932726
0.9931313
0.9930296
0.9929618
0.9929252
0.9928987
0.9928678
0.9928261
0.992767
0.9927026
0.9926303
0.9925628
0.9925071
0.9924692
0.9924643
0.9924787
0.9925178
0.9925783
0.9926638
0.9927539
0.9928195
0.9928902
0.9929504
0.9938918
0.9938557
0.9937695
0.9935973
0.9933662
0.9931779
0.9930516
0.9929763
0.9929368
0.9929169
0.9929055
0.992894
0.9928782
0.9928522
0.9928159
0.9927637
0.992725
0.9926897
0.9926691
0.9926752
0.99271
0.992746
0.9927915
0.9928508
0.9929265
0.9929693
0.9930027
0.9930339
0.9938613
0.9938306
0.9937445
0.9935376
0.9932986
0.9931146
0.9930115
0.9929621
0.9929362
0.9929231
0.992916
0.9929115
0.9929083
0.9929074
0.9929033
0.9928875
0.9928693
0.9928545
0.9928562
0.9928763
0.9929171
0.9929433
0.9929643
0.9929832
0.9930154
0.993032
0.9930463
0.9930754
0.9938227
0.9938143
0.9937974
0.9937223
0.9935225
0.993289
0.9930933
0.9930052
0.9929756
0.9929597
0.9929493
0.9929378
0.9929224
0.992904
0.9929017
0.9929161
0.9929328
0.9929408
0.99294
0.9929368
0.9929364
0.9929407
0.9929371
0.992938
0.9929393
0.9929425
0.9929504
0.9929504
0.9929595
0.9929578
0.9937921
0.9937769
0.9937616
0.9937016
0.9935312
0.9933157
0.9931254
0.99303
0.9930114
0.9930338
0.9930535
0.9930382
0.9929839
0.9929154
0.9928755
0.9928846
0.9929278
0.9929746
0.993004
0.993013
0.9930098
0.9930021
0.9929922
0.9929876
0.9929795
0.9929681
0.9929518
0.992925
0.9928959
0.9928703
0.993762
0.9937353
0.9937201
0.9936768
0.9935468
0.9933643
0.993188
0.993084
0.9930593
0.9930954
0.993157
0.9931749
0.9931035
0.9929885
0.9928858
0.9928431
0.9928713
0.9929442
0.9930239
0.9930844
0.9931183
0.9931306
0.9931261
0.9931188
0.9931067
0.9930898
0.9930585
0.993014
0.9929518
0.9928793
0.9937371
0.9936938
0.9936728
0.9936421
0.9935528
0.9934138
0.993265
0.9931612
0.9931258
0.9931454
0.9931867
0.993196
0.9931455
0.9930453
0.9929327
0.9928544
0.9928413
0.992894
0.9929878
0.9930892
0.9931724
0.9932261
0.9932501
0.9932489
0.9932404
0.9932283
0.993201
0.9931596
0.9930853
0.992978
0.993723
0.9936593
0.9936242
0.9935968
0.9935389
0.9934441
0.9933325
0.9932429
0.9932001
0.9931981
0.9932097
0.9931943
0.9931342
0.9930396
0.9929406
0.9928716
0.9928562
0.9928983
0.9929854
0.9930946
0.9932015
0.9932868
0.9933389
0.9933541
0.9933523
0.9933464
0.9933316
0.9933082
0.9932481
0.9931372
0.9937241
0.9936401
0.9935833
0.9935466
0.9935038
0.9934429
0.9933679
0.9933007
0.993258
0.9932388
0.9932193
0.9931701
0.9930908
0.993
0.9929248
0.9928884
0.992901
0.9929594
0.9930511
0.9931593
0.9932671
0.9933593
0.9934216
0.9934458
0.9934492
0.9934454
0.9934367
0.9934309
0.9933971
0.9933122
0.993737
0.993641
0.9935607
0.9935039
0.993457
0.9934108
0.9933595
0.9933092
0.9932675
0.9932315
0.9931778
0.9931026
0.9930211
0.9929555
0.9929249
0.9929382
0.992993
0.9930791
0.9931827
0.9932899
0.993389
0.9934703
0.9935219
0.993545
0.9935478
0.9935422
0.9935293
0.9935316
0.9935151
0.9934562
0.9937517
0.9936601
0.9935642
0.9934839
0.9934179
0.9933644
0.9933157
0.9932677
0.9932184
0.9931603
0.9930866
0.9930183
0.9929733
0.9929641
0.992995
0.9930618
0.993155
0.9932617
0.99337
0.993469
0.9935516
0.9936122
0.9936451
0.9936597
0.9936603
0.9936524
0.9936303
0.9936322
0.9936171
0.9935552
0.9936814
0.9935885
0.9934939
0.9934139
0.9933378
0.9932718
0.9932091
0.9931439
0.993078
0.9930338
0.9930194
0.9930397
0.9930935
0.993175
0.9932753
0.9933845
0.9934918
0.993589
0.9936684
0.9937274
0.9937641
0.9937864
0.9937944
0.9937946
0.993784
0.9937562
0.9937497
0.9937258
0.9937541
0.9936622
0.9935862
0.9934723
0.9933763
0.9932902
0.9932204
0.9931745
0.9931549
0.9931655
0.9932035
0.9932662
0.9933485
0.993444
0.993545
0.993644
0.9937322
0.9938053
0.993859
0.9938952
0.9939201
0.9939372
0.9939453
0.9939486
0.9939198
0.9939211
0.9938828
0.9938327
0.9938412
0.9937788
0.9937066
0.9936344
0.9935475
0.9934819
0.9934407
0.9934223
0.9934277
0.9934559
0.993503
0.9935683
0.9936456
0.9937287
0.9938108
0.9938856
0.9939459
0.9939913
0.9940234
0.9940457
0.9940749
0.9940929
0.994102
0.9941086
0.9940823
0.9940658
0.9940179
0.993938
0.9938426
0.9937957
0.9937663
0.9937379
0.9937
0.9936784
0.9936759
0.993693
0.993728
0.993779
0.993842
0.9939093
0.9939755
0.9940344
0.9940817
0.9941148
0.9941371
0.9941582
0.994179
0.9942132
0.9942281
0.9942336
0.9942266
0.994227
0.9941911
0.9941354
0.9938958
0.9938762
0.9938678
0.9938652
0.9938653
0.9938818
0.9939125
0.9939566
0.9940116
0.9940706
0.9941255
0.994171
0.9942041
0.9942252
0.9942382
0.9942479
0.9942636
0.9942828
0.9943148
0.9943182
0.9943112
0.9943159
0.9943018
0.9942742
0.9939657
0.9939682
0.9939796
0.9939978
0.9940279
0.994068
0.9941097
0.9941587
0.9942111
0.994259
0.994294
0.9943137
0.9943226
0.994324
0.9943214
0.9943221
0.9943348
0.9943493
0.9943696
0.9943581
0.9943533
0.9943466
0.9943334
0.9943056
0.9940614
0.9941024
0.9941262
0.9941883
0.9942396
0.9942888
0.9943355
0.9943752
0.9944019
0.9944102
0.9944043
0.9943933
0.9943795
0.9943659
0.9943597
0.9943689
0.9943793
0.9943884
0.9943739
0.9943643
0.9943529
0.9943416
0.9942308
0.994266
0.9943382
0.9943947
0.9944353
0.9944589
0.9944876
0.9944896
0.9944733
0.994448
0.9944239
0.9944005
0.9943805
0.9943703
0.9943783
0.9943912
0.994401
0.9943814
0.9943683
0.9943607
0.9944687
0.9945156
0.9945218
0.9945402
0.9945418
0.9945239
0.9944919
0.9944567
0.9944268
0.9944001
0.9943789
0.9943681
0.9943781
0.9944025
0.9944196
0.994409
0.9945863
0.9945778
0.9945745
0.994557
0.9945285
0.9944882
0.9944486
0.9944178
0.9943927
0.9943748
0.9943656
0.9943802
0.9944183
0.9944624
0.9945582
0.9945195
0.9944752
0.9944346
0.9944062
0.9943863
0.9943762
0.9943874
0.9927925
0.9927024
0.9926349
0.9925649
0.9924615
0.9923271
0.9934713
0.9932126
0.9929953
0.9927846
0.9926905
0.992612
0.992549
0.9924776
0.9923701
0.9922242
0.9920343
0.991909
0.9918211
0.9917868
0.9937518
0.9935349
0.9933818
0.9931308
0.9929249
0.9927266
0.9925994
0.9925163
0.9924538
0.9923831
0.9922793
0.9921416
0.9919829
0.9918851
0.9918324
0.9918312
0.9918766
0.9918905
0.9938183
0.9936951
0.9934946
0.9933233
0.9930516
0.9928337
0.9926462
0.9924956
0.9924019
0.9923359
0.9922654
0.9921702
0.9920546
0.9919479
0.9918753
0.9918595
0.9919033
0.9919792
0.9920642
0.9921674
0.9938866
0.9937822
0.9936476
0.9934582
0.993243
0.9929817
0.9927665
0.9925731
0.992418
0.9923118
0.9922381
0.9921663
0.9920804
0.9919872
0.9919094
0.9918688
0.9918876
0.9919703
0.9920959
0.9922303
0.9924179
0.9926052
0.9939275
0.9938571
0.9937537
0.9935877
0.9933893
0.9931738
0.9929275
0.9927231
0.9925355
0.9923805
0.9922615
0.9921737
0.9920956
0.9920156
0.9919414
0.9918887
0.9918734
0.9919139
0.9920196
0.9921716
0.9923548
0.9925807
0.9928271
0.9929782
0.9939505
0.9939015
0.9938342
0.9937049
0.9935289
0.9933311
0.9931195
0.9928938
0.9927102
0.992542
0.9923949
0.9922685
0.9921651
0.9920756
0.9919947
0.9919306
0.9918919
0.991887
0.9919313
0.992041
0.992201
0.9923998
0.9926453
0.9928958
0.9930585
0.9930577
0.9939545
0.9939351
0.9938895
0.9937991
0.9936576
0.9934766
0.9932813
0.9930825
0.9928889
0.9927359
0.9925946
0.9924629
0.9923382
0.9922241
0.9921223
0.9920343
0.9919671
0.9919221
0.9919105
0.9919438
0.9920367
0.9921849
0.992373
0.9926087
0.9928634
0.9930567
0.9930511
0.9929062
0.9939426
0.9939405
0.9939229
0.9938704
0.9937632
0.9936134
0.9934259
0.993237
0.9930608
0.9929052
0.9927859
0.9926739
0.9925612
0.9924447
0.9923296
0.9922204
0.9921216
0.9920444
0.9919934
0.9919746
0.9919945
0.9920621
0.9921769
0.9923287
0.9925177
0.9927231
0.9929025
0.9930239
0.9929207
0.9928444
0.9939374
0.9939292
0.9939051
0.9938407
0.9937256
0.9935641
0.9933661
0.9931842
0.9930332
0.9929127
0.9928273
0.9927497
0.9926673
0.9925741
0.9924731
0.9923695
0.9922695
0.9921848
0.9921258
0.9920955
0.9921003
0.9921447
0.9922266
0.9923416
0.9924838
0.9926383
0.9928084
0.9929195
0.9929787
0.9929235
0.9939646
0.9939184
0.9939071
0.9938781
0.9938076
0.9936857
0.9935022
0.9932804
0.9931022
0.9929717
0.9928825
0.9928286
0.9927869
0.992743
0.9926839
0.9926102
0.9925314
0.9924466
0.9923693
0.9923102
0.9922755
0.9922736
0.9923026
0.9923601
0.9924425
0.9925479
0.9926676
0.9927837
0.9928984
0.9929768
0.9930182
0.993026
0.9939376
0.9938983
0.9938789
0.9938451
0.9937757
0.9936452
0.9934274
0.993177
0.9930114
0.9929063
0.9928487
0.9928201
0.9928024
0.9927847
0.9927601
0.9927236
0.9926749
0.9926095
0.9925605
0.9925198
0.9924971
0.9925002
0.9925306
0.9925777
0.9926404
0.9927175
0.9928052
0.9928806
0.9929481
0.9930168
0.993048
0.993069
0.9939211
0.993873
0.9938455
0.9938105
0.9937442
0.9936078
0.9933666
0.9930966
0.9929506
0.9928756
0.9928419
0.9928274
0.9928197
0.9928142
0.992809
0.9928034
0.9927924
0.9927682
0.9927416
0.9927193
0.9927177
0.9927362
0.9927747
0.9928145
0.9928495
0.9928815
0.9929183
0.9929533
0.9929896
0.9930419
0.9930493
0.9930747
0.9939067
0.9938455
0.9938074
0.9937727
0.9937131
0.9935817
0.993342
0.9930709
0.9929285
0.9928782
0.9928602
0.9928507
0.9928396
0.9928264
0.9928094
0.9928052
0.9928165
0.9928322
0.992842
0.9928443
0.992844
0.992847
0.9928531
0.9928554
0.9928602
0.9928675
0.9928778
0.9928911
0.9929055
0.9929387
0.9929584
0.9930051
0.9940314
0.9939107
0.9938237
0.9937675
0.9937316
0.9936807
0.9935658
0.9933491
0.9930973
0.9929462
0.9929051
0.992919
0.9929334
0.9929219
0.9928806
0.9928187
0.9927796
0.9927839
0.9928223
0.9928687
0.9929025
0.9929174
0.9929193
0.9929154
0.9929093
0.9929061
0.9929038
0.9928997
0.9928887
0.9928697
0.9928507
0.99284
0.992844
0.9928411
0.9940104
0.9939053
0.9938066
0.9937326
0.9936886
0.9936442
0.9935522
0.993374
0.9931544
0.9929995
0.992948
0.992973
0.9930317
0.9930614
0.9929948
0.9928863
0.9927882
0.9927436
0.9927653
0.9928335
0.9929142
0.9929806
0.9930221
0.9930406
0.9930423
0.9930371
0.9930308
0.9930223
0.9929995
0.9929578
0.9929001
0.9928337
0.9927835
0.9927467
0.9939887
0.9938967
0.9937944
0.9937044
0.9936466
0.9936026
0.9935326
0.9933989
0.9932233
0.9930799
0.9930134
0.9930211
0.9930627
0.9930812
0.9930398
0.9929463
0.9928369
0.992757
0.9927384
0.9927852
0.9928768
0.9929819
0.993073
0.9931349
0.993165
0.9931705
0.9931686
0.9931671
0.9931537
0.9931164
0.9930456
0.9929367
0.9928401
0.992737
0.9939674
0.9938911
0.9937907
0.9936871
0.9936111
0.9935586
0.9935024
0.9934088
0.9932809
0.993164
0.9930943
0.9930783
0.9930885
0.9930817
0.9930323
0.9929453
0.9928487
0.9927772
0.9927566
0.9927942
0.9928799
0.9929921
0.9931058
0.9931989
0.9932575
0.9932809
0.9932872
0.9932942
0.993298
0.9932839
0.9932304
0.9931135
0.9929878
0.9928121
0.9939427
0.9938853
0.9937945
0.9936843
0.9935897
0.9935199
0.9934639
0.9933965
0.9933093
0.9932234
0.9931621
0.99313
0.9931112
0.9930703
0.9929993
0.9929129
0.9928375
0.9927975
0.9928061
0.9928626
0.9929557
0.9930686
0.9931831
0.9932816
0.9933494
0.9933821
0.9933946
0.9934059
0.99342
0.9934273
0.993404
0.9933142
0.9931987
0.9929919
0.9939139
0.9938654
0.9937963
0.9936932
0.9935875
0.9934973
0.9934273
0.9933662
0.9933021
0.9932387
0.9931858
0.9931418
0.9930909
0.9930204
0.9929421
0.9928764
0.9928432
0.9928534
0.9929071
0.992995
0.9931031
0.9932165
0.9933218
0.9934082
0.9934661
0.993496
0.9935093
0.9935216
0.9935369
0.9935523
0.9935479
0.9934925
0.9934154
0.9932273
0.9938352
0.9937904
0.9937122
0.9936067
0.9935015
0.9934103
0.9933358
0.9932711
0.9932116
0.993155
0.9930942
0.9930205
0.9929524
0.9929059
0.9928943
0.9929233
0.9929902
0.9930859
0.9931973
0.9933111
0.9934157
0.9935028
0.993568
0.9936088
0.9936311
0.9936442
0.9936573
0.9936697
0.9936814
0.9936763
0.9936393
0.9935997
0.9938462
0.9938133
0.9937414
0.9936442
0.9935373
0.9934317
0.9933358
0.993252
0.9931768
0.9931039
0.993036
0.9929884
0.9929711
0.9929885
0.9930407
0.9931228
0.9932258
0.9933388
0.9934501
0.9935505
0.993633
0.9936949
0.9937387
0.9937675
0.9937863
0.9938014
0.9938159
0.9938258
0.9938262
0.9937931
0.9937761
0.9937268
0.9938753
0.9938416
0.9937882
0.993706
0.9936107
0.9935047
0.9933988
0.9933028
0.9932249
0.9931721
0.993145
0.9931469
0.9931782
0.9932372
0.9933188
0.9934158
0.9935191
0.9936194
0.993708
0.9937805
0.9938351
0.9938735
0.9939055
0.9939307
0.9939507
0.9939684
0.9939826
0.9939916
0.9939787
0.9939239
0.9938938
0.9938358
0.9939095
0.9938773
0.9938499
0.9937963
0.9937258
0.9936516
0.9935775
0.9935104
0.9934592
0.9934296
0.9934248
0.9934457
0.9934906
0.9935559
0.9936348
0.9937192
0.9938006
0.9938722
0.9939291
0.9939718
0.9940037
0.994028
0.994058
0.9940822
0.9941009
0.9941169
0.9941326
0.9941323
0.9941103
0.9940577
0.9940061
0.9939301
0.9939208
0.9938997
0.9938688
0.9938232
0.9937751
0.9937333
0.9936994
0.9936788
0.9936757
0.9936921
0.993729
0.9937824
0.9938467
0.9939139
0.9939764
0.994029
0.9940691
0.9940963
0.994116
0.9941342
0.9941516
0.9941782
0.9941945
0.9942051
0.9942158
0.9942314
0.9942224
0.9941891
0.9941504
0.9941037
0.9939551
0.9939454
0.9939317
0.9939097
0.9938872
0.9938728
0.993869
0.9938773
0.9938986
0.9939324
0.9939806
0.9940353
0.9940896
0.9941364
0.994171
0.9941934
0.994205
0.9942095
0.994214
0.9942227
0.9942325
0.9942478
0.9942511
0.9942514
0.9942578
0.9942733
0.9942599
0.9942332
0.9942015
0.9941615
0.9939986
0.9939908
0.9939922
0.9940025
0.9940142
0.9940393
0.9940718
0.9941099
0.9941505
0.9941994
0.9942426
0.9942755
0.9942941
0.9942988
0.994295
0.994285
0.9942731
0.9942668
0.9942665
0.9942662
0.9942672
0.9942636
0.9942649
0.9942745
0.9942935
0.9942737
0.9942487
0.9942285
0.9940553
0.994085
0.9941229
0.9941651
0.9942134
0.9942593
0.9942991
0.9943313
0.99437
0.9943908
0.9943953
0.9943853
0.9943652
0.9943427
0.9943181
0.9942955
0.9942807
0.9942717
0.9942669
0.9942734
0.9942797
0.9942874
0.994301
0.9943065
0.9942732
0.9942574
0.9941848
0.9942633
0.9943075
0.994379
0.9944213
0.9944482
0.9944598
0.9944797
0.9944735
0.9944513
0.9944191
0.9943827
0.9943494
0.9943166
0.994289
0.9942756
0.9942729
0.9942798
0.9943048
0.9943284
0.9943426
0.9943366
0.9943294
0.9942922
0.9943853
0.9944461
0.9945133
0.99453
0.9945487
0.9945371
0.9945374
0.994508
0.9944672
0.9944234
0.9943809
0.994345
0.9943125
0.9942888
0.9942867
0.9942988
0.9943243
0.9943752
0.9943936
0.9944148
0.994385
0.9943697
0.9945568
0.9945979
0.994612
0.994604
0.9945831
0.9945688
0.9945262
0.994475
0.9944274
0.9943842
0.9943513
0.994325
0.9943099
0.9943272
0.9943592
0.994404
0.9944576
0.9944745
0.9944946
0.994457
0.9946632
0.9946524
0.9946383
0.9946079
0.9945919
0.9945381
0.9944939
0.9944484
0.9944081
0.994382
0.9943651
0.9943573
0.9943785
0.9944276
0.9944841
0.994545
0.9945564
0.9945924
0.9946688
0.994627
0.9946067
0.994547
0.9945168
0.9944782
0.9944418
0.9944228
0.994415
0.9944087
0.9944255
0.9944957
0.9945724
0.9946712
0.9945639
0.9945228
0.9944891
0.9944773
0.994482
0.9945066
0.9933282
0.9931242
0.9929396
0.9928333
0.9927525
0.9926858
0.9925959
0.9924645
0.9923049
0.9921642
0.9937671
0.9936134
0.9933804
0.9932098
0.9930124
0.9928211
0.9927077
0.9926312
0.9925613
0.9924601
0.9923107
0.9921568
0.9919955
0.9918425
0.9917797
0.9917461
0.9938187
0.9937151
0.9935377
0.9932834
0.9930748
0.9928459
0.9926661
0.9925146
0.9924334
0.9923599
0.9922611
0.9921496
0.9920121
0.9918873
0.9917873
0.9917541
0.9917424
0.9917573
0.9939737
0.9938855
0.9937742
0.9936258
0.9934394
0.9931715
0.9929262
0.9926622
0.9924601
0.992311
0.9922273
0.9921505
0.992054
0.9919503
0.9918451
0.9917684
0.9917316
0.9917557
0.9917916
0.991848
0.991927
0.9919681
0.9939693
0.9939372
0.9938485
0.9937072
0.9935339
0.9933324
0.993065
0.9927964
0.9925084
0.9922896
0.9921403
0.9920535
0.9919739
0.9918828
0.991796
0.9917267
0.9916971
0.9917146
0.9917845
0.9918818
0.9920095
0.9921458
0.9923193
0.9924702
0.993959
0.9939395
0.9938957
0.9937796
0.9936219
0.9934452
0.993235
0.99297
0.9926978
0.9924082
0.9921761
0.9920214
0.9919277
0.991845
0.9917622
0.9916972
0.9916638
0.991678
0.991744
0.9918614
0.9920151
0.9922044
0.9924217
0.9926277
0.9928401
0.9928866
0.9939375
0.9939352
0.9939076
0.9938325
0.9936936
0.9935407
0.9933657
0.9931518
0.9928929
0.9926305
0.9923585
0.9921316
0.9919661
0.9918567
0.9917665
0.9916887
0.9916427
0.9916388
0.9916869
0.9917889
0.9919441
0.9921409
0.9923734
0.9926255
0.9928476
0.9929353
0.9928712
0.992743
0.9939498
0.9939303
0.9939144
0.9938587
0.993755
0.9936207
0.9934736
0.9932989
0.9930837
0.992837
0.9925984
0.9923596
0.9921515
0.9919835
0.9918572
0.9917527
0.9916681
0.9916262
0.9916275
0.9916867
0.9918059
0.991983
0.9922036
0.9924563
0.9927132
0.9929007
0.992924
0.9928142
0.9926848
0.9926215
0.9939424
0.9939193
0.9938795
0.9937983
0.9936951
0.9935681
0.9934218
0.9932431
0.9930305
0.9928064
0.9926023
0.9924037
0.9922207
0.9920583
0.9919222
0.991804
0.9917031
0.9916412
0.9916356
0.9916903
0.9918045
0.9919761
0.9921926
0.9924431
0.9927015
0.992884
0.9928999
0.9927863
0.9926871
0.9926367
0.9939884
0.993928
0.9938892
0.9938303
0.9937516
0.9936542
0.9935309
0.993378
0.9931912
0.9929906
0.9928037
0.9926462
0.9924955
0.9923469
0.9922001
0.9920613
0.9919334
0.9918213
0.9917419
0.9917128
0.9917391
0.9918204
0.9919551
0.9921336
0.9923498
0.9925892
0.9928012
0.9928935
0.9928398
0.9927386
0.9927206
0.9927607
0.9940973
0.9940011
0.9939218
0.9938528
0.9937888
0.993716
0.993625
0.9934986
0.9933267
0.9931344
0.9929558
0.9928104
0.9927
0.9925983
0.9924926
0.9923771
0.9922551
0.992133
0.9920184
0.9919265
0.9918743
0.9918683
0.9919106
0.9919992
0.9921265
0.9922849
0.9924657
0.9926494
0.9928251
0.99289
0.9928556
0.9928143
0.9928153
0.9928309
0.9940897
0.993991
0.9939027
0.9938203
0.9937545
0.9936885
0.9936005
0.9934554
0.9932565
0.9930536
0.9928971
0.9927893
0.9927192
0.992663
0.9926048
0.992529
0.9924394
0.9923447
0.9922463
0.9921602
0.9921005
0.9920757
0.9920901
0.9921418
0.9922249
0.992333
0.9924613
0.9926029
0.9927428
0.9928615
0.9929304
0.9929463
0.99293
0.9928925
0.9940691
0.9939699
0.9938687
0.9937863
0.9937237
0.9936641
0.9935707
0.9934035
0.9931614
0.9929567
0.9928285
0.9927554
0.9927172
0.9926926
0.9926684
0.9926351
0.9925884
0.9925276
0.9924496
0.9923923
0.9923489
0.9923288
0.9923371
0.9923737
0.9924326
0.9925113
0.9926014
0.9926964
0.9927882
0.9928742
0.9929522
0.9930001
0.9930247
0.9929939
0.9942143
0.9941002
0.9939763
0.9938513
0.9937577
0.9936943
0.9936382
0.9935413
0.9933558
0.9930774
0.9928844
0.9927876
0.992744
0.992726
0.9927169
0.99271
0.9927027
0.9926929
0.9926762
0.9926455
0.9926138
0.9925874
0.9925859
0.9926061
0.9926459
0.9926916
0.9927331
0.992773
0.9928155
0.9928604
0.9929093
0.9929659
0.993007
0.993048
0.9930417
0.9930288
0.994194
0.9941077
0.9939783
0.9938402
0.993734
0.9936652
0.9936092
0.9935152
0.9933276
0.9930478
0.9928511
0.9927808
0.9927568
0.9927464
0.9927355
0.9927228
0.9927074
0.992702
0.992711
0.9927259
0.9927373
0.9927422
0.9927442
0.9927495
0.992757
0.9927635
0.9927722
0.9927841
0.9927995
0.9928179
0.9928409
0.9928771
0.9929176
0.9929801
0.9929809
0.9930016
0.9941446
0.9940722
0.9939596
0.9938246
0.9937123
0.9936363
0.9935787
0.9934923
0.9933203
0.9930639
0.9928694
0.9927994
0.9928028
0.9928116
0.9928005
0.9927677
0.9927123
0.9926748
0.9926762
0.9927114
0.9927582
0.9927961
0.9928166
0.9928231
0.9928221
0.9928187
0.9928176
0.9928187
0.9928188
0.9928117
0.9927985
0.9927884
0.9927904
0.9928229
0.992842
0.9928773
0.9941019
0.9940458
0.9939367
0.993811
0.9936954
0.9936098
0.9935474
0.9934704
0.9933255
0.9931069
0.9929215
0.9928414
0.9928499
0.9929003
0.9929357
0.9928756
0.9927731
0.9926798
0.9926349
0.9926528
0.9927183
0.9928006
0.9928722
0.9929196
0.9929424
0.9929473
0.9929445
0.9929418
0.9929375
0.9929183
0.9928781
0.992824
0.9927688
0.9927323
0.9927201
0.9927291
0.994041
0.9940033
0.9939106
0.9937979
0.9936833
0.9935878
0.9935169
0.9934466
0.993332
0.9931588
0.9929949
0.9929059
0.9928971
0.992933
0.992957
0.9929228
0.9928352
0.9927294
0.9926496
0.9926282
0.9926718
0.9927629
0.9928713
0.9929682
0.9930354
0.9930691
0.9930782
0.9930805
0.9930846
0.9930766
0.9930389
0.9929663
0.9928686
0.992779
0.9927059
0.9926763
0.9939827
0.9939581
0.9938797
0.993783
0.9936756
0.9935732
0.9934905
0.99342
0.9933303
0.9932021
0.9930696
0.9929824
0.9929536
0.9929593
0.9929572
0.9929167
0.9928374
0.9927447
0.9926734
0.9926506
0.9926861
0.9927717
0.9928867
0.993005
0.993103
0.9931653
0.9931926
0.9932037
0.993218
0.9932308
0.9932193
0.9931632
0.9930586
0.9929371
0.992798
0.9927013
0.9939302
0.9939108
0.9938421
0.9937603
0.9936678
0.9935668
0.9934729
0.9933942
0.9933168
0.9932231
0.993124
0.9930476
0.9930066
0.9929859
0.9929521
0.9928902
0.9928109
0.9927388
0.992699
0.9927068
0.9927631
0.9928578
0.9929738
0.993092
0.9931938
0.9932644
0.9933008
0.9933182
0.9933381
0.9933647
0.9933798
0.993358
0.993283
0.9931706
0.9930019
0.9928445
0.9938972
0.9938731
0.9938188
0.9937338
0.9936539
0.9935645
0.9934672
0.9933766
0.9932969
0.9932193
0.9931426
0.9930767
0.993027
0.9929797
0.9929161
0.9928448
0.9927839
0.992753
0.9927642
0.9928189
0.9929086
0.9930193
0.9931356
0.9932433
0.993331
0.9933906
0.993423
0.9934409
0.9934626
0.993493
0.9935199
0.9935219
0.9934834
0.9934063
0.9932701
0.9931083
0.9938754
0.9938481