/*--------------------------------*- C++ -*----------------------------------*\
  =========                 |
  \\      /  F ield         | OpenFOAM: The Open Source CFD Toolbox
   \\    /   O peration     | Website:  https://openfoam.org
    \\  /    A nd           | Version:  6
     \\/     M anipulation  |
\*---------------------------------------------------------------------------*/
FoamFile
{
    version     2.0;
    format      ascii;
    class       volScalarField;
    location    "49.8";
    object      rhoRhok;
}
// * * * * * * * * * * * * * * * * * * * * * * * * * * * * * * * * * * * * * //

dimensions      [1 -3 0 0 0 0 0];

internalField   nonuniform List<scalar> 
203709
(
3296.288
3296.091
3295.845
3295.755
3296.884
3296.823
3296.635
3296.506
3296.327
3296.182
3296.027
3296.173
3296.991
3296.97
3296.962
3296.948
3296.883
3296.811
3296.712
3296.632
3296.549
3296.595
3296.537
3296.664
3297.045
3297.029
3297.029
3297.027
3297.027
3297.021
3297.006
3296.974
3296.956
3296.936
3296.974
3296.984
3297.024
3297.119
3297.084
3297.065
3297.048
3297.034
3297.023
3297.027
3297.054
3297.083
3297.092
3297.097
3297.136
3297.159
3297.161
3297.196
3297.203
3297.2
3297.176
3297.141
3297.107
3297.022
3296.959
3296.986
3297.074
3297.138
3297.138
3297.091
3297.029
3296.97
3296.915
3296.911
3297.311
3297.39
3297.519
3297.667
3297.51
3297.224
3296.948
3296.834
3296.943
3297.157
3297.32
3297.372
3297.338
3297.265
3297.19
3297.126
3297.57
3297.443
3297.541
3297.715
3297.883
3297.873
3297.607
3297.178
3296.815
3296.727
3296.928
3297.246
3297.506
3297.632
3297.643
3297.587
3297.494
3297.495
3297.732
3297.647
3297.701
3297.828
3297.929
3297.889
3297.657
3297.279
3296.904
3296.7
3296.756
3297.029
3297.386
3297.69
3297.865
3297.909
3297.861
3297.74
3297.914
3297.841
3297.859
3297.924
3297.94
3297.817
3297.545
3297.192
3296.879
3296.718
3296.758
3296.977
3297.306
3297.652
3297.931
3298.092
3298.128
3298.042
3298.01
3297.966
3297.953
3297.949
3297.853
3297.629
3297.319
3297.013
3296.807
3296.757
3296.868
3297.103
3297.407
3297.726
3298.007
3298.207
3298.305
3298.243
3297.947
3297.896
3297.795
3297.582
3297.302
3297.032
3296.849
3296.803
3296.898
3297.106
3297.38
3297.674
3297.954
3298.191
3298.364
3298.446
3297.773
3297.626
3297.413
3297.172
3296.965
3296.85
3296.86
3296.994
3297.222
3297.503
3297.796
3298.066
3298.299
3298.475
3298.597
3298.582
3297.26
3297.06
3296.937
3296.915
3297.004
3297.194
3297.456
3297.754
3298.05
3298.317
3298.535
3298.708
3298.817
3298.86
3297.226
3297.115
3297.2
3297.355
3297.574
3297.846
3298.139
3298.424
3298.672
3298.876
3299.02
3299.134
3299.17
3299.088
3297.997
3297.991
3298.149
3298.38
3298.641
3298.891
3299.112
3299.281
3299.41
3299.488
3299.577
3299.505
3299.121
3299.15
3299.389
3299.581
3299.732
3299.827
3299.898
3299.871
3300.125
3300.168
3300.249
3300.241
3296.08
3295.666
3295.353
3295.068
3294.822
3294.594
3294.349
3294.081
3293.803
3293.644
3297.206
3296.604
3296.186
3295.879
3295.583
3295.285
3295.006
3294.755
3294.511
3294.269
3294.031
3293.848
3293.802
3293.893
3297.59
3297.229
3296.837
3296.494
3296.229
3295.958
3295.642
3295.312
3295.03
3294.79
3294.572
3294.351
3294.19
3294.124
3294.154
3294.342
3297.879
3297.562
3297.286
3297.021
3296.781
3296.588
3296.327
3296.067
3295.725
3295.425
3295.19
3294.894
3294.749
3294.638
3294.56
3294.574
3294.706
3294.919
3298.06
3297.671
3297.362
3297.132
3296.957
3296.841
3296.755
3296.615
3296.419
3296.17
3295.904
3295.618
3295.426
3295.284
3295.099
3295.072
3295.102
3295.193
3295.338
3295.534
3298.315
3297.785
3297.353
3297.106
3296.955
3296.847
3296.798
3296.78
3296.711
3296.63
3296.475
3296.302
3296.087
3295.915
3295.752
3295.692
3295.771
3295.717
3295.794
3295.91
3296.021
3296.177
3297.989
3297.487
3297.164
3296.991
3296.893
3296.838
3296.787
3296.768
3296.746
3296.723
3296.675
3296.598
3296.475
3296.395
3296.315
3296.289
3296.367
3296.558
3296.546
3296.617
3296.712
3296.758
3298.862
3297.987
3297.367
3297.104
3296.982
3296.926
3296.844
3296.798
3296.774
3296.761
3296.757
3296.77
3296.782
3296.763
3296.738
3296.73
3296.755
3296.828
3296.971
3296.941
3296.948
3296.959
3296.964
3296.957
3298.869
3298.067
3297.434
3297.149
3297.053
3296.992
3296.934
3296.891
3296.855
3296.787
3296.723
3296.727
3296.79
3296.849
3296.867
3296.849
3296.823
3296.801
3296.801
3296.773
3296.761
3296.742
3296.716
3296.692
3298.871
3298.223
3297.631
3297.278
3297.169
3297.147
3297.238
3297.328
3297.228
3297.004
3296.753
3296.624
3296.681
3296.85
3297.009
3297.09
3297.097
3297.063
3297.019
3296.976
3296.964
3296.9
3296.821
3296.725
3298.861
3298.383
3297.87
3297.526
3297.326
3297.322
3297.464
3297.651
3297.665
3297.41
3297.005
3296.65
3296.523
3296.653
3296.922
3297.186
3297.36
3297.436
3297.442
3297.366
3297.368
3297.295
3297.199
3297.061
3298.811
3298.496
3298.105
3297.781
3297.559
3297.522
3297.621
3297.738
3297.729
3297.528
3297.172
3296.791
3296.544
3296.533
3296.741
3297.068
3297.391
3297.63
3297.762
3297.806
3297.761
3297.718
3297.627
3297.496
3298.704
3298.52
3298.256
3298
3297.801
3297.731
3297.763
3297.792
3297.706
3297.47
3297.133
3296.802
3296.591
3296.569
3296.735
3297.036
3297.389
3297.713
3297.954
3298.093
3298.088
3298.067
3297.996
3297.897
3298.545
3298.444
3298.285
3298.112
3297.983
3297.888
3297.85
3297.774
3297.582
3297.294
3296.981
3296.74
3296.64
3296.705
3296.911
3297.213
3297.553
3297.879
3298.15
3298.342
3298.356
3298.356
3298.293
3298.212
3298.368
3298.288
3298.192
3298.081
3297.968
3297.864
3297.758
3297.571
3297.305
3297.027
3296.816
3296.731
3296.792
3296.982
3297.263
3297.587
3297.912
3298.205
3298.446
3298.576
3298.651
3298.624
3298.553
3298.464
3298.236
3298.111
3298.007
3297.899
3297.783
3297.647
3297.452
3297.205
3296.98
3296.84
3296.823
3296.937
3297.16
3297.458
3297.789
3298.119
3298.413
3298.654
3298.838
3298.87
3298.933
3298.896
3298.805
3298.69
3298.199
3297.998
3297.829
3297.674
3297.486
3297.324
3297.109
3296.968
3296.932
3297.013
3297.199
3297.466
3297.783
3298.122
3298.448
3298.746
3298.982
3299.151
3299.196
3299.281
3299.261
3299.187
3299.07
3298.902
3298.066
3297.821
3297.599
3297.393
3297.338
3297.254
3297.318
3297.461
3297.68
3297.952
3298.254
3298.565
3298.874
3299.144
3299.383
3299.538
3299.644
3299.62
3299.66
3299.615
3299.508
3299.361
3298.552
3298.31
3298.125
3298.037
3298.029
3298.148
3298.265
3298.388
3298.602
3298.84
3299.093
3299.345
3299.596
3299.778
3299.949
3300.012
3300.029
3300.091
3300.061
3300.005
3299.881
3299.627
3298.896
3298.824
3298.812
3298.839
3298.921
3299.067
3299.258
3299.446
3299.632
3299.834
3300.021
3300.213
3300.297
3300.35
3300.446
3300.439
3300.485
3300.5
3300.46
3300.315
3299.47
3299.455
3299.524
3299.61
3299.742
3299.91
3300.118
3300.289
3300.453
3300.574
3300.638
3300.737
3300.748
3300.781
3300.811
3300.922
3300.932
3300.851
3299.976
3300.094
3300.18
3300.357
3300.521
3300.671
3300.808
3300.923
3300.99
3301.014
3301.025
3301.053
3301.102
3301.127
3301.244
3301.193
3300.643
3300.679
3300.931
3301.064
3301.179
3301.255
3301.288
3301.293
3301.28
3301.26
3301.259
3301.297
3301.307
3301.375
3301.417
3301.494
3301.547
3301.549
3301.511
3301.463
3301.409
3301.359
3301.337
3301.366
3295.786
3295.417
3295.171
3294.977
3294.754
3294.425
3293.982
3293.495
3297.679
3296.777
3296.053
3295.632
3295.307
3295.066
3294.876
3294.662
3294.357
3293.948
3293.485
3293.219
3293.141
3293.237
3298.013
3297.456
3296.658
3296.003
3295.559
3295.234
3294.975
3294.771
3294.56
3294.285
3293.934
3293.546
3293.336
3293.3
3293.446
3293.845
3299.207
3298.499
3297.889
3297.294
3296.582
3296.052
3295.56
3295.22
3294.933
3294.698
3294.476
3294.222
3293.93
3293.621
3293.453
3293.413
3293.616
3294.017
3294.688
3295.315
3299.442
3299.056
3298.399
3297.785
3297.242
3296.558
3296.071
3295.649
3295.307
3294.99
3294.711
3294.46
3294.212
3293.965
3293.726
3293.584
3293.562
3293.743
3294.107
3294.651
3295.37
3296.125
3299.677
3299.352
3298.934
3298.284
3297.724
3297.173
3296.633
3296.238
3295.88
3295.55
3295.215
3294.896
3294.609
3294.349
3294.12
3293.921
3293.794
3293.758
3293.878
3294.155
3294.609
3295.147
3295.773
3296.067
3299.612
3299.259
3298.795
3298.158
3297.621
3297.178
3296.756
3296.453
3296.169
3295.885
3295.575
3295.246
3294.935
3294.658
3294.41
3294.204
3294.065
3294.021
3294.096
3294.304
3294.631
3295.074
3295.523
3295.911
3299.75
3299.495
3299.125
3298.572
3297.957
3297.472
3297.087
3296.761
3296.549
3296.359
3296.156
3295.916
3295.637
3295.343
3295.056
3294.801
3294.605
3294.458
3294.405
3294.463
3294.622
3294.897
3295.221
3295.554
3295.909
3296.171
3299.787
3299.672
3299.411
3298.921
3298.288
3297.665
3297.196
3296.858
3296.633
3296.512
3296.424
3296.321
3296.183
3295.986
3295.773
3295.533
3295.309
3295.124
3294.998
3294.982
3295.029
3295.159
3295.36
3295.644
3295.943
3296.161
3296.396
3296.595
3299.721
3299.601
3299.315
3298.743
3297.976
3297.351
3296.931
3296.681
3296.55
3296.484
3296.446
3296.408
3296.356
3296.269
3296.149
3295.975
3295.847
3295.73
3295.661
3295.682
3295.797
3295.917
3296.068
3296.265
3296.516
3296.658
3296.769
3296.872
3299.619
3299.518
3299.232
3298.545
3297.751
3297.141
3296.798
3296.634
3296.548
3296.505
3296.481
3296.466
3296.455
3296.452
3296.439
3296.387
3296.326
3296.277
3296.283
3296.349
3296.485
3296.572
3296.642
3296.704
3296.811
3296.866
3296.914
3297.01
3299.491
3299.464
3299.407
3299.158
3298.495
3297.719
3297.07
3296.777
3296.679
3296.626
3296.592
3296.553
3296.502
3296.441
3296.434
3296.481
3296.537
3296.563
3296.561
3296.55
3296.549
3296.563
3296.551
3296.554
3296.558
3296.569
3296.595
3296.595
3296.626
3296.62
3299.39
3299.339
3299.288
3299.089
3298.524
3297.808
3297.176
3296.86
3296.798
3296.872
3296.938
3296.887
3296.707
3296.479
3296.347
3296.377
3296.52
3296.676
3296.773
3296.803
3296.792
3296.767
3296.734
3296.719
3296.692
3296.654
3296.6
3296.511
3296.414
3296.329
3299.29
3299.201
3299.151
3299.007
3298.575
3297.97
3297.384
3297.039
3296.957
3297.077
3297.281
3297.341
3297.104
3296.722
3296.381
3296.239
3296.333
3296.575
3296.839
3297.04
3297.153
3297.193
3297.179
3297.154
3297.114
3297.058
3296.954
3296.807
3296.6
3296.359
3299.207
3299.063
3298.994
3298.892
3298.595
3298.134
3297.64
3297.295
3297.178
3297.243
3297.38
3297.411
3297.243
3296.91
3296.537
3296.277
3296.233
3296.408
3296.719
3297.056
3297.333
3297.511
3297.59
3297.586
3297.558
3297.518
3297.427
3297.29
3297.043
3296.687
3299.16
3298.949
3298.832
3298.741
3298.549
3298.234
3297.864
3297.566
3297.424
3297.418
3297.456
3297.405
3297.206
3296.892
3296.563
3296.334
3296.283
3296.423
3296.712
3297.074
3297.429
3297.712
3297.885
3297.936
3297.93
3297.91
3297.861
3297.783
3297.584
3297.215
3299.164
3298.885
3298.696
3298.575
3298.432
3298.23
3297.981
3297.758
3297.617
3297.553
3297.488
3297.325
3297.061
3296.76
3296.51
3296.389
3296.431
3296.625
3296.93
3297.289
3297.647
3297.953
3298.16
3298.24
3298.251
3298.239
3298.21
3298.191
3298.078
3297.796
3299.207
3298.888
3298.622
3298.433
3298.277
3298.124
3297.953
3297.787
3297.648
3297.529
3297.35
3297.101
3296.83
3296.612
3296.511
3296.555
3296.737
3297.023
3297.367
3297.722
3298.051
3298.321
3298.493
3298.569
3298.579
3298.56
3298.517
3298.525
3298.47
3298.275
3299.256
3298.951
3298.633
3298.367
3298.147
3297.97
3297.808
3297.649
3297.485
3297.292
3297.047
3296.821
3296.671
3296.641
3296.743
3296.965
3297.274
3297.629
3297.988
3298.317
3298.591
3298.793
3298.902
3298.95
3298.952
3298.926
3298.852
3298.859
3298.809
3298.603
3299.022
3298.714
3298.4
3298.134
3297.881
3297.662
3297.454
3297.238
3297.019
3296.872
3296.824
3296.892
3297.07
3297.341
3297.674
3298.036
3298.393
3298.715
3298.979
3299.175
3299.297
3299.371
3299.398
3299.398
3299.363
3299.271
3299.249
3299.17
3299.264
3298.958
3298.706
3298.328
3298.009
3297.724
3297.492
3297.339
3297.274
3297.309
3297.436
3297.644
3297.917
3298.234
3298.569
3298.898
3299.191
3299.434
3299.612
3299.732
3299.815
3299.871
3299.898
3299.909
3299.814
3299.818
3299.691
3299.525
3299.553
3299.346
3299.106
3298.866
3298.578
3298.36
3298.223
3298.162
3298.18
3298.273
3298.43
3298.647
3298.903
3299.179
3299.452
3299.7
3299.9
3300.051
3300.158
3300.232
3300.329
3300.388
3300.419
3300.441
3300.353
3300.298
3300.139
3299.874
3299.558
3299.402
3299.304
3299.21
3299.084
3299.012
3299.004
3299.061
3299.177
3299.346
3299.555
3299.779
3299.999
3300.194
3300.351
3300.461
3300.535
3300.605
3300.674
3300.788
3300.837
3300.855
3300.832
3300.834
3300.714
3300.53
3299.734
3299.669
3299.641
3299.633
3299.633
3299.687
3299.789
3299.936
3300.118
3300.314
3300.497
3300.648
3300.758
3300.828
3300.871
3300.903
3300.955
3301.019
3301.125
3301.136
3301.113
3301.129
3301.082
3300.99
3299.966
3299.974
3300.012
3300.073
3300.173
3300.306
3300.444
3300.607
3300.781
3300.94
3301.056
3301.122
3301.151
3301.156
3301.147
3301.149
3301.191
3301.24
3301.307
3301.269
3301.253
3301.231
3301.187
3301.095
3300.284
3300.42
3300.499
3300.705
3300.876
3301.039
3301.194
3301.326
3301.414
3301.442
3301.422
3301.386
3301.34
3301.295
3301.274
3301.305
3301.339
3301.369
3301.321
3301.29
3301.252
3301.214
3300.846
3300.963
3301.203
3301.391
3301.525
3301.604
3301.699
3301.706
3301.652
3301.567
3301.487
3301.41
3301.343
3301.309
3301.336
3301.379
3301.411
3301.346
3301.303
3301.278
3301.636
3301.792
3301.812
3301.873
3301.879
3301.819
3301.713
3301.596
3301.497
3301.408
3301.338
3301.302
3301.335
3301.416
3301.473
3301.438
3302.026
3301.998
3301.987
3301.929
3301.835
3301.701
3301.569
3301.467
3301.384
3301.324
3301.294
3301.342
3301.469
3301.615
3301.933
3301.805
3301.658
3301.523
3301.429
3301.363
3301.329
3301.366
3296.071
3295.772
3295.548
3295.316
3294.972
3294.526
3298.325
3297.466
3296.744
3296.045
3295.732
3295.472
3295.263
3295.026
3294.669
3294.184
3293.554
3293.138
3292.846
3292.732
3299.256
3298.536
3298.028
3297.194
3296.511
3295.852
3295.43
3295.154
3294.947
3294.712
3294.367
3293.91
3293.383
3293.059
3292.884
3292.88
3293.03
3293.077
3299.477
3299.068
3298.402
3297.833
3296.931
3296.208
3295.585
3295.085
3294.774
3294.555
3294.321
3294.005
3293.621
3293.267
3293.026
3292.973
3293.119
3293.371
3293.653
3293.996
3299.704
3299.357
3298.91
3298.281
3297.567
3296.699
3295.985
3295.343
3294.828
3294.475
3294.23
3293.992
3293.707
3293.397
3293.139
3293.004
3293.067
3293.341
3293.758
3294.205
3294.827
3295.449
3299.839
3299.606
3299.262
3298.711
3298.052
3297.337
3296.519
3295.841
3295.218
3294.703
3294.308
3294.017
3293.757
3293.492
3293.246
3293.071
3293.02
3293.154
3293.505
3294.01
3294.618
3295.368
3296.186
3296.688
3299.916
3299.753
3299.53
3299.1
3298.516
3297.859
3297.157
3296.408
3295.798
3295.239
3294.751
3294.331
3293.988
3293.691
3293.423
3293.209
3293.081
3293.065
3293.212
3293.576
3294.107
3294.767
3295.583
3296.414
3296.954
3296.952
3299.929
3299.865
3299.713
3299.413
3298.943
3298.342
3297.694
3297.034
3296.391
3295.883
3295.414
3294.977
3294.563
3294.184
3293.846
3293.554
3293.331
3293.181
3293.143
3293.253
3293.562
3294.054
3294.678
3295.461
3296.306
3296.948
3296.93
3296.449
3299.889
3299.882
3299.824
3299.65
3299.294
3298.796
3298.174
3297.547
3296.962
3296.445
3296.049
3295.677
3295.303
3294.916
3294.534
3294.172
3293.844
3293.588
3293.418
3293.356
3293.422
3293.646
3294.027
3294.531
3295.159
3295.841
3296.436
3296.839
3296.497
3296.243
3299.872
3299.845
3299.765
3299.551
3299.169
3298.633
3297.976
3297.371
3296.87
3296.47
3296.187
3295.929
3295.655
3295.346
3295.011
3294.667
3294.335
3294.054
3293.858
3293.757
3293.773
3293.921
3294.192
3294.574
3295.046
3295.559
3296.124
3296.493
3296.689
3296.506
3299.963
3299.809
3299.772
3299.675
3299.441
3299.036
3298.427
3297.691
3297.099
3296.666
3296.37
3296.191
3296.053
3295.907
3295.711
3295.466
3295.204
3294.923
3294.666
3294.47
3294.355
3294.348
3294.445
3294.636
3294.909
3295.259
3295.657
3296.042
3296.423
3296.683
3296.82
3296.846
3299.873
3299.742
3299.678
3299.566
3299.335
3298.902
3298.179
3297.348
3296.798
3296.449
3296.258
3296.163
3296.104
3296.045
3295.964
3295.842
3295.681
3295.463
3295.301
3295.166
3295.09
3295.101
3295.202
3295.358
3295.566
3295.822
3296.113
3296.364
3296.588
3296.816
3296.919
3296.989
3299.818
3299.658
3299.567
3299.451
3299.231
3298.778
3297.977
3297.081
3296.596
3296.347
3296.235
3296.187
3296.161
3296.143
3296.126
3296.107
3296.071
3295.99
3295.902
3295.828
3295.823
3295.884
3296.012
3296.144
3296.26
3296.367
3296.489
3296.605
3296.725
3296.899
3296.924
3297.008
3299.77
3299.567
3299.441
3299.325
3299.128
3298.691
3297.895
3296.995
3296.523
3296.356
3296.296
3296.264
3296.228
3296.184
3296.127
3296.113
3296.151
3296.203
3296.235
3296.243
3296.242
3296.252
3296.272
3296.28
3296.296
3296.32
3296.354
3296.398
3296.446
3296.557
3296.622
3296.777
3300.184
3299.784
3299.495
3299.308
3299.189
3299.02
3298.638
3297.919
3297.083
3296.581
3296.445
3296.491
3296.539
3296.501
3296.364
3296.158
3296.028
3296.043
3296.17
3296.324
3296.436
3296.486
3296.492
3296.479
3296.459
3296.448
3296.441
3296.427
3296.391
3296.327
3296.264
3296.229
3296.242
3296.232
3300.115
3299.766
3299.438
3299.192
3299.046
3298.899
3298.593
3298.002
3297.273
3296.758
3296.587
3296.67
3296.865
3296.964
3296.743
3296.382
3296.057
3295.909
3295.981
3296.207
3296.475
3296.696
3296.833
3296.895
3296.901
3296.883
3296.862
3296.834
3296.758
3296.62
3296.428
3296.208
3296.041
3295.919
3300.042
3299.737
3299.397
3299.098
3298.907
3298.761
3298.528
3298.084
3297.501
3297.025
3296.804
3296.83
3296.968
3297.03
3296.892
3296.582
3296.219
3295.953
3295.891
3296.047
3296.351
3296.7
3297.002
3297.208
3297.308
3297.326
3297.32
3297.315
3297.27
3297.146
3296.911
3296.55
3296.229
3295.887
3299.972
3299.719
3299.385
3299.041
3298.789
3298.615
3298.428
3298.117
3297.693
3297.304
3297.073
3297.02
3297.054
3297.031
3296.867
3296.579
3296.258
3296.02
3295.952
3296.077
3296.361
3296.734
3297.111
3297.421
3297.615
3297.693
3297.714
3297.737
3297.749
3297.703
3297.525
3297.137
3296.719
3296.136
3299.89
3299.699
3299.398
3299.032
3298.718
3298.486
3298.3
3298.076
3297.787
3297.502
3297.298
3297.192
3297.129
3296.993
3296.758
3296.471
3296.221
3296.088
3296.116
3296.304
3296.613
3296.988
3297.368
3297.695
3297.92
3298.029
3298.07
3298.107
3298.154
3298.179
3298.101
3297.803
3297.42
3296.733
3299.794
3299.633
3299.404
3299.061
3298.711
3298.411
3298.179
3297.976
3297.763
3297.552
3297.377
3297.231
3297.062
3296.828
3296.568
3296.35
3296.239
3296.273
3296.452
3296.743
3297.102
3297.479
3297.829
3298.115
3298.307
3298.407
3298.451
3298.492
3298.542
3298.594
3298.579
3298.395
3298.139
3297.514
3299.533
3299.384
3299.124
3298.774
3298.425
3298.122
3297.875
3297.66
3297.463
3297.275
3297.073
3296.828
3296.602
3296.448
3296.409
3296.505
3296.728
3297.045
3297.415
3297.793
3298.14
3298.429
3298.646
3298.781
3298.855
3298.899
3298.942
3298.983
3299.022
3299.005
3298.882
3298.751
3299.569
3299.46
3299.221
3298.899
3298.544
3298.193
3297.875
3297.597
3297.347
3297.105
3296.88
3296.722
3296.664
3296.722
3296.895
3297.168
3297.51
3297.885
3298.254
3298.588
3298.862
3299.067
3299.212
3299.308
3299.37
3299.421
3299.469
3299.502
3299.503
3299.393
3299.337
3299.173
3299.666
3299.554
3299.377
3299.104
3298.788
3298.436
3298.084
3297.765
3297.507
3297.331
3297.242
3297.248
3297.352
3297.547
3297.818
3298.141
3298.484
3298.816
3299.111
3299.351
3299.533
3299.66
3299.766
3299.85
3299.916
3299.975
3300.022
3300.052
3300.009
3299.827
3299.727
3299.535
3299.78
3299.673
3299.582
3299.404
3299.169
3298.923
3298.677
3298.455
3298.285
3298.186
3298.17
3298.24
3298.389
3298.606
3298.868
3299.148
3299.418
3299.656
3299.845
3299.986
3300.092
3300.173
3300.273
3300.353
3300.415
3300.468
3300.52
3300.519
3300.446
3300.272
3300.1
3299.848
3299.817
3299.747
3299.644
3299.493
3299.333
3299.195
3299.082
3299.014
3299.003
3299.058
3299.18
3299.358
3299.571
3299.794
3300.002
3300.176
3300.309
3300.4
3300.465
3300.525
3300.583
3300.672
3300.726
3300.761
3300.797
3300.848
3300.818
3300.708
3300.579
3300.424
3299.931
3299.899
3299.853
3299.78
3299.706
3299.658
3299.645
3299.672
3299.743
3299.856
3300.016
3300.197
3300.378
3300.533
3300.648
3300.722
3300.761
3300.775
3300.791
3300.819
3300.852
3300.903
3300.914
3300.915
3300.936
3300.987
3300.943
3300.854
3300.749
3300.616
3300.075
3300.049
3300.054
3300.088
3300.127
3300.211
3300.318
3300.445
3300.58
3300.742
3300.885
3300.995
3301.057
3301.072
3301.059
3301.026
3300.987
3300.966
3300.965
3300.964
3300.967
3300.955
3300.959
3300.991
3301.054
3300.989
3300.906
3300.839
3300.264
3300.362
3300.488
3300.628
3300.789
3300.941
3301.073
3301.18
3301.308
3301.378
3301.393
3301.359
3301.292
3301.218
3301.136
3301.061
3301.012
3300.982
3300.966
3300.988
3301.009
3301.034
3301.079
3301.098
3300.987
3300.934
3300.694
3300.954
3301.101
3301.338
3301.479
3301.568
3301.606
3301.673
3301.652
3301.578
3301.471
3301.35
3301.24
3301.131
3301.039
3300.995
3300.986
3301.009
3301.092
3301.17
3301.217
3301.197
3301.174
3301.05
3301.359
3301.561
3301.784
3301.84
3301.902
3301.863
3301.864
3301.767
3301.631
3301.486
3301.345
3301.225
3301.118
3301.039
3301.032
3301.072
3301.157
3301.326
3301.387
3301.457
3301.358
3301.307
3301.929
3302.065
3302.112
3302.085
3302.016
3301.968
3301.827
3301.657
3301.499
3301.356
3301.246
3301.159
3301.109
3301.166
3301.272
3301.421
3301.599
3301.655
3301.722
3301.597
3302.282
3302.246
3302.199
3302.098
3302.045
3301.866
3301.72
3301.569
3301.435
3301.348
3301.292
3301.266
3301.337
3301.5
3301.687
3301.889
3301.927
3302.047
3302.301
3302.162
3302.094
3301.896
3301.796
3301.668
3301.547
3301.484
3301.458
3301.437
3301.493
3301.726
3301.98
3302.308
3301.952
3301.816
3301.704
3301.665
3301.68
3301.762
3297.85
3297.172
3296.559
3296.207
3295.938
3295.717
3295.418
3294.982
3294.452
3293.985
3299.307
3298.796
3298.023
3297.457
3296.801
3296.166
3295.79
3295.536
3295.303
3294.968
3294.472
3293.961
3293.425
3292.917
3292.709
3292.597
3299.478
3299.134
3298.545
3297.701
3297.008
3296.248
3295.651
3295.149
3294.879
3294.635
3294.307
3293.937
3293.48
3293.066
3292.734
3292.624
3292.585
3292.634
3299.993
3299.7
3299.33
3298.838
3298.219
3297.33
3296.515
3295.639
3294.968
3294.472
3294.195
3293.94
3293.619
3293.275
3292.926
3292.671
3292.549
3292.629
3292.748
3292.935
3293.198
3293.334
3299.978
3299.872
3299.577
3299.108
3298.532
3297.864
3296.976
3296.084
3295.128
3294.402
3293.906
3293.618
3293.353
3293.051
3292.763
3292.533
3292.434
3292.493
3292.725
3293.047
3293.472
3293.924
3294.5
3295.001
3299.944
3299.879
3299.734
3299.348
3298.825
3298.238
3297.54
3296.66
3295.757
3294.795
3294.025
3293.511
3293.2
3292.926
3292.65
3292.435
3292.324
3292.371
3292.59
3292.98
3293.49
3294.119
3294.84
3295.524
3296.229
3296.384
3299.873
3299.865
3299.773
3299.524
3299.063
3298.555
3297.974
3297.264
3296.404
3295.533
3294.63
3293.877
3293.328
3292.964
3292.665
3292.406
3292.254
3292.241
3292.4
3292.739
3293.254
3293.908
3294.68
3295.517
3296.254
3296.545
3296.332
3295.907
3299.913
3299.849
3299.796
3299.611
3299.267
3298.821
3298.332
3297.753
3297.038
3296.219
3295.427
3294.634
3293.943
3293.385
3292.966
3292.619
3292.338
3292.199
3292.203
3292.4
3292.796
3293.384
3294.116
3294.955
3295.808
3296.43
3296.508
3296.143
3295.714
3295.503
3299.889
3299.812
3299.68
3299.41
3299.068
3298.646
3298.16
3297.567
3296.861
3296.117
3295.439
3294.78
3294.173
3293.633
3293.182
3292.789
3292.454
3292.249
3292.23
3292.412
3292.791
3293.361
3294.079
3294.911
3295.769
3296.375
3296.428
3296.051
3295.721
3295.554
3300.041
3299.841
3299.712
3299.517
3299.255
3298.932
3298.523
3298.015
3297.395
3296.729
3296.108
3295.585
3295.085
3294.592
3294.104
3293.644
3293.219
3292.847
3292.583
3292.487
3292.574
3292.844
3293.291
3293.884
3294.601
3295.396
3296.1
3296.406
3296.228
3295.892
3295.833
3295.965
3300.403
3300.084
3299.82
3299.591
3299.379
3299.137
3298.835
3298.415
3297.845
3297.206
3296.613
3296.131
3295.764
3295.426
3295.075
3294.692
3294.287
3293.881
3293.501
3293.196
3293.023
3293.003
3293.143
3293.437
3293.86
3294.386
3294.986
3295.596
3296.179
3296.395
3296.281
3296.143
3296.147
3296.199
3300.378
3300.05
3299.757
3299.484
3299.265
3299.046
3298.754
3298.272
3297.612
3296.938
3296.418
3296.06
3295.828
3295.641
3295.448
3295.196
3294.899
3294.584
3294.258
3293.972
3293.774
3293.691
3293.739
3293.911
3294.187
3294.546
3294.971
3295.442
3295.906
3296.3
3296.529
3296.582
3296.528
3296.403
3300.309
3299.98
3299.644
3299.37
3299.163
3298.965
3298.655
3298.1
3297.296
3296.616
3296.191
3295.948
3295.821
3295.74
3295.659
3295.549
3295.394
3295.192
3294.933
3294.742
3294.598
3294.532
3294.559
3294.681
3294.876
3295.137
3295.437
3295.752
3296.057
3296.342
3296.601
3296.76
3296.842
3296.74
3300.791
3300.413
3300.001
3299.586
3299.276
3299.065
3298.879
3298.557
3297.941
3297.017
3296.376
3296.055
3295.91
3295.85
3295.82
3295.797
3295.773
3295.74
3295.685
3295.583
3295.478
3295.39
3295.385
3295.452
3295.585
3295.736
3295.874
3296.006
3296.148
3296.297
3296.459
3296.647
3296.783
3296.919
3296.898
3296.856
3300.724
3300.437
3300.008
3299.549
3299.197
3298.968
3298.783
3298.47
3297.848
3296.919
3296.266
3296.032
3295.953
3295.918
3295.882
3295.84
3295.789
3295.771
3295.801
3295.85
3295.888
3295.904
3295.911
3295.928
3295.953
3295.975
3296.004
3296.043
3296.094
3296.155
3296.232
3296.352
3296.486
3296.694
3296.697
3296.765
3300.56
3300.32
3299.946
3299.498
3299.125
3298.873
3298.681
3298.394
3297.824
3296.972
3296.326
3296.094
3296.105
3296.135
3296.098
3295.989
3295.805
3295.68
3295.685
3295.802
3295.957
3296.083
3296.151
3296.173
3296.169
3296.158
3296.154
3296.158
3296.158
3296.135
3296.091
3296.058
3296.064
3296.172
3296.236
3296.353
3300.418
3300.232
3299.87
3299.453
3299.069
3298.785
3298.577
3298.322
3297.841
3297.115
3296.499
3296.233
3296.262
3296.429
3296.546
3296.347
3296.007
3295.697
3295.548
3295.607
3295.825
3296.098
3296.336
3296.493
3296.569
3296.585
3296.576
3296.567
3296.553
3296.489
3296.355
3296.176
3295.992
3295.871
3295.831
3295.861
3300.216
3300.091
3299.783
3299.409
3299.029
3298.712
3298.476
3298.243
3297.862
3297.287
3296.743
3296.448
3296.418
3296.538
3296.617
3296.504
3296.213
3295.862
3295.597
3295.526
3295.67
3295.973
3296.333
3296.654
3296.878
3296.989
3297.02
3297.027
3297.041
3297.014
3296.889
3296.648
3296.324
3296.026
3295.784
3295.685
3300.023
3299.941
3299.681
3299.359
3299.003
3298.663
3298.388
3298.154
3297.857
3297.431
3296.991
3296.701
3296.606
3296.625
3296.618
3296.483
3296.22
3295.912
3295.676
3295.6
3295.718
3296.002
3296.384
3296.777
3297.102
3297.309
3297.399
3297.436
3297.484
3297.526
3297.488
3297.302
3296.955
3296.551
3296.089
3295.768
3299.848
3299.784
3299.556
3299.284
3298.977
3298.642
3298.33
3298.069
3297.812
3297.501
3297.172
3296.918
3296.782
3296.713
3296.601
3296.395
3296.132
3295.893
3295.761
3295.786
3295.973
3296.288
3296.673
3297.066
3297.404
3297.638
3297.759
3297.816
3297.882
3297.971
3298.021
3297.948
3297.7
3297.326
3296.766
3296.244
3299.739
3299.659
3299.479
3299.196
3298.931
3298.634
3298.311
3298.01
3297.746
3297.488
3297.234
3297.015
3296.85
3296.693
3296.482
3296.245
3296.043
3295.94
3295.977
3296.159
3296.457
3296.824
3297.21
3297.568
3297.859
3298.057
3298.164
3298.224
3298.296
3298.397
3298.486
3298.493
3298.365
3298.109
3297.657
3297.12
3299.666
3299.576
3299.409
3299.114
3298.859
3298.61
3298.32
3298.001
3297.701
3297.433
3297.189
3296.966
3296.755
3296.525
3296.318
3296.18
3296.151
3296.254
3296.483
3296.807
3297.184
3297.567
3297.918
3298.207
3298.421
3298.557
3298.635
3298.689
3298.764
3298.86
3298.945
3298.963
3298.895
3298.697
3298.446
3297.988
3299.561
3299.518
3299.418
3299.126
3298.85
3298.61
3298.361
3298.056
3297.732
3297.426
3297.144
3296.888
3296.67
3296.522
3296.471
3296.532
3296.708
3296.984
3297.329
3297.706
3298.074
3298.402
3298.669
3298.864
3299
3299.085
3299.143
3299.196
3299.277
3299.363
3299.423
3299.412
3299.356
3299.159
3298.973
3298.592
3299.611
3299.522
3299.253
3298.962
3298.714
3298.493
3298.249
3297.967
3297.682
3297.433
3297.248
3297.145
3297.138
3297.233
3297.423
3297.692
3298.011
3298.347
3298.668
3298.949
3299.172
3299.336
3299.444
3299.523
3299.58
3299.627
3299.678
3299.763
3299.84
3299.88
3299.852
3299.781
3299.575
3299.421
3299.738
3299.685
3299.511
3299.228
3298.982
3298.781
3298.599
3298.411
3298.242
3298.111
3298.037
3298.036
3298.119
3298.279
3298.501
3298.761
3299.03
3299.281
3299.495
3299.659
3299.774
3299.851
3299.893
3299.937
3299.965
3299.995
3300.033
3300.126
3300.198
3300.238
3300.227
3300.158
3299.951
3299.755
3299.786
3299.785
3299.709
3299.518
3299.32
3299.156
3299.032
3298.924
3298.853
3298.829
3298.856
3298.939
3299.081
3299.267
3299.474
3299.676
3299.853
3299.993
3300.091
3300.149
3300.176
3300.187
3300.179
3300.181
3300.166
3300.174
3300.198
3300.31
3300.394
3300.456
3300.477
3300.409
3300.229
3300.033
3299.92
3299.9
3299.834
3299.697
3299.583
3299.525
3299.496
3299.512
3299.571
3299.664
3299.785
3299.942
3300.105
3300.249
3300.355
3300.419
3300.447
3300.445
3300.418
3300.379
3300.338
3300.279
3300.234
3300.187
3300.187
3300.21
3300.343
3300.452
3300.567
3300.627
3300.586
3300.429
3300.14
3300.108
3300.07
3300.029
3300.054
3300.101
3300.188
3300.297
3300.407
3300.512
3300.638
3300.731
3300.775
3300.768
3300.724
3300.661
3300.583
3300.495
3300.411
3300.328
3300.236
3300.167
3300.111
3300.112
3300.173
3300.37
3300.52
3300.666
3300.711
3300.747
3300.27
3300.351
3300.404
3300.5
3300.615
3300.702
3300.828
3300.938
3301.01
3301.052
3301.115
3301.109
3301.047
3300.94
3300.815
3300.692
3300.566
3300.445
3300.343
3300.24
3300.133
3300.081
3300.077
3300.14
3300.26
3300.526
3300.668
3300.727
3300.741
3300.743
3300.61
3300.785
3300.946
3301.177
3301.262
3301.366
3301.422
3301.42
3301.377
3301.368
3301.266
3301.122
3300.951
3300.782
3300.633
3300.487
3300.352
3300.24
3300.161
3300.112
3300.149
3300.23
3300.38
3300.555
3300.848
3300.816
3300.779
3300.755
3301.168
3301.424
3301.637
3301.739
3301.789
3301.758
3301.662
3301.528
3301.452
3301.275
3301.076
3300.869
3300.686
3300.532
3300.397
3300.296
3300.238
3300.239
3300.287
3300.446
3300.617
3300.855
3301.054
3301.16
3300.982
3300.857
3301.84
3302.063
3302.077
3302.116
3302.022
3301.859
3301.657
3301.542
3301.317
3301.086
3300.855
3300.672