/*--------------------------------*- C++ -*----------------------------------*\
  =========                 |
  \\      /  F ield         | OpenFOAM: The Open Source CFD Toolbox
   \\    /   O peration     | Website:  https://openfoam.org
    \\  /    A nd           | Version:  6
     \\/     M anipulation  |
\*---------------------------------------------------------------------------*/
FoamFile
{
    version     2.0;
    format      ascii;
    class       volScalarField;
    location    "49.8";
    object      T;
}
// * * * * * * * * * * * * * * * * * * * * * * * * * * * * * * * * * * * * * //

dimensions      [0 0 0 1 0 0 0];

internalField   nonuniform List<scalar> 
203709
(
958.8833
959.1723
959.5221
959.6153
957.8823
957.982
958.3143
958.5112
958.7595
958.9343
959.1314
958.8212
957.6883
957.735
957.7367
957.7625
957.8929
957.9968
958.1256
958.2156
958.3109
958.2005
958.232
958.0491
957.5729
957.6014
957.598
957.5977
957.6028
957.6289
957.6658
957.7123
957.701
957.7115
957.6285
957.5805
957.5136
957.3756
957.495
957.5111
957.5218
957.5319
957.5368
957.534
957.5088
957.4789
957.4676
957.4525
957.3831
957.3515
957.364
957.326
957.3381
957.3466
957.3711
957.4052
957.4476
957.51
957.5839
957.5632
957.4632
957.3834
957.3823
957.4435
957.5275
957.6125
957.6928
957.6543
957.1796
957.0761
956.9254
956.8382
956.9251
957.2146
957.5717
957.7428
957.6186
957.332
957.0916
956.995
957.0208
957.109
957.2072
957.2962
956.7444
957.0014
956.8553
956.6085
956.3428
956.2649
956.6079
957.2127
957.7488
957.9083
957.655
957.2084
956.8139
956.5942
956.5434
956.6007
956.724
956.7153
956.4973
956.6777
956.6064
956.4044
956.2052
956.1883
956.4682
956.9994
957.5712
957.918
957.886
957.5202
957.004
956.5384
956.2448
956.1423
956.1857
956.3494
956.1931
956.3488
956.3346
956.2174
956.1322
956.2358
956.5817
957.0922
957.5872
957.8808
957.8742
957.5852
957.1142
956.5979
956.1646
955.8966
955.8134
955.9168
956.015
956.0965
956.1187
956.0935
956.162
956.4306
956.8666
957.3441
957.7058
957.8408
957.7237
957.401
956.9566
956.4785
956.0483
955.7326
955.569
955.6406
956.0316
956.0948
956.1884
956.4492
956.8508
957.285
957.6211
957.7611
957.6759
957.3995
957.002
956.5601
956.1307
955.7638
955.4937
955.3633
956.1893
956.3741
956.6495
957.0208
957.3826
957.6324
957.6964
957.5569
957.2496
956.839
956.3949
955.9746
955.6087
955.3287
955.1371
955.16
956.8958
957.2368
957.4954
957.6116
957.5509
957.3147
956.9439
956.4965
956.0386
955.6163
955.2663
954.9848
954.8049
954.7352
957.176
957.392
957.3281
957.1366
956.823
956.4098
955.9516
955.4969
955.0959
954.7627
954.521
954.326
954.2566
954.3841
956.2604
956.2563
956.0037
955.6285
955.2048
954.7975
954.433
954.1522
953.9322
953.7915
953.6331
953.7249
954.4611
954.4093
954.0263
953.71
953.4587
953.2951
953.1667
953.1913
952.8583
952.7814
952.6413
952.6426
959.0365
959.701
960.187
960.6237
961.0057
961.3707
961.7658
962.1876
962.5991
962.7998
957.2384
958.2542
958.9383
959.4356
959.8911
960.3378
960.754
961.1369
961.5114
961.8798
962.2278
962.4727
962.4965
962.3065
956.5961
957.2722
957.9671
958.5382
958.9702
959.3827
959.8482
960.3295
960.7409
961.0903
961.4067
961.7195
961.9314
961.9942
961.9035
961.5915
955.9934
956.6275
957.161
957.6341
958.0563
958.4035
958.8245
959.2166
959.7234
960.1577
960.4864
960.9039
961.0941
961.2307
961.3136
961.2562
961.0346
960.7084
955.5331
956.2471
956.8363
957.2668
957.6005
957.8649
958.0603
958.3252
958.6465
959.0332
959.4214
959.8243
960.0772
960.2576
960.4998
960.506
960.4274
960.2609
960.0345
959.7381
955.0679
955.9392
956.7495
957.2499
957.5614
957.8197
957.9417
958.0069
958.1341
958.2844
958.5189
958.772
959.0754
959.3061
959.5109
959.5725
959.3939
959.4442
959.3011
959.1038
958.9143
958.702
955.556
956.5037
957.159
957.5358
957.7693
957.885
957.9731
958.0054
958.0459
958.0922
958.1769
958.295
958.4547
958.5575
958.6425
958.6454
958.4782
958.149
958.113
957.9808
957.8515
957.7646
954.4193
955.6737
956.8213
957.3635
957.621
957.7438
957.8702
957.9292
957.952
957.9618
957.9656
957.9611
957.9631
957.9939
958.0187
958.0034
957.9458
957.8257
957.6284
957.6963
957.7149
957.73
957.7384
957.7979
954.4483
955.6584
956.8076
957.3504
957.5665
957.671
957.7557
957.8031
957.8431
957.8905
957.9619
957.965
957.896
957.8232
957.7986
957.8197
957.8565
957.8894
957.9004
957.9252
957.9544
958.0008
958.0693
958.1428
954.4724
955.4933
956.5423
957.1872
957.4129
957.4639
957.3873
957.3253
957.3616
957.5792
957.8944
958.0749
958.0145
957.7914
957.5626
957.427
957.3924
957.4184
957.4669
957.5191
957.5358
957.6378
957.7741
957.9485
954.5064
955.2839
956.186
956.8034
957.1875
957.213
957.0284
956.7446
956.6208
956.9472
957.5097
958.0182
958.2198
958.0624
957.6906
957.2995
957.0158
956.8667
956.8253
956.9162
956.9079
957.013
957.1603
957.3817
954.5889
955.1201
955.8137
956.3974
956.8147
956.9023
956.7548
956.535
956.4706
956.7048
957.1981
957.764
958.1575
958.2162
957.9448
957.4779
956.9907
956.6072
956.3728
956.2762
956.3247
956.3832
956.5171
956.716
954.7494
955.0702
955.5511
956.0239
956.3995
956.5418
956.4892
956.3974
956.4492
956.7349
957.2082
957.7144
958.0691
958.1496
957.9397
957.5115
956.9876
956.4889
956.1016
955.8638
955.8477
955.8702
955.9731
956.1222
954.9878
955.1651
955.4613
955.7907
956.0321
956.2132
956.2624
956.3173
956.5382
956.9316
957.4024
957.8029
958.0066
957.9584
957.6795
957.2395
956.7276
956.2265
955.8012
955.4918
955.4544
955.4398
955.5302
955.654
955.2624
955.3859
955.5585
955.7538
955.9671
956.1362
956.2728
956.4985
956.8662
957.2963
957.6635
957.8572
957.8249
957.5775
957.1726
956.6829
956.1807
955.7217
955.3424
955.135
955.0042
955.0345
955.137
955.2725
955.4919
955.6622
955.815
955.9798
956.1609
956.3542
956.6089
956.9744
957.3529
957.6367
957.7413
957.6351
957.3393
956.905
956.4012
955.8855
955.4183
955.0329
954.7377
954.6773
954.5675
954.614
954.7474
954.9246
955.5981
955.8811
956.1103
956.3217
956.5883
956.8176
957.1661
957.4493
957.5849
957.5373
957.3083
956.9314
956.4561
955.9298
955.4123
954.9317
954.5478
954.267
954.1847
954.0376
954.0566
954.1583
954.335
954.5972
955.8603
956.2118
956.5304
956.8451
957.0119
957.2021
957.1633
956.9856
956.669
956.2552
955.7815
955.2844
954.7833
954.3429
953.9483
953.6879
953.5009
953.5204
953.4428
953.4985
953.647
953.8739
955.275
955.6626
955.9961
956.1795
956.2013
956.0139
955.8283
955.6325
955.287
954.9005
954.4866
954.0725
953.6565
953.3514
953.0627
952.9471
952.9016
952.7843
952.8147
952.8833
953.0472
953.449
954.8129
954.9311
954.9581
954.9201
954.7918
954.5619
954.2533
953.9502
953.6476
953.3149
953.0047
952.6818
952.5328
952.432
952.2611
952.2574
952.1699
952.1307
952.1768
952.3776
953.8771
953.9172
953.8196
953.689
953.483
953.2172
952.8857
952.6043
952.3329
952.1255
952.009
951.8354
951.804
951.7398
951.6803
951.5003
951.4789
951.592
953.0858
952.9176
952.7869
952.5128
952.2508
952.0081
951.7796
951.5827
951.4619
951.4102
951.3801
951.327
951.2436
951.2007
951.0213
951.0964
952.0572
952.004
951.606
951.3887
951.1967
951.063
950.9956
950.9742
950.9851
951.009
951.0071
950.9465
950.9308
950.8298
950.8272
950.6968
950.6008
950.5834
950.631
950.6981
950.7772
950.8527
950.8861
950.8438
959.4057
959.987
960.3945
960.7464
961.165
961.7446
962.4665
963.1951
956.447
957.8638
959.0118
959.6648
960.1698
960.5618
960.8987
961.2895
961.8208
962.486
963.1707
963.4916
963.4881
963.2755
955.9224
956.804
958.0592
959.1062
959.8027
960.3069
960.7171
961.061
961.4312
961.9018
962.4677
963.0439
963.2923
963.2305
962.9236
962.269
954.1123
955.1579
956.116
957.058
958.1928
959.0531
959.8358
960.3644
960.8102
961.1847
961.5524
961.9715
962.4363
962.8937
963.0916
963.0585
962.6675
962.0037
960.961
960.0068
953.7352
954.3241
955.2912
956.2668
957.1487
958.2648
959.0727
959.753
960.2855
960.7691
961.1938
961.5826
961.9693
962.3486
962.6989
962.8775
962.848
962.5022
961.8898
961.0642
959.9843
958.9165
953.3706
953.8525
954.4702
955.4433
956.3468
957.3025
958.2079
958.8821
959.4674
959.9789
960.4823
960.9538
961.3772
961.7591
962.0937
962.3748
962.5455
962.5566
962.3204
961.8608
961.1598
960.364
959.5295
959.1827
953.4434
953.9456
954.6353
955.5833
956.5347
957.3178
958.0341
958.566
959.0426
959.4919
959.9666
960.4536
960.9036
961.3013
961.654
961.9391
962.1168
962.145
961.9881
961.6303
961.127
960.4864
959.8571
959.3237
953.2419
953.5844
954.0941
954.8694
955.8797
956.714
957.3865
957.9599
958.3558
958.7021
959.0438
959.4254
959.8517
960.2851
960.6973
961.0545
961.3106
961.4945
961.5335
961.4047
961.1253
960.6828
960.1972
959.7128
959.2388
958.864
953.1981
953.3325
953.6729
954.2991
955.2556
956.2742
957.0764
957.6797
958.1176
958.3762
958.5643
958.7576
959.0009
959.2889
959.6033
959.9448
960.2534
960.4916
960.6382
960.6125
960.4948
960.2584
959.9263
959.481
959.0307
958.7104
958.3971
958.1251
953.2791
953.4154
953.7866
954.5319
955.6847
956.7721
957.5268
958.0179
958.2989
958.4408
958.52
958.5943
958.6897
958.8261
959.0091
959.2322
959.4046
959.5417
959.5981
959.5133
959.2852
959.0395
958.7638
958.4627
958.1151
957.9777
957.8373
957.6978
953.4158
953.5291
953.9039
954.8249
956.0587
957.1705
957.8232
958.1621
958.3298
958.3985
958.4257
958.4404
958.4537
958.4736
958.5115
958.5837
958.6542
958.6847
958.6384
958.5044
958.2879
958.1829
958.1208
958.0671
957.9412
957.8977
957.8424
957.6815
953.5868
953.6363
953.6922
954.023
954.9471
956.1842
957.3526
957.9252
958.1409
958.2324
958.2697
958.3029
958.3413
958.4056
958.4204
958.3699
958.3026
958.2654
958.2632
958.2734
958.2767
958.2614
958.2828
958.2868
958.2983
958.3124
958.3174
958.3629
958.3625
958.404
953.73
953.8102
953.8695
954.1404
954.9601
956.1165
957.2389
957.8504
957.9934
957.9407
957.8757
957.8973
958.05
958.329
958.5077
958.4808
958.2939
958.0728
957.9146
957.8435
957.8326
957.8497
957.8872
957.9084
957.9568
958.034
958.1535
958.335
958.5402
958.7274
953.8735
954.0093
954.0757
954.2777
954.9259
955.9172
956.9474
957.5935
957.7735
957.6337
957.3291
957.1377
957.4388
957.9629
958.4427
958.6591
958.5503
958.2188
957.8297
957.5088
957.3031
957.2048
957.2006
957.2248
957.2824
957.3715
957.5464
957.7984
958.1611
958.5882
953.9997
954.2134
954.3112
954.4582
954.9189
955.6876
956.5588
957.1951
957.4367
957.3563
957.1115
956.984
957.1674
957.6229
958.1698
958.5744
958.6733
958.4489
958.0069
957.5028
957.0649
956.7608
956.6057
956.5893
956.6233
956.6812
956.8213
957.0406
957.4457
958.0375
954.0816
954.391
954.5573
954.6888
954.9942
955.5295
956.1911
956.7431
957.0208
957.0453
956.9477
956.9464
957.1734
957.6041
958.0964
958.4682
958.5856
958.4123
958.0022
957.465
956.921
956.4704
956.1797
956.0796
956.0756
956.1007
956.1753
956.2954
956.6139
957.2071
954.0989
954.5038
954.774
954.9469
955.1678
955.5135
955.9631
956.3791
956.6454
956.7497
956.7992
956.9737
957.3199
957.763
958.1643
958.3917
958.3734
958.1129
957.6689
957.1272
956.5763
956.0966
955.763
955.6224
955.5915
955.6041
955.6498
955.6799
955.8604
956.3121
954.0659
954.5289
954.9127
955.1794
955.4062
955.6526
955.949
956.2475
956.4842
956.6559
956.8724
957.2132
957.6224
957.9878
958.1975
958.1863
957.9506
957.537
957.0168
956.4662
955.9499
955.5224
955.2458
955.1136
955.0862
955.1057
955.1732
955.1625
955.2558
955.5732
954.0227
954.4732
954.9369
955.3184
955.6289
955.8865
956.1344
956.3846
956.6295
956.8929
957.2515
957.6237
957.9103
958.0274
957.934
957.6387
957.1871
956.6463
956.0836
955.5607
955.12
954.7925
954.6084
954.5191
954.5016
954.5319
954.6456
954.6359
954.7231
955.0561
954.3955
954.859
955.3243
955.7096
956.0682
956.3797
956.6779
956.9892
957.3387
957.6239
957.7707
957.7361
957.5144
957.1298
956.6275
956.0629
955.4961
954.9752
954.5435
954.2184
954.0092
953.8764
953.8187
953.804
953.847
953.9868
954.0229
954.1518
954.0648
954.5419
954.9399
955.4998
955.9724
956.3937
956.7703
957.0529
957.2062
957.1984
957.0373
956.7343
956.3158
955.8167
955.2793
954.7463
954.2655
953.8622
953.5604
953.3515
953.2019
953.0966
953.0407
953.0126
953.1504
953.143
953.3404
953.5975
953.6326
953.9726
954.3797
954.7831
955.2583
955.636
955.8659
955.9755
955.9558
955.8121
955.5646
955.2169
954.802
954.3517
953.9032
953.4903
953.1534
952.8945
952.7073
952.5731
952.4062
952.3019
952.2468
952.2067
952.3278
952.4182
952.6589
953.0539
953.6516
953.9124
954.0876
954.2665
954.4908
954.6199
954.6443
954.5625
954.3829
954.1156
953.7801
953.417
953.0545
952.7276
952.4597
952.268
952.1338
952.0097
951.8905
951.7072
951.6272
951.5963
951.6256
951.6235
951.8072
952.0839
953.3998
953.5183
953.5801
953.6094
953.627
953.556
953.4051
953.1796
952.8911
952.5755
952.275
952.0201
951.8293
951.7021
951.6205
951.5588
951.4693
951.3656
951.2034
951.186
951.2192
951.1957
951.2679
951.409
953.0406
953.0457
953.004
952.9254
952.7837
952.5883
952.376
952.12
951.84
951.5777
951.3793
951.2597
951.1988
951.1797
951.1848
951.1761
951.1087
951.0343
950.9347
950.9918
951.0158
951.0487
951.121
951.2675
952.5752
952.3809
952.2691
951.9588
951.6942
951.4359
951.1868
950.9672
950.8129
950.7545
950.772
950.8194
950.8846
950.952
950.9831
950.9368
950.8852
950.841
950.9108
950.9575
951.0131
951.0765
951.7228
951.5498
951.1772
950.8783
950.6568
950.5239
950.3592
950.335
950.4079
950.5314
950.6517
950.7706
950.8742
950.9276
950.8883
950.8233
950.7737
950.8662
950.9288
950.9607
950.4865
950.2311
950.1876
950.0796
950.0573
950.1411
950.2994
950.4775
950.6303
950.7687
950.8798
950.9369
950.8872
950.763
950.6745
950.7185
949.8463
949.8768
949.8827
949.9645
950.1063
950.3103
950.5133
950.6727
950.8039
950.8985
950.9478
950.8745
950.6796
950.4536
949.9512
950.1462
950.3721
950.5812
950.7288
950.8344
950.89
950.8371
958.9643
959.4624
959.8718
960.3191
960.9437
961.7009
955.4617
956.7974
957.9157
959.0039
959.4913
959.927
960.3126
960.7638
961.4018
962.2034
963.1669
963.7348
964.0781
964.1964
954.0586
955.1482
955.9202
957.2191
958.2877
959.3053
959.9654
960.42
960.7962
961.2371
961.8447
962.5903
963.3737
963.7975
963.955
963.8854
963.6137
963.5335
953.7307
954.3442
955.3472
956.219
957.6247
958.7673
959.7379
960.5167
961.0148
961.396
961.8202
962.3666
962.9849
963.5032
963.788
963.7587
963.459
963.0332
962.5725
962.0163
953.3931
953.9096
954.577
955.5209
956.6344
957.9929
959.1318
960.1455
960.9452
961.4956
961.8981
962.3087
962.7866
963.2762
963.6409
963.7664
963.5665
963.0717
962.398
961.6879
960.7076
959.7477
953.1956
953.54
954.0444
954.8664
955.8659
956.9876
958.2838
959.3815
960.3792
961.1842
961.7904
962.2431
962.6593
963.0836
963.4619
963.6991
963.7082
963.4097
962.8024
961.9962
961.0554
959.9068
958.6524
957.8837
953.088
953.318
953.643
954.2758
955.1493
956.1571
957.2697
958.4811
959.4891
960.399
961.1694
961.8093
962.3234
962.7704
963.1717
963.4827
963.6501
963.6229
963.3308
962.7109
961.8664
960.864
959.6449
958.3863
957.4928
957.3573
953.0644
953.15
953.3611
953.7991
954.4956
955.3933
956.4037
957.4761
958.5485
959.4106
960.185
960.8799
961.5138
962.0725
962.5609
962.9737
963.2987
963.497
963.5053
963.2782
962.7574
961.9842
961.0493
959.9104
958.695
957.7175
957.3331
957.8266
953.094
953.1152
953.1934
953.4379
953.9556
954.6888
955.6207
956.6221
957.6015
958.4983
959.1928
959.8201
960.4197
961.0102
961.5748
962.0978
962.5542
962.905
963.1237
963.175
963.0263
962.6448
962.0434
961.2882
960.3878
959.4392
958.6261
957.8171
957.9338
958.2611
953.101
953.1512
953.2622
953.5601
954.1101
954.8878
955.8708
956.856
957.7202
958.4304
958.9468
959.4028
959.8589
960.3467
960.853
961.3521
961.8133
962.1911
962.4404
962.5473
962.4783
962.2176
961.7819
961.2008
960.5157
959.8011
959.0312
958.4734
957.9939
957.9718
952.9036
953.1668
953.2381
953.3746
953.7006
954.268
955.1239
956.2139
957.2139
957.9811
958.5313
958.8831
959.1547
959.4295
959.7545
960.1199
960.5032
960.893
961.2352
961.4825
961.6073
961.5686
961.3803
961.059
960.6291
960.1016
959.5117
958.9703
958.4426
958.0619
957.7936
957.6699
953.0289
953.2485
953.3588
953.5205
953.8371
954.4307
955.419
956.7017
957.6928
958.3432
958.7315
958.9355
959.0606
959.1751
959.3188
959.508
959.7525
960.0231
960.2366
960.3936
960.455
960.3845
960.1784
959.8751
959.5099
959.1222
958.7291
958.4148
958.1273
957.8143
957.6776
957.56
953.0892
953.353
953.5076
953.6772
953.9784
954.5952
955.7049
957.163
958.0807
958.5743
958.8063
958.8976
958.935
958.9584
958.9848
959.0264
959.0942
959.1975
959.2989
959.3534
959.3109
959.1724
958.9513
958.773
958.6454
958.5314
958.3905
958.258
958.1047
957.8384
957.805
957.6414
953.1501
953.4731
953.6803
953.8523
954.1254
954.7288
955.8715
957.3684
958.2697
958.6168
958.7371
958.7752
958.8045
958.8411
958.8963
958.9177
958.8798
958.8165
958.7696
958.75
958.7416
958.7256
958.7003
958.6978
958.6858
958.6691
958.6481
958.6266
958.6027
958.4763
958.3938
958.1392
952.5452
953.1262
953.5684
953.8644
954.0467
954.285
954.8256
955.894
957.2946
958.226
958.5207
958.5064
958.4528
958.4718
958.5858
958.8317
959.0035
958.9963
958.8322
958.6137
958.4359
958.3352
958.2968
958.2938
958.3129
958.3281
958.3491
958.3907
958.4854
958.6369
958.7961
958.9057
958.9058
958.9145
952.6682
953.1638
953.651
954.0292
954.2529
954.4672
954.9105
955.8185
957.0475
957.9802
958.3228
958.2489
957.9655
957.7439
958.0091
958.4982
958.9506
959.1714
959.0908
958.7824
958.3905
958.0413
957.7974
957.6653
957.6271
957.6394
957.6683
957.7156
957.8475
958.0943
958.4433
958.8434
959.1353
959.3359
952.8037
953.2277
953.7216
954.1698
954.4591
954.6757
955.0213
955.7212
956.716
957.5761
957.9922
957.9887
957.7555
957.5863
957.7273
958.1483
958.6741
959.0793
959.1998
959.0018
958.5706
958.05
957.5739
957.2276
957.0401
956.9879
956.9869
956.9901
957.0584
957.2618
957.6597
958.2702
958.8091
959.3585
952.9358
953.2813
953.7596
954.2661
954.6405
954.8984
955.1794
955.6796
956.4132
957.1222
957.556
957.6649
957.5862
957.5505
957.724
958.1109
958.5826
958.9584
959.0953
958.9416
958.5376
957.985
957.4075
956.9176
956.5937
956.4507
956.4039
956.3622
956.3403
956.4166
956.7108
957.3505
958.0436
958.9801
953.08
953.3383
953.7674
954.3016
954.7632
955.1021
955.3782
955.7368
956.2391
956.7607
957.1417
957.327
957.392
957.5261
957.8236
958.2331
958.6245
958.8611
958.8581
958.6052
958.1529
957.5867
957.0017
956.4891
956.1271
955.9417
955.8635
955.7981
955.7252
955.6923
955.8277
956.3199
956.9615
958.0743
953.2373
953.4633
953.7887
954.288
954.8023
955.2391
955.5761
955.8858
956.2402
956.6099
956.9197
957.1478
957.3571
957.6701
958.0542
958.4094
958.6234
958.6216
958.3892
957.9656
957.4218
956.8386
956.2893
955.8344
955.5235
955.3552
955.2728
955.2008
955.1223
955.0497
955.0882
955.399
955.8403
956.8592
953.6239
953.8414
954.2246
954.7427
955.2565
955.6958
956.0563
956.3816
956.692
956.9826
957.2724
957.628
957.9903
958.2737
958.3948
958.306
958.0076
957.5416
956.9761
956.384
955.831
955.365
955.0122
954.7855
954.6553
954.5748
954.4981
954.4341
954.3815
954.423
954.6336
954.8703
953.5772
953.7405
954.1002
954.5879
955.1215
955.6426
956.109
956.514
956.8784
957.231
957.5907
957.886
958.039
958.0117
957.7932
957.4027
956.8846
956.2986
955.7093
955.1704
954.7213
954.3799
954.1336
953.9669
953.8555
953.7667
953.6845
953.6335
953.64
953.8216
953.9279
954.2027
953.4343
953.6056
953.8806
954.3054
954.8013
955.3489
955.8903
956.3828
956.7973
957.1072
957.2831
957.3076
957.1732
956.8857
956.469
955.9612
955.4111
954.8702
954.3859
953.9853
953.6789
953.4589
953.2757
953.1313
953.0191
952.9224
952.8452
952.8007
952.8742
953.1597
953.3289
953.6387
953.2667
953.4326
953.5782
953.861
954.2365
954.6418
955.0595
955.4398
955.7312
955.904
955.943
955.8429
955.6128
955.27
954.8496
954.3941
953.9488
953.5524
953.233
952.9896
952.8058
952.6643
952.499
952.369
952.2714
952.1879
952.107
952.1111
952.2296
952.4981
952.7671
953.1556
953.2216
953.3351
953.5022
953.7476
954.0108
954.2478
954.447
954.577
954.6136
954.5435
954.3617
954.0862
953.7458
953.3833
953.0394
952.7445
952.5156
952.3556
952.2385
952.1334
952.0362
951.898
951.8162
951.7648
951.711
951.6362
951.6834
951.8502
952.0472
952.2822
953.0543
953.1116
953.1909
953.3158
953.4471
953.5396
953.5796
953.5561
953.4608
953.2944
953.0476
952.7589
952.4647
952.2048
952.006
951.8717
951.7961
951.7616
951.7305
951.6821
951.631
951.5564
951.5439
951.5458
951.5145
951.4361
951.5048
951.6409
951.8008
952.0012
952.8495
952.9005
952.9055
952.8694
952.8255
952.7119
952.5568
952.3663
952.1555
951.8965
951.6611
951.4745
951.3603
951.3203
951.3281
951.3712
951.4279
951.4585
951.4606
951.4648
951.4631
951.4808
951.4742
951.4242
951.3284
951.4358
951.5649
951.6699
952.579
952.4424
952.2617
952.058
951.8178
951.5848
951.376
951.1996
950.9875
950.8646
950.8258
950.8641
950.9583
951.0685
951.1925
951.3083
951.3854
951.433
951.4581
951.4257
951.3889
951.3464
951.2735
951.2493
951.4283
951.5166
951.9382
951.5473
951.324
950.9564
950.7326
950.5824
950.508
950.3915
950.4098
950.5125
950.6705
950.854
951.0243
951.1931
951.3368
951.4075
951.4222
951.3866
951.2574
951.1292
951.05
951.0738
951.1114
951.3166
950.9188
950.6022
950.2485
950.1527
950.0421
950.0863
950.0729
950.2144
950.4169
950.6381
950.8557
951.0416
951.2102
951.3344
951.3478
951.2872
951.1556
950.895
950.7882
950.6685
950.8077
950.8869
950.0195
949.7971
949.7122
949.7422
949.8361
949.9011
950.1134
950.3713
950.6139
950.8359
951.0069
951.1447
951.2253
951.141
950.9801
950.7505
950.4748
950.3732
950.2511
950.4235
949.4476
949.492
949.5546
949.7021
949.7785
950.0497
950.2734
950.5057
950.7133
950.8501
950.9403
950.9848
950.8814
950.6346
950.346
950.0349
949.9553
949.7406
949.3932
949.601
949.7016
950.0025
950.1561
950.3538
950.5414
950.6423
950.687
950.7246
950.6441
950.292
949.9011
949.3958
949.917
950.1269
950.3006
950.3647
950.3465
950.2286
956.2055
957.2576
958.2176
958.7865
959.2532
959.6776
960.2368
961.0005
961.8689
962.5876
953.99
954.7559
955.9451
956.8187
957.8359
958.8202
959.4315
959.8816
960.3278
960.9443
961.7882
962.6035
963.3989
964.0751
964.3226
964.4508
953.7451
954.2564
955.1373
956.4441
957.5176
958.697
959.6206
960.4223
960.8962
961.3607
961.9563
962.5887
963.2942
963.8781
964.284
964.3785
964.3963
964.3038
952.9977
953.4229
953.9673
954.7018
955.6422
957.0277
958.302
959.6621
960.6922
961.4712
961.9521
962.425
962.9897
963.5516
964.0648
964.3859
964.4763
964.289
964.0687
963.7448
963.3005
963.0514
953.022
953.1743
953.6046
954.303
955.1723
956.1938
957.5819
958.9864
960.4832
961.5918
962.3588
962.8435
963.3143
963.8254
964.2711
964.5789
964.6504
964.4724
964.0583
963.5224
962.8301
962.0894
961.1283
960.3295
953.0825
953.1679
953.3786
953.9494
954.7382
955.624
956.6929
958.0734
959.5105
961.0324
962.2148
962.9933
963.4939
963.9569
964.3987
964.7082
964.8191
964.6655
964.2491
963.5991
962.7801
961.7834
960.65
959.5972
958.5474
958.2939
953.1895
953.1972
953.3244
953.6952
954.3884
955.1519
956.0253
957.114
958.472
959.8747
961.3241
962.4962
963.3244
963.8779
964.3496
964.7384
964.9341
964.8914
964.571
963.9821
963.1498
962.1259
960.9311
959.6421
958.508
958.0337
958.2958
958.917
953.0923
953.2075
953.2912
953.5661
954.0879
954.759
955.4888
956.3558
957.4562
958.7675
960.0687
961.3641
962.456
963.2994
963.9196
964.4342
964.8305
965.0036
964.9421
964.5679
963.892
962.9597
961.8349
960.5614
959.258
958.2536
958.0039
958.4657
959.1747
959.5567
953.1148
953.2487
953.4559
953.8666
954.3879
955.0193
955.7375
956.6238
957.7263
958.9446
960.0857
961.1868
962.1591
962.978
963.6424
964.2148
964.6864
964.9244
964.8909
964.5493
963.9199
963.0318
961.9491
960.7209
959.4347
958.4134
958.1045
958.5198
959.0874
959.4724
952.8253
953.1583
953.3804
953.6917
954.0938
954.5841
955.1888
955.9303
956.8588
957.9377
958.9978
959.9166
960.7747
961.5754
962.321
962.9955
963.6008
964.1101
964.4323
964.507
964.3125
963.8586
963.1626
962.2782
961.2611
960.1354
959.0456
958.3133
958.2791
958.7719
959.0163
958.9939
952.229
952.725
953.1604
953.5413
953.8846
954.2587
954.7115
955.3162
956.1357
957.1133
958.1056
958.9623
959.6331
960.2324
960.8172
961.4165
962.0192
962.5989
963.1174
963.5041
963.6929
963.6608
963.4044
962.9376
962.301
961.5397
960.6949
959.841
958.9794
958.4051
958.3073
958.4971
958.6609
958.7098
952.2573
952.764
953.2351
953.683
954.0379
954.3776
954.8052
955.4753
956.4076
957.4475
958.3579
959.0254
959.4729
959.8314
960.1856
960.5875
961.0319
961.4877
961.9307
962.2977
962.5295
962.5933
962.4719
962.1799
961.7483
961.2122
960.5846
959.9134
959.2604
958.6649
958.2332
958.0126
958.0484
958.2985
952.3536
952.8578
953.3912
953.8355
954.1729
954.478
954.9198
955.6713
956.7865
957.94
958.7274
959.2064
959.4712
959.6412
959.7961
959.9849
960.2249
960.5277
960.8419
961.0832
961.2427
961.283
961.185
960.9494
960.5825
960.1558
959.7293
959.3068
958.9119
958.5329
958.1612
957.9007
957.7352
957.851
951.6622
952.1939
952.8062
953.455
953.9558
954.2986
954.5859
955.0431
955.8758
957.2037
958.3822
959.0035
959.3025
959.4235
959.4752
959.5098
959.5502
959.6095
959.7001
959.8241
959.9396
960.0011
959.9476
959.7934
959.5642
959.3676
959.2026
959.0484
958.8809
958.6995
958.4851
958.202
957.9808
957.7368
957.7286
957.7735
951.7904
952.1778
952.8003
953.4993
954.0551
954.4235
954.7148
955.162
956.024
957.4179
958.6258
959.0956
959.2599
959.3089
959.339
959.3766
959.4236
959.4493
959.4206
959.3601
959.3045
959.2697
959.2458
959.2154
959.1813
959.1602
959.1319
959.0942
959.0496
959.0021
958.9322
958.7784
958.5748
958.2195
958.1596
958.007
952.0596
952.3758
952.9096
953.5792
954.1525
954.551
954.8552
955.2748
956.0895
957.4123
958.5735
959.0438
959.0797
959.0459
959.0684
959.1662
959.3815
959.5441
959.5492
959.4002
959.1808
958.9836
958.8557
958.7937
958.7756
958.7822
958.7891
958.7948
958.819
958.8982
959.0251
959.1375
959.1697
959.0084
958.8883
958.6537
952.2983
952.5393
953.0525
953.6606
954.2356
954.6731
955.0015
955.3876
956.0954
957.2478
958.3312
958.8462
958.8614
958.6239
958.4012
958.6293
959.0863
959.5119
959.7314
959.6676
959.3718
958.9733
958.5996
958.3261
958.1711
958.1162
958.1168
958.1288
958.1573
958.2763
958.5259
958.8644
959.2015
959.412
959.4658
959.3956
952.6199
952.7778
953.2117
953.7481
954.3053
954.781
955.1475
955.5078
956.087
957.0156
957.964
958.5144
958.6099
958.4199
958.2344
958.341
958.7331
959.2377
959.6367
959.7663
959.5812
959.1524
958.616
958.1118
957.7381
957.5317
957.4608
957.4386
957.4148
957.4591
957.6746
958.094
958.65
959.145
959.5164
959.6363
952.9203
953.0217
953.3919
953.8486
954.3623
954.8624
955.2793
955.6403
956.1053
956.8058
957.5709
958.0999
958.29
958.2495
958.2032
958.3379
958.6849
959.1312
959.4995
959.6413
959.4942
959.0889
958.5225
957.9215
957.4076
957.0649
956.9014
956.8301
956.7517
956.6859
956.7564
957.0767
957.6625
958.3344
959.0665
959.5435
953.1838
953.2677
953.5974
953.9868
954.4255
954.9127
955.3769
955.7724
956.1732
956.6877
957.2614
957.7148
957.9563
958.0476
958.1585
958.4119
958.7805
959.1469
959.3743
959.3701
959.1144
958.6527
958.0698
957.4652
956.9359
956.5596
956.3554
956.2528
956.1445
956.0089
955.9414
956.0781
956.5051
957.139
958.0577
958.8956
953.3434
953.4563
953.7199
954.1349
954.5181
954.9486
955.4259
955.8737
956.2759
956.6889
957.1184
957.4904
957.7553
957.9621
958.2402
958.5839
958.9064
959.1001
959.0868
958.8448
958.4091
957.8503
957.2512
956.6895
956.2271
955.9074
955.7268
955.6228
955.5053
955.351
955.2234
955.2342
955.4644
955.9134
956.6759
957.5856
953.4504
953.5818
953.8271
954.2655
954.6416
955.0064
955.4379
955.9144
956.3605
956.7676
957.1484
957.4938
957.8049
958.1393
958.4678
958.7177
958.8132
958.7059
958.3924
957.9124
957.3338
956.7317
956.1729
955.7072
955.358
955.1308
954.9971
954.9027
954.7813
954.6353
954.5144
954.5031
954.6315
954.9776
955.4169
956.1993
953.6108
953.6686
953.8141
954.2514
954.664
955.0222
955.3981
955.8662
956.3514
956.8085
957.2297
957.6221
957.9724
958.2387
958.3679
958.3236
958.0928
957.6923
957.1663
956.5765
955.9882
955.4564
955.0184
954.6927
954.4638
954.3155
954.2156
954.1266
954.0005
953.8706
953.7855
953.8126
953.914
954.2449
954.5684
955.2072
953.523
953.6575
954.0637
954.5039
954.8809
955.2213
955.615
956.0689
956.5291
956.9396
957.2497
957.4377
957.4764
957.3533
957.073
956.6604
956.1579
955.6183
955.0949
954.633
954.2595
953.9817
953.7956
953.6574
953.5611
953.4834
953.4052
953.275
953.1607
953.1033
953.1476
953.2639
953.595
953.8559
953.3327
953.4132
953.6798
954.1135
954.4899
954.8033
955.1016
955.4145
955.7052
955.9406
956.0849
956.1106
956.0019
955.763
955.4166
955.0021
954.5657
954.1516
953.7939
953.5146
953.3153
953.1808
953.1026
953.0293
952.9855
952.9416
952.8885
952.7477
952.6407
952.5778
952.5899
952.6957
953.0221
953.3359
953.2647
953.2682
953.3876
953.6844
953.9921
954.2521
954.4588
954.6456
954.778
954.8411
954.8218
954.7109
954.5009
954.2131
953.8825
953.5517
953.2563
953.0172
952.8444
952.7386
952.6846
952.6591
952.6688
952.6678
952.6936
952.6887
952.6583
952.4867
952.3658
952.2643
952.2257
952.3222
952.6049
952.9096
953.0698
953.1054
953.2132
953.4313
953.6166
953.7205
953.7833
953.7772
953.7031
953.5722
953.3904
953.1457
952.8841
952.6456
952.4618
952.3441
952.2843
952.2755
952.309
952.3646
952.4272
952.5192
952.594
952.6664
952.6766
952.6468
952.4487
952.2805
952.097
951.9991
952.0604
952.3031
952.7457
952.8032
952.8714
952.9449
952.9209
952.8614
952.7389
952.5767
952.4079
952.2393
952.0339
951.8763
951.791
951.7855
951.8418
951.9304
952.046
952.1804
952.3108
952.4407
952.5833
952.6935
952.7809
952.7818
952.6899
952.3923
952.1636
951.9367
951.8701
951.8156
952.5539
952.4391
952.3665
952.2305
952.0628
951.9331
951.7407
951.5669
951.447
951.3687
951.2584
951.2537
951.3373
951.4923
951.6796
951.8665
952.0617
952.2503
952.4086
952.5685
952.733
952.8118
952.8158
952.7167
952.5316
952.1274
951.9139
951.8307
951.8205
951.8229
952.0482
951.7878
951.5466
951.1948
951.0612
950.8917
950.7915
950.7817
950.8324
950.8346
950.9812
951.1964
951.4577
951.7168
951.9474
952.1751
952.385
952.5595
952.681
952.7534
952.6941
952.5629
952.3253
952.0514
951.602
951.6648
951.7359
951.7887
951.2006
950.8084
950.4778
950.3115
950.2207
950.2519
950.3862
950.5796
950.6865
950.9524
951.2535
951.5725
951.8561
952.096
952.3078
952.4663
952.557
952.5553
952.4793
952.231
951.9568
951.5784
951.2585
951.0954
951.3866
951.5987
950.1609
949.8106
949.7781
949.7036
949.8336
950.0717
950.372
950.5429
950.8843
951.2358
951.5924
951.876
952.0883