/*--------------------------------*- C++ -*----------------------------------*\
  =========                 |
  \\      /  F ield         | OpenFOAM: The Open Source CFD Toolbox
   \\    /   O peration     | Website:  https://openfoam.org
    \\  /    A nd           | Version:  6
     \\/     M anipulation  |
\*---------------------------------------------------------------------------*/
FoamFile
{
    version     2.0;
    format      ascii;
    class       volScalarField;
    location    "49.8";
    object      T;
}
// * * * * * * * * * * * * * * * * * * * * * * * * * * * * * * * * * * * * * //

dimensions      [0 0 0 1 0 0 0];

internalField   nonuniform List<scalar> 
203709
(
959.8867
960.1765
960.4285
960.4825
958.0742
958.3417
959.0519
959.3881
959.6724
959.8444
959.8769
959.6455
956.35
956.5556
957.0854
957.3749
957.8991
958.294
958.6071
958.7986
958.8735
958.7488
958.6157
958.1508
956.3801
956.3574
956.4105
956.5662
956.7042
956.9993
957.3049
957.5694
957.7362
957.8004
957.6986
957.5283
957.2767
956.9328
956.3542
956.3528
956.3622
956.3899
956.4104
956.5129
956.6607
956.8003
956.8798
956.8831
956.7741
956.5966
956.369
956.1837
956.1604
956.2004
956.1932
956.2031
956.2231
956.2477
956.2715
956.2696
956.2871
956.2708
956.2004
956.0632
955.8864
955.7047
955.6307
955.5305
955.9435
955.9675
956.0065
956.053
956.1082
956.1487
956.16
956.1241
956.0394
955.8931
955.7518
955.697
955.7662
955.9683
956.2059
956.3146
955.3736
955.588
955.6094
955.6876
955.8018
955.921
956.0303
956.1564
956.2952
956.4218
956.5204
956.6059
956.6778
956.7454
956.8168
956.895
956.9782
956.9931
955.0114
954.9136
954.9964
955.2266
955.4911
955.6749
955.7022
955.6957
955.7452
955.8505
955.9776
956.1002
956.2144
956.324
956.4368
956.556
956.6759
956.788
954.7358
954.5816
954.4889
954.6802
955.2083
955.7132
955.8115
955.6149
955.3915
955.2872
955.3088
955.4055
955.5389
955.6871
955.8416
955.9992
956.1596
956.3403
954.5173
954.4495
954.4755
954.7688
955.2794
955.8285
956.161
956.0847
955.6673
955.2092
954.9315
954.8594
954.9287
955.0771
955.2545
955.428
955.5835
955.8597
954.5042
954.7064
955.1176
955.6511
956.1645
956.4968
956.5222
956.2067
955.6545
955.0804
954.6823
954.5347
954.5965
954.7768
954.9763
955.1309
954.8552
955.1699
955.6414
956.1452
956.5608
956.7911
956.7754
956.5009
956.0103
955.4069
954.839
954.4504
954.3122
954.4008
954.617
954.8831
955.8545
956.2841
956.6481
956.8845
956.9459
956.8171
956.5089
956.0547
955.5133
954.9633
954.5043
954.2195
954.1598
954.2718
956.4654
956.7244
956.8812
956.9313
956.8316
956.5952
956.2444
955.8139
955.3508
954.8901
954.4912
954.1812
954.0413
954.09
956.631
956.694
956.6454
956.4068
956.1073
955.7447
955.3565
954.9948
954.65
954.3727
954.0873
953.979
955.7361
955.6742
955.4142
955.0721
954.7665
954.5435
954.3049
954.2413
954.4062
954.3106
954.1568
954.1737
959.2704
959.8943
960.3609
960.756
961.0183
961.1319
961.0673
960.7966
960.3055
959.6879
957.7876
958.7709
959.29
959.8275
960.2924
960.7031
960.9941
961.1423
961.1187
960.8897
960.4249
959.8256
959.0289
958.2967
957.1206
957.726
958.56
959.1008
959.6148
960.0756
960.5189
960.8672
961.0576
961.0809
960.9356
960.5772
960.0133
959.2902
958.4882
957.7419
956.2924
956.8963
957.4561
958.1465
958.672
959.1975
959.7328
960.1356
960.5644
960.8189
960.8897
960.8547
960.5995
960.1704
959.5961
958.8622
958.1608
957.8103
955.4256
955.9664
956.4668
956.8975
957.4595
958.0479
958.4936
959.0456
959.5424
959.9689
960.2925
960.5049
960.5125
960.3504
960.0653
959.6332
959.0689
958.4671
957.9649
957.6099
954.7711
955.1719
955.5805
955.9815
956.3507
956.7072
957.1676
957.6047
958.071
958.5543
959.022
959.4219
959.7283
959.8556
959.8498
959.6423
959.2118
958.795
958.2992
957.761
957.2275
956.7485
954.7896
955.1839
955.6141
955.9887
956.2972
956.4996
956.7424
956.9832
957.2838
957.6446
958.0354
958.4043
958.7111
958.8868
958.9299
958.7933
958.3974
957.8314
957.5187
957.0895
956.5982
956.2299
954.5608
955.0211
955.583
956.0541
956.3363
956.5116
956.6616
956.7609
956.8361
956.9377
957.1017
957.3243
957.5563
957.7552
957.8667
957.8653
957.7168
957.3683
956.791
956.4795
956.1856
955.9163
955.7089
955.5456
954.7386
955.3809
955.921
956.2405
956.3876
956.483
956.6012
956.6605
956.7058
956.7585
956.8224
956.8939
956.9597
957.0117
957.0024
956.9105
956.7244
956.4383
956.0828
955.8731
955.8285
955.7731
955.6634
955.5501
954.6243
955.489
955.9525
956.1281
956.1741
956.2931
956.3821
956.446
956.5172
956.5782
956.6219
956.6391
956.6106
956.5426
956.4169
956.3435
956.3312
956.4054
956.5035
956.5546
956.6702
956.6525
956.5071
956.2712
954.3121
955.1492
955.6944
955.7569
955.8316
955.9052
956
956.1098
956.2435
956.3641
956.4815
956.6026
956.7135
956.8014
956.8662
956.9156
956.9571
956.9962
957.0342
957.0749
957.0948
957.0827
957.0366
956.916
954.0313
954.6839
955.2091
955.3248
955.306
955.2833
955.4726
955.6938
955.9196
956.0186
956.0347
956.0605
956.1255
956.2156
956.3082
956.3947
956.4758
956.5559
956.6396
956.7309
956.8295
956.9411
957.0648
957.1718
953.8578
954.2912
954.7098
954.8744
954.8652
954.7764
954.8195
955.2577
955.7942
956.052
955.9837
955.7954
955.6407
955.5798
955.6009
955.6749
955.7788
955.8933
956.0055
956.1214
956.2762
956.4275
956.6239
956.8431
953.836
954.0825
954.3568
954.5116
954.5395
954.559
954.7321
955.1749
955.7559
956.2261
956.3547
956.1162
955.7096
955.3542
955.15
955.0973
955.1577
955.2771
955.4003
955.4936
955.6127
955.6738
955.7964
955.9587
953.9841
954.1034
954.2605
954.3769
954.4938
954.6402
954.9601
955.467
956.0379
956.5042
956.7094
956.5758
956.1554
955.6106
955.1255
954.8165
954.7171
954.7859
954.9337
955.0837
955.1209
955.1238
955.0856
955.1031
954.2771
954.3444
954.4507
954.5853
954.784
955.0413
955.4719
955.9831
956.4702
956.8182
956.9424
956.8063
956.4285
955.8826
955.2917
954.7893
954.4884
954.4235
954.5481
954.7821
954.8948
954.8715
954.7609
954.6739
954.5825
954.7371
954.8674
955.0481
955.3379
955.658
956.1095
956.5298
956.8423
956.995
956.9598
956.7375
956.3505
955.8374
955.2705
954.7306
954.3394
954.1622
954.2477
954.4688
954.6855
954.7477
954.6601
954.5424
955.1288
955.3368
955.5989
955.9243
956.2976
956.5979
956.8132
956.9094
956.8559
956.6674
956.359
955.9516
955.4626
954.9582
954.4637
954.1138
953.9163
953.9856
954.1877
954.424
954.5539
954.5552
955.3486
955.6367
955.937
956.2314
956.433
956.5127
956.5268
956.4969
956.3139
956.0545
955.7119
955.3148
954.854
954.4457
954.0231
953.809
953.6986
953.7295
953.9111
954.1273
954.2596
954.331
955.551
955.7723
955.9298
956.0044
955.9791
955.8762
955.6539
955.442
955.2222
954.9056
954.5611
954.1383
953.8944
953.6668
953.4624
953.4276
953.4953
953.6431
953.7981
953.9146
955.1405
955.2163
955.1912
955.1148
954.9886
954.8118
954.5888
954.3218
954.0704
953.8277
953.6179
953.3636
953.2353
953.1704
953.1694
953.221
953.3169
953.4347
954.1997
954.2583
954.1913
954.0926
953.9513
953.7864
953.6042
953.4045
953.2236
953.0735
952.9565
952.8673
952.8408
952.8482
952.822
952.9131
953.3412
953.4109
953.3454
953.212
953.0826
952.9496
952.8147
952.6899
952.5877
952.5116
952.4582
952.4306
952.3875
952.2917
952.5293
952.5409
952.4866
952.3986
952.3003
952.2082
952.1289
952.055
951.9718
951.9375
959.1419
959.5994
960.0382
960.3497
960.5277
960.5705
960.4767
960.2679
957.2374
958.1075
958.9339
959.4367
959.8866
960.2981
960.5828
960.7298
960.7294
960.5808
960.3234
959.8134
959.4021
959.1287
956.7955
957.4528
958.377
959.1583
959.7013
960.1622
960.5554
960.8155
960.9312
960.8853
960.6685
960.2877
959.7171
959.2214
958.8267
958.4452
955.0893
956.0864
956.8698
957.6632
958.5455
959.2714
959.9292
960.4073
960.7953
961.0392
961.1293
961.0443
960.7666
960.285
959.6099
959.0323
958.4612
957.897
957.2374
956.9134
954.5288
955.1755
956.177
956.963
957.7334
958.7429
959.4109
960.104
960.6051
961.0042
961.2475
961.3265
961.2208
960.9117
960.3809
959.6625
958.9303
958.1998
957.4925
956.7838
956.1798
955.7013
953.8881
954.534
955.2872
956.2339
956.9969
957.8097
958.7715
959.4384
960.098
960.6234
961.0516
961.3258
961.4305
961.3506
961.0707
960.5665
959.8402
959.0486
958.2327
957.3985
956.6779
956.1064
955.6919
955.5854
953.9052
954.5976
955.3543
956.2118
956.99
957.7487
958.5935
959.2389
959.8676
960.4112
960.8739
961.2041
961.3663
961.3477
961.1645
960.7803
960.1412
959.3698
958.5194
957.6892
956.9212
956.2911
955.9172
955.6773
953.3242
953.9533
954.6465
955.3685
956.1405
956.821
957.4588
958.16
958.7522
959.3339
959.8829
960.3743
960.7711
961.04
961.1456
961.0856
960.8342
960.3614
959.7167
958.9426
958.152
957.3898
956.8943
956.2347
955.7811
955.8376
952.6795
953.3436
953.9851
954.6707
955.2981
955.9358
956.511
957.0201
957.5598
958.057
958.5596
959.0717
959.5773
960.0165
960.3647
960.5888
960.6596
960.5527
960.2473
959.7284
959.0919
958.4025
957.7065
957.0069
956.4096
955.9278
955.8882
956.202
952.7315
953.3967
954.0261
954.6548
955.2226
955.7887
956.3042
956.734
957.1158
957.4588
957.8095
958.1969
958.6203
959.0361
959.4004
959.6739
959.8181
959.807
959.6131
959.2022
958.6217
958.0348
957.436
956.8008
956.199
955.865
955.8133
956.138
952.7991
953.4196
954.0944
954.6736
955.3559
955.987
956.4916
956.8391
957.087
957.2715
957.4456
957.652
957.908
958.1955
958.4632
958.6702
958.777
958.7532
958.5736
958.2117
957.676
957.1721
956.6945
956.2957
955.9027
955.7159
955.7707
956.0535
952.4372
952.8698
953.4139
954.0901
954.8578
955.6981
956.3267
956.7044
956.9161
957.0605
957.1543
957.2371
957.3418
957.475
957.6248
957.731
957.7995
957.7893
957.6765
957.4545
957.1213
956.7411
956.4413
956.2544
956.0925
955.9087
955.7619
955.9065
956.2209
956.5574
952.5722
952.9082
953.3825
953.9901
954.992
955.925
956.4044
956.6044
956.7293
956.8235
956.8981
956.9731
957.0544
957.1346
957.2032
957.2217
957.1868
957.0691
956.9522
956.8766
956.8801
956.9085
956.9095
956.9261
956.8338
956.6136
956.2955
956.2662
956.4059
956.5735
952.7391
952.9734
953.3475
953.8533
954.7807
955.8262
956.1873
956.2547
956.317
956.4009
956.5023
956.6375
956.7682
956.8869
957.0001
957.1001
957.1768
957.2287
957.2639
957.292
957.3195
957.3459
957.3669
957.3885
957.3436
957.2172
956.9725
956.8449
956.8205
956.8093
952.9445
953.0885
953.3506
953.7347
954.4752
955.3857
955.8138
955.7946
955.709
955.8315
956.0156
956.2504
956.3963
956.4436
956.4678
956.5108
956.5749
956.6466
956.7186
956.7921
956.8697
956.9512
957.0345
957.1201
957.2044
957.2711
957.2841
957.2626
957.223
957.1672
953.1873
953.2707
953.4311
953.6912
954.2116
954.8861
955.3124
955.3858
955.2642
955.2026
955.5125
956.0373
956.378
956.4072
956.2679
956.1009
955.9914
955.9587
955.9916
956.0743
956.1865
956.3017
956.3959
956.4783
956.6008
956.7856
957.0111
957.2233
957.4448
957.6584
953.4473
953.5164
953.6103
953.7669
954.0913
954.5277
954.8625
955
955.0129
955.077
955.4082
955.9506
956.4718
956.7227
956.6158
956.2745
955.8949
955.6096
955.4661
955.4633
955.5647
955.7032
955.7936
955.7988
955.796
955.8683
956.0488
956.2574
956.4913
956.694
953.6845
953.7941
953.8774
953.9761
954.1658
954.423
954.659
954.8208
954.9509
955.1928
955.6403
956.2096
956.7393
957.056
957.0505
956.7332
956.2267
955.6998
955.2926
955.0844
955.0847
955.2291
955.371
955.3643
955.2352
955.0959
955.0624
955.0903
955.2143
955.5
953.8578
954.0632
954.188
954.2892
954.4276
954.5985
954.7853
954.9816
955.2233
955.6145
956.1311
956.6652
957.0954
957.3198
957.2815
956.9809
956.4758
955.8745
955.3097
954.9106
954.7554
954.8371
955.0169
955.0856
954.9668
954.732
954.5495
954.3988
954.3632
954.64
954.2367
954.4619
954.638
954.8089
954.9869
955.1955
955.4565
955.8038
956.2626
956.7196
957.101
957.3312
957.3699
957.2055
956.8531
956.3521
955.7699
955.1945
954.74
954.4974
954.5051
954.6616
954.7756
954.7154
954.5049
954.3182
954.0902
953.9723
954.2323
954.5814
954.8655
955.1032
955.3712
955.6608
955.9986
956.401
956.7677
957.0425
957.1897
957.1918
957.0466
956.7597
956.3524
955.8571
955.3287
954.8233
954.4322
954.2109
954.1938
954.3023
954.3918
954.3443
954.2182
953.9901
953.8666
953.7742
954.0639
954.4511
954.8483
955.2027
955.5225
955.8757
956.2239
956.505
956.688
956.7598
956.7224
956.5673
956.313
955.9753
955.566
955.1137
954.676
954.2843
954.0098
953.8671
953.852
953.9041
953.9219
953.8345
953.7606
953.5805
953.4923
953.5136
954.2555
954.5939
954.903
955.2549
955.5665
955.8028
955.9426
955.9849
955.9371
955.8062
955.5999
955.3336
955.0115
954.6568
954.2926
953.9745
953.717
953.5463
953.4723
953.4446
953.4176
953.3449
953.2604
953.0384
953.0108
953.0692
954.1078
954.4178
954.6265
954.7699
954.9461
955.0109
954.9975
954.9164
954.7721
954.5761
954.337
954.0672
953.793
953.5397
953.3274
953.1746
953.0816
953.0288
952.9289
952.7989
952.7122
952.4241
952.3452
952.3852
953.259
953.5271
953.7372
953.8764
953.9325
954.0192
954.005
953.9401
953.8169
953.648
953.4505
953.2447
953.0503
952.8849
952.7566
952.6658
952.586
952.4883
952.2585
952.1094
951.8278
951.6688
951.5459
951.6738
952.8856
953.0587
953.1547
953.2079
953.18
953.1402
953.0995
952.9866
952.8425
952.689
952.5421
952.4125
952.3059
952.2144
952.1244
951.9939
951.8077
951.5189
951.1924
951.0967
950.8787
950.9309
952.3565
952.5063
952.5745
952.5254
952.4441
952.3628
952.2544
952.1359
952.0198
951.9145
951.8205
951.7311
951.6238
951.487
951.3648
950.9881
950.6617
950.5229
950.4464
950.3422
951.8673
951.8565
951.8215
951.7788
951.6592
951.5464
951.444
951.3511
951.2592
951.1507
950.9977
950.8082
950.6589
950.394
949.969
950.0034
951.2151
951.2531
951.2455
951.0669
950.9529
950.8594
950.7686
950.6654
950.53
950.3465
950.1566
950.0614
949.8465
949.5504
950.4092
950.3441
950.265
950.1793
950.0743
949.9377
949.783
949.6633
958.4563
958.8971
959.2926
959.5683
959.7309
959.7728
956.153
956.9385
957.7208
958.5125
958.9376
959.4097
959.773
960.015
960.1508
960.2149
960.0937
959.8586
959.6013
959.4148
954.9368
955.8469
956.5485
957.3831
958.0647
958.9685
959.4701
959.9346
960.26
960.4532
960.5216
960.4639
960.224
959.9235
959.604
959.3334
959.0341
958.8875
954.5698
955.1942
956.0276
956.9463
957.8704
958.6865
959.4593
960.1009
960.5458
960.8176
960.9407
960.9167
960.7355
960.3755
959.9695
959.5606
959.1812
958.8397
958.5809
958.3529
954.0042
954.6724
955.3873
956.3649
957.3127
958.3684
959.267
960.0655
960.6895
961.0954
961.3072
961.3541
961.2344
960.9456
960.5041
960.0018
959.4855
958.9761
958.5362
958.1384
957.7505
957.4625
953.4193
954.0134
954.8432
955.735
956.6356
957.6903
958.7993
959.7595
960.5875
961.1974
961.5681
961.7254
961.6987
961.486
961.0921
960.5483
959.9334
959.3037
958.6843
958.0732
957.5287
956.9537
956.3073
955.9136
952.8305
953.4702
954.1812
955.0362
955.9567
956.8952
957.9887
959.1252
960.1059
960.9523
961.5627
961.9228
962.0512
961.9758
961.6949
961.2168
960.5753
959.8433
959.0843
958.3297
957.5861
956.8639
956.169
955.6894
955.43
955.622
952.1588
952.8931
953.5632
954.3542
955.2128
956.135
957.0952
958.1857
959.2915
960.2426
961.0783
961.7044
962.097
962.2509
962.1824
961.8913
961.3965
960.7108
959.8959
959.0309
958.171
957.3542
956.6143
956.0207
955.7122
955.7279
955.9595
956.2508
951.7042
952.2816
952.9591
953.6493
954.4841
955.3497
956.2689
957.2155
958.2385
959.251
960.1263
960.9182
961.5555
962.0002
962.2386
962.2785
962.0891
961.6525
960.9924
960.1709
959.2681
958.3528
957.5045
956.7872
956.2579
955.9969
955.9298
956.2053
956.4641
956.6279
951.8041
952.35
953.0122
953.805
954.5968
955.4519
956.3418
957.2072
958.0976
958.9679
959.7407
960.4688
961.112
961.6275
961.9704
962.1218
962.0634
961.779
961.2652
960.5684
959.7312
958.8353
957.9863
957.2483
956.7002
956.1972
956.0043
956.3124
956.6521
956.816
951.5358
951.9391
952.4197
953.1514
953.9009
954.6828
955.5055
956.3104
957.033
957.7309
958.4087
959.0376
959.6612
960.2627
960.8049
961.2337
961.5124
961.6126
961.5119
961.1983
960.6972
960.0288
959.2623
958.483
957.7411
957.0319
956.3986
956.0803
956.392
956.7633
956.9581
957.1577
951.6733
952.0219
952.5018
953.2348
953.9721
954.7445
955.5042
956.1969
956.7997
957.3337
957.8129
958.2546
958.7115
959.1995
959.6967
960.1496
960.5023
960.7129
960.7522
960.6049
960.2767
959.7713
959.1306
958.4449
957.7492
957.0521
956.4422
956.1393
956.3554
956.8364
957.0476
957.2991
951.8656
952.1487
952.5946
953.2952
954.0256
954.8074
955.5632
956.247
956.8216
957.2622
957.5891
957.8515
958.1113
958.4158
958.7633
959.1185
959.4177
959.6138
959.6729
959.5751
959.3179
958.904
958.3594
957.7673
957.2051
956.7282
956.3281
956.1401
956.3256
956.7581
957.0377
957.2337
952.0715
952.3096
952.7322
953.3458
954.0516
954.8998
955.7818
956.5215
957.0361
957.3473
957.5372
957.6677
957.7926
957.9513
958.1548
958.3759
958.5231
958.5981
958.5651
958.4072
958.1324
957.7482
957.346
957.017
956.755
956.5114
956.2918
956.2183
956.4269
956.7529
956.9694
957.0709
952.1177
952.3442
952.5127
952.8594
953.3782
954.0329
954.9317
956.0062
956.6908
957.0326
957.2006
957.3062
957.3917
957.472
957.5704
957.6835
957.7945
957.8493
957.8293
957.7081
957.5462
957.4244
957.3923
957.381
957.3457
957.2855
957.1199
956.8531
956.6269
956.6821
956.868
956.9783
957.081
957.0975
952.314
952.5403
952.7181
952.9979
953.413
953.9779
954.8087
955.939
956.5827
956.7386
956.796
956.865
956.9617
957.0824
957.2177
957.3384
957.446
957.5362
957.6017
957.6419
957.666
957.6871
957.7124
957.738
957.7544
957.7572
957.6881
957.5193
957.2902
957.193
957.192
957.1304
957.1797
957.2602
952.5008
952.7547
952.9425
953.1709
953.4826
953.9269
954.6161
955.5976
956.2458
956.33
956.2157
956.2703
956.4171
956.6435
956.8229
956.9007
956.9301
956.9567
956.9969
957.0482
957.1084
957.1805
957.2646
957.3515
957.4308
957.5058
957.5837
957.654
957.6899
957.6836
957.6526
957.5574
957.5456
957.9457
952.6457
952.957
953.1783
953.3869
953.6167
953.9361
954.4415
955.1931
955.7818
955.9347
955.807
955.6846
955.8634
956.3669
956.7677
956.8814
956.7974
956.6332
956.4875
956.4065
956.4005
956.4657
956.5822
956.7065
956.7914
956.8385
956.9056
957.034
957.2091
957.3967
957.579
957.7424
957.8095
957.6993
952.7243
953.1127
953.3971
953.6304
953.8241
954.0455
954.3793
954.879
955.3394
955.5525
955.551
955.5432
955.7695
956.2635
956.8149
957.1627
957.1708
956.9002
956.5169
956.1704
955.9472
955.8823
955.9633
956.1113
956.1986
956.1578
956.0562
956.0006
956.0391
956.1506
956.3017
956.4845
956.5397
956.5724
952.7892
953.2041
953.5664
953.8624
954.0798
954.2625
954.4795
954.7836
955.0923
955.3093
955.4408
955.6037
955.9749
956.5212
957.0906
957.4965
957.6007
957.3756
956.9093
956.3555
955.8696
955.5679
955.5026
955.6268
955.7656
955.7305
955.5124
955.243
955.042
954.943
954.9184
955.0712
955.1678
955.6061
953.2368
953.6755
954.021
954.3192
954.5411
954.7308
954.9398
955.1618
955.3708
955.598
955.9405
956.4391
956.9968
957.4901
957.7992
957.8454
957.61
957.1372
956.5255
955.9084
955.429
955.1965
955.2259
955.3704
955.396
955.1961
954.8492
954.5084
954.2676
954.0997
954.1472
954.1501
953.0962
953.5524
954.0369
954.4483
954.7759
955.0355
955.2671
955.5019
955.7625
956.0873
956.5446
957.0409
957.4785
957.7774
957.8809
957.765
957.439
956.9418
956.3412
955.7293
955.2216
954.9227
954.8716
954.9618
954.9873
954.816
954.4828
954.1194
953.8482
953.6991
953.5856
953.6347
952.8553
953.3781
953.9089
954.4079
954.8481
955.2272
955.5651
955.8938
956.2491
956.6621
957.0643
957.3805
957.5807
957.6316
957.5183
957.2468
956.8396
956.3342
955.7853
955.2571
954.8317
954.5741
954.4987
954.5135
954.4676
954.2701
953.9558
953.6147
953.3908
953.3228
953.2344
953.2859
952.5375
953.063
953.6294
954.125
954.6527
955.1402
955.5861
956.0078
956.4004
956.719
956.9357
957.0379
957.0228
956.8966
956.6642
956.331
955.9204
955.4664
955.0168
954.6156
954.3136
954.1343
954.0479
953.97
953.8146
953.5586
953.2505
952.9624
952.8148
952.8289
952.8249
952.9824
952.7895
953.1749
953.7353
954.2082
954.7188
955.1829
955.553
955.8236
956.0048
956.0905
956.081
955.981
955.8011
955.5537
955.2461
954.8986
954.5418
954.215
953.9438
953.7442
953.6114
953.4751
953.2801
953.0214
952.7294
952.4391
952.2316
952.2259
952.1814
952.3505
952.2699
952.7108
953.0786
953.6335
954.0694
954.4059
954.674
954.8731
954.9917
955.0271
954.984
954.8694
954.6941
954.4712
954.2162
953.9489
953.6938
953.4715
953.2916
953.1371
952.9875
952.7488
952.4456
952.145
951.8659
951.635
951.5889
951.5162
951.6254
951.8397
952.3113
952.6328
952.9376
953.2879
953.5781
953.7946
953.945
954.0274
954.0372
953.9823
953.8691
953.7086
953.5171
953.3137
953.1161
952.9377
952.78
952.6328
952.4532
952.2402
951.8951
951.5623
951.2955
951.0858
950.923
950.9475
950.9608
951.1183
952.1316
952.3714
952.578
952.8113
952.9832
953.1033
953.1595
953.1524
953.0921
952.983
952.8387
952.6782
952.518
952.3685
952.2302
952.0869
951.9191
951.6806
951.425
951.0449
950.7688
950.6015
950.4699
950.4233
950.399
950.5296
951.8602
952.0609
952.1663
952.2506
952.3396
952.3733
952.3527
952.2847
952.1832
952.0542
951.918
951.7861
951.6596
951.5273
951.3646
951.1668
950.9052
950.6766
950.3316
950.1693
950.094
950.0855
950.0268
950.0957
951.5147
951.6135
951.6247
951.6457
951.6419
951.6117
951.5364
951.4445
951.3215
951.1984
951.0809
950.961
950.8206
950.6456
950.4596
950.2403
950.1058
949.8097
949.8138
949.7626
949.8428
949.829
951.0479
951.0743
951.0493
950.9868
950.9238
950.8284
950.7386
950.6082
950.497
950.3966
950.2883
950.1576
950.0175
949.8952
949.7471
949.6909
949.5002
949.5726
949.6185
949.702
950.4974
950.5323
950.3786
950.316
950.1625
950.0943
949.9142
949.8294
949.7627
949.6838
949.591
949.5289
949.5372
949.4217
949.4388
949.3006
949.4486
949.5318
949.7189
949.7329
949.5942
949.4929
949.3259
949.2909
949.2731
949.2385
949.2017
949.2276
949.3349
949.2359
949.2538
949.0827
948.8333
948.8623
948.9037
948.9167
948.922
948.9355
956.1028
956.8089
957.4892
958.0107
958.4647
958.7947
959.0308
959.1849
959.2345
959.1766
954.4528
955.1661
956.0349
956.607
957.3148
958.1447
958.6746
959.1003
959.3965
959.5863
959.6742
959.6673
959.617
959.4383
959.2519
959.078
954.2289
954.6646
955.7045
956.5773
957.3185
958.161
958.8779
959.5691
959.9709
960.2036
960.2901
960.2201
960.0787
959.8858
959.6272
959.3704
959.1397
958.9026
952.956
953.6852
954.4898
955.2592
956.2112
957.2615
958.1884
959.144
959.91
960.531
960.8703
961.0205
961.008
960.8478
960.5897
960.2615
959.8866
959.5007
959.1876
958.8969
958.5648
958.3617
952.6728
953.1056
954.0263
954.8324
955.7516
956.8171
957.9795
959.0641
960.0905
960.8675
961.3999
961.6529
961.7113
961.6036
961.3577
961.0139
960.6055
960.1662
959.7157
959.2634
958.7945
958.4103
958.0584
957.7214
952.2278
952.7813
953.4508
954.3291
955.2074
956.2081
957.3749
958.6468
959.8554
960.9245
961.6687
962.1057
962.2647
962.2242
962.0154
961.6773
961.2553
960.7863
960.294
959.777
959.2207
958.6223
958.0125
957.5519
957.0723
956.6233
951.7447
952.3391
953.0129
953.7583
954.6661
955.5622
956.6061
957.8518
959.2034
960.507
961.602
962.3029
962.6552
962.7235
962.5779
962.2527
961.7966
961.2632
960.6946
960.1082
959.4908
958.8193
958.0938
957.3317
956.5987
956.1508
955.8833
955.7078
951.3122
951.8738
952.4935
953.3035
954.092
954.9672
955.865
956.9315
958.2158
959.603
960.9672
962.0846
962.7608
963.0612
963.0627
962.8264
962.3858
961.7952
961.1139
960.3876
959.6344
958.8445
958.0132
957.1736
956.3989
955.8135
955.5506
955.5288
955.5425
955.6425
951.4241
951.9814
952.749
953.5772
954.3605
955.201
956.1005
957.186
958.4845
959.8512
961.1694
962.2943
962.9997
963.3135
963.3159
963.066
962.5686
961.879
961.0752
960.2089
959.3091
958.3941
957.5001
956.7097
956.1449
955.9091
955.8764
955.9258
956.0027
955.9335
951.1961
951.6302
952.2087
952.9954
953.7908
954.5525
955.3712
956.2828
957.3758
958.6389
959.9223
961.1333
962.2091
962.9699
963.393
963.4965
963.291
962.8023
962.0973
961.2558
960.3286
959.361
958.4041
957.5353
956.8543
956.4511
956.2622
956.2963
956.4851
956.5155
956.436
956.3043
951.0745
951.3608
951.7622
952.4313
953.1923
953.9492
954.685
955.5004
956.4257
957.4852
958.6332
959.76
960.8101
961.777
962.5469
963.0643
963.3061
963.264
962.9362
962.3564
961.5958
960.7226
959.7839
958.8401
957.9806
957.2837
956.7912
956.4545
956.5397
956.9115
957.0744
956.984
956.6705
956.6045
951.2059
951.49
951.9456
952.6216
953.3409
954.0527
954.7766
955.6067
956.505
957.4392
958.3735
959.2564
960.0807
960.8778
961.5971
962.1796
962.5698
962.7286
962.6322
962.2926
961.7511
961.0629
960.2668
959.4211
958.5999
957.851
957.1135
956.5872
956.6668
957.1862
957.4455
957.4169
957.3419
957.1904
951.3909
951.6736
952.1589
952.7826
953.4431
954.1165
954.8541
955.6755
956.4976
957.2687
957.9659
958.5796
959.147
959.7262
960.3195
960.8853
961.3565
961.6657
961.7681
961.6527
961.3379
960.8595
960.2456
959.5369
958.7943
958.0362
957.3074
956.7425
956.7056
957.3045
957.6814
957.7886
957.8264
957.8214
951.2425
951.6135
951.8933
952.3691
952.9283
953.519
954.1702
954.918
955.7399
956.5335
957.2169
957.7594
958.171
958.5102
958.8577
959.2553
959.686
960.0967
960.4086
960.5676
960.548
960.3505
959.9964
959.5107
958.9148
958.2718
957.6749
957.1537
956.7613
956.7174
957.2488
957.71
957.8794
958.0411
958.1664
958.1429
951.4107
951.7649
952.1052
952.5794
953.075
953.5881
954.2113
954.9695
955.8949
956.7584
957.3867
957.7909
958.0368
958.2087
958.3792
958.5939
958.867
959.1473
959.3257
959.393
959.3201
959.1025
958.7536
958.3213
957.9124
957.5687
957.2597
956.9632
956.7432
956.786
957.1831
957.6155
957.8245
958.0305
958.3387
958.3953
951.5694
951.9534
952.3408
952.7961
953.2265
953.6612
954.2345
954.9836
956.0629
956.9648
957.4473
957.6822
957.811
957.9091
958.0058
958.1186
958.2593
958.4024
958.4793
958.4584
958.3213
958.115
957.9753
957.9219
957.8827
957.8131
957.6891
957.458
957.181
957.0897
957.285
957.5662
957.749
957.9044
958.2307
958.5079
951.6909
952.1311
952.5739
953.0104
953.3912
953.7531
954.2493
954.9337
955.9883
956.9386
957.2271
957.309
957.3717
957.4601
957.5659
957.6986
957.8195
957.9214
958.001
958.0543
958.0827
958.0977
958.116
958.1427
958.1672
958.1744
958.1537
958.0584
957.8672
957.6923
957.7022
957.7945
957.8927
958.0951
958.3671
958.3699
951.7783
952.2696
952.7627
953.2123
953.5745
953.8773
954.2787
954.8509
955.7552
956.6144
956.8688
956.7669
956.7698
956.8862
957.0831
957.2848
957.3909
957.4295
957.4432
957.4598
957.4893
957.5369
957.6088
957.7005
957.79
957.8579
957.9159
957.9875
958.0673
958.1335
958.1895
958.2669
958.3748
958.4478
958.3009
957.7652
951.8135
952.3506
952.8941
953.3826
953.7652
954.0455
954.3512
954.7903
955.4826
956.1879
956.4761
956.3814
956.2246
956.2819
956.7501
957.1984
957.3882
957.3644
957.2142
957.0404
956.9129
956.8663
956.9125
957.0326
957.163
957.2301
957.234
957.2533
957.3432
957.484
957.6165
957.6939
957.675
957.5305
957.2359
956.7819
951.7919
952.3658
952.952
953.4942
953.933
954.2415
954.4905
954.8042
955.287
955.8089
956.0987
956.1191
956.069
956.1995
956.6385
957.2082
957.6388
957.7533
957.5577
957.1847
956.7902
956.4935
956.3674
956.4256
956.5807
956.6594
956.5661
956.3767
956.2218
956.1527
956.1338
956.1125
956.0587
955.9803
955.9266
955.7679
951.7715
952.3599
952.907
953.5135
954.0332
954.42
954.689
954.9298
955.2475
955.6085
955.8679
955.9928
956.1043
956.3941
956.9004
957.4911
957.9696
958.1708
958.0319
957.6086
957.0391
956.489
956.1068
955.9842
956.0905
956.2243
956.1504
955.8447
955.4734
955.1773
954.9795
954.8391
954.7419
954.6844
954.8086
954.8724
951.6782
952.1788
952.8147
953.4598
954.0427
954.5255
954.8829
955.1439
955.3922
955.6555
955.8987
956.1158
956.3864
956.8354
957.3885
957.9197
958.2928
958.4082
958.2291
957.786
957.1694
956.5132
955.9733
955.6838
955.6758
955.7933
955.7721
955.4867
955.0399
954.6182
954.3071
954.0817
953.9298
953.9191
953.9156
954.1552
951.5167
952.0221
952.6334
953.3104
953.9488
954.5152
954.9843
955.3493
955.6443
955.9184
956.198
956.5187
956.9535
957.447
957.9019
958.2331
958.3727
958.2869
957.9789
957.4863
956.8762
956.2428
955.7038
955.3718
955.2852
955.3285
955.2824
955.0144
954.5774
954.1363
953.8004
953.565
953.391
953.4075
953.406
953.6481
951.9391
952.4618
953.1144
953.7738
954.3889
954.9396
955.4187
955.8325
956.2078
956.5834
956.9978
957.4168
957.7594
957.9751
958.0342
957.9254
957.655
957.2472
956.7408
956.189
955.6569
955.2216
954.9484
954.8393
954.7934
954.6603
954.3639
953.9453
953.5349
953.2341
953.0371
952.9076
952.9652
952.974
951.6177
952.1336
952.7194
953.428
954.094
954.7046
955.2588
955.7618
956.2183
956.616
956.9367
957.1633
957.2821
957.2844
957.1639
956.9295
956.5974
956.1931
955.7503
955.3105
954.9168
954.6105
954.4128
954.2834
954.1388
953.905
953.5727
953.1782
952.8218
952.5793
952.4332
952.3713
952.5016
952.5986
951.315
951.6904
952.3109
952.9834
953.6448
954.2543
954.7895
955.2392
955.6041
955.8904
956.0898
956.1992
956.2151
956.1388
955.9731
955.7304
955.4284
955.0917
954.7492
954.431
954.1595
953.9433
953.776
953.5918
953.3529
953.0569
952.7308
952.3846
952.0955
951.9168
951.8174
951.8746
951.9857
952.2017
951.4806
951.9288
952.4371
953.0332
953.6041
954.0946
954.4816
954.7735
954.9804
955.1044
955.1516
955.1222
955.018
954.8462
954.622
954.3652
954.0988
953.8441
953.6146
953.4127
953.2218
953.0363
952.7857
952.5074
952.2297
951.9686
951.6971
951.4691
951.3062
951.2393
951.3459
951.5577
951.512
951.9011
952.3875
952.9112
953.3633
953.712
953.9601
954.1197
954.1976
954.203
954.1424
954.0194
953.8462
953.6413
953.4247
953.2135
953.0165
952.831
952.6462
952.4379
952.2373
951.974
951.757
951.5784
951.4187
951.1641
950.9311
950.771
950.7821
950.836
951.0794
951.428
951.7776
952.1863
952.602
952.9276
953.1519
953.2853
953.3357
953.3126
953.229
953.0942
952.926
952.7436
952.562
952.389
952.2214
952.0486
951.8643
951.6566
951.512
951.334
951.2657
951.1746
951.0277
950.7165
950.4577
950.3941
950.3888
950.5078
951.1434
951.403
951.6438
951.9146
952.1761
952.3571
952.4591
952.4875
952.4518
952.3517
952.2093
952.0537
951.8977
951.7481
951.6041
951.4565
951.3029
951.1581
951.0249
951.0257
950.9706
950.9766
950.8681
950.6721
950.2845
950.1426
950.0909
950.1476
951.0212
951.1966
951.3055
951.4484
951.5789
951.6397
951.6481
951.6113
951.5013
951.3602
951.2301
951.1098
951
950.8943
950.7883
950.6993
950.6603
950.6415
950.7473
950.6956
950.6918
950.517
950.2793
949.9957
949.9009
949.9227
950.7891
950.7686
950.8229
950.8518
950.8475
950.8314
950.8018
950.6761
950.5492
950.4711
950.4104
950.3633
950.3191
950.2837
950.2776
950.3224