/*--------------------------------*- C++ -*----------------------------------*\
  =========                 |
  \\      /  F ield         | OpenFOAM: The Open Source CFD Toolbox
   \\    /   O peration     | Website:  https://openfoam.org
    \\  /    A nd           | Version:  6
     \\/     M anipulation  |
\*---------------------------------------------------------------------------*/
FoamFile
{
    version     2.0;
    format      ascii;
    class       volScalarField;
    location    "49.8";
    object      T;
}
// * * * * * * * * * * * * * * * * * * * * * * * * * * * * * * * * * * * * * //

dimensions      [0 0 0 1 0 0 0];

internalField   nonuniform List<scalar> 
203709
(
958.7113
959.0069
959.3781
959.5143
957.8128
957.9048
958.1879
958.3826
958.6527
958.8711
959.1036
958.8835
957.6518
957.6839
957.6953
957.7173
957.815
957.9231
958.073
958.1923
958.3176
958.2485
958.3354
958.1444
957.5701
957.5943
957.5955
957.5974
957.5981
957.6063
957.6295
957.6782
957.7052
957.735
957.6779
957.6622
957.6017
957.4588
957.5127
957.5404
957.5661
957.5879
957.6035
957.5976
957.5571
957.5138
957.4993
957.4921
957.4334
957.3991
957.3955
957.3437
957.3326
957.3381
957.3732
957.4263
957.4769
957.606
957.6997
957.6593
957.5268
957.4301
957.4311
957.5021
957.5944
957.6844
957.7672
957.7725
957.1702
957.0513
956.8571
956.6347
956.8702
957.3011
957.7164
957.8878
957.7249
957.4027
957.1569
957.0788
957.1297
957.239
957.352
957.4495
956.7804
956.9714
956.8231
956.5618
956.3088
956.3241
956.7246
957.37
957.9179
958.0502
957.7476
957.268
956.8765
956.6863
956.6707
956.7552
956.8952
956.8925
956.5367
956.6646
956.5827
956.3909
956.2398
956.3
956.6495
957.218
957.7831
958.0903
958.0063
957.5954
957.0568
956.5992
956.3365
956.2702
956.3419
956.5242
956.2614
956.3723
956.3455
956.2471
956.2236
956.4083
956.8184
957.35
957.8206
958.0633
958.0034
957.6734
957.1783
956.6565
956.2361
955.994
955.9397
956.0693
956.1172
956.1842
956.2028
956.2092
956.3541
956.6917
957.1585
957.619
957.9294
958.0038
957.8371
957.4835
957.0253
956.5456
956.1224
955.8203
955.6737
955.766
956.2119
956.2893
956.4408
956.7623
957.1833
957.5902
957.8656
957.9354
957.7917
957.4787
957.0659
956.6237
956.2019
955.8451
955.5844
955.4603
956.4737
956.6963
957.0167
957.3792
957.6907
957.8641
957.8494
957.6479
957.3041
956.8806
956.4402
956.0326
955.6826
955.4166
955.2328
955.2558
957.2468
957.5479
957.7338
957.7663
957.6326
957.3465
956.9522
956.5032
956.0579
955.6552
955.3268
955.0665
954.9024
954.8377
957.2989
957.4657
957.3373
957.1046
956.7745
956.3646
955.9237
955.4939
955.1201
954.8132
954.5959
954.4251
954.3706
954.4937
956.1368
956.1467
955.9087
955.561
955.1673
954.7913
954.4571
954.2036
954.0085
953.892
953.7574
953.8666
954.4441
954.4001
954.0409
953.7508
953.5239
953.3816
953.274
953.3141
952.9326
952.8676
952.7455
952.7573
959.0247
959.6478
960.119
960.5482
960.9189
961.2618
961.6313
962.0351
962.4532
962.6925
957.3289
958.2343
958.8637
959.3262
959.7725
960.2217
960.6409
961.02
961.387
961.7514
962.1103
962.3863
962.4548
962.3182
956.7507
957.2931
957.8836
958.4011
958.7995
959.2078
959.6838
960.1813
960.6057
960.9662
961.2953
961.6285
961.8703
961.9701
961.9241
961.6415
956.3153
956.7923
957.2077
957.6062
957.9684
958.2593
958.6527
959.0436
959.5584
960.0104
960.3645
960.8107
961.0293
961.1962
961.3136
961.2923
961.094
960.7726
956.0416
956.6285
957.0928
957.4392
957.7039
957.8775
958.0078
958.219
958.5136
958.8887
959.2897
959.7204
960.0084
960.2235
960.5013
960.5416
960.497
960.3595
960.1416
959.8468
955.6584
956.4568
957.1062
957.4794
957.7069
957.8684
957.9426
957.9692
958.0738
958.1961
958.4291
958.6904
959.0138
959.2724
959.5183
959.6092
959.489
959.5714
959.4553
959.2806
959.1122
958.8786
956.1494
956.9052
957.3911
957.6526
957.7995
957.8819
957.9598
957.9884
958.0212
958.0561
958.1282
958.2438
958.4297
958.5502
958.6702
958.7089
958.5918
958.3039
958.3216
958.2152
958.0719
958.003
954.8346
956.1515
957.0864
957.4826
957.6657
957.7495
957.8733
957.9433
957.9786
957.9989
958.005
957.9847
957.9662
957.9957
958.0325
958.0448
958.0068
957.898
957.6824
957.7269
957.7162
957.7
957.6927
957.7031
954.8244
956.0318
956.9856
957.4137
957.5588
957.6511
957.7385
957.8034
957.8572
957.9591
958.0561
958.0502
957.9555
957.8654
957.8387
957.8656
957.9057
957.9382
957.9381
957.9803
957.9978
958.0266
958.066
958.1019
954.8201
955.7973
956.6883
957.2197
957.3844
957.417
957.2805
957.1451
957.2947
957.6331
958.0107
958.2052
958.1193
957.8644
957.625
957.5027
957.493
957.5433
957.6098
957.6742
957.6933
957.7886
957.9076
958.0522
954.8363
955.5551
956.3285
956.8459
957.1476
957.1529
956.9403
956.6585
956.637
957.0205
957.6309
958.1659
958.3566
958.1608
957.7555
957.3583
957.0964
956.9819
956.9731
957.0866
957.0849
957.1944
957.3385
957.5472
954.9114
955.3862
955.9749
956.4619
956.7962
956.8525
956.704
956.5276
956.5404
956.8432
957.3798
957.954
958.3247
958.3424
958.029
957.5361
957.0492
956.6899
956.4905
956.4251
956.4919
956.5575
956.6941
956.8917
955.0723
955.349
955.7474
956.1331
956.4322
956.5369
956.4888
956.4453
956.5756
956.9302
957.4379
957.9367
958.2544
958.2883
958.0383
957.5846
957.053
956.5647
956.2016
955.9928
955.9993
956.0322
956.1387
956.288
955.3119
955.4637
955.7028
955.9638
956.1575
956.3018
956.3587
956.4732
956.7614
957.1965
957.6669
958.0304
958.1807
958.0835
957.7719
957.3176
956.8059
956.315
955.9066
955.6175
955.5969
955.5958
955.6907
955.8135
955.5777
955.6982
955.8427
956.0105
956.1806
956.3374
956.4972
956.7792
957.1786
957.5974
957.916
958.0444
957.9525
957.6652
957.2431
956.7551
956.2657
955.8241
955.4615
955.2653
955.1518
955.1929
955.3004
955.4343
955.7769
955.9655
956.122
956.2842
956.4593
956.6639
956.9572
957.3297
957.668
957.8801
957.9057
957.7341
957.3975
956.9485
956.4504
955.9536
955.51
955.1482
954.8711
954.822
954.7271
954.7829
954.9196
955.0936
955.833
956.1353
956.3904
956.6233
956.9067
957.15
957.4747
957.6869
957.7405
957.6192
957.3384
956.9362
956.4593
955.9493
955.4582
955.0089
954.6538
954.3995
954.3312
954.2035
954.233
954.3447
954.5213
954.7746
956.0326
956.4014
956.7357
957.046
957.1302
957.2564
957.1595
956.9448
956.6137
956.2045
955.75
955.2817
954.8155
954.4099
954.0502
953.8166
953.6572
953.6921
953.6323
953.7005
953.8617
954.0822
955.3018
955.6658
955.9444
956.0772
956.0888
955.9102
955.7337
955.548
955.2264
954.8682
954.4867
954.1073
953.7282
953.4542
953.1972
953.1031
953.0774
952.9842
953.0289
953.1131
953.299
953.6819
954.7838
954.8918
954.9102
954.8692
954.7455
954.5257
954.238
953.9547
953.6741
953.3699
953.0895
952.7996
952.6732
952.5938
952.4487
952.4597
952.3902
952.3674
952.4284
952.6455
953.9179
953.9417
953.838
953.7086
953.5089
953.2554
952.9428
952.6848
952.4386
952.2557
952.1604
952.0113
951.9943
951.9449
951.8986
951.7316
951.717
951.8381
953.1561
952.9794
952.8501
952.5835
952.3351
952.1107
951.9036
951.7301
951.6295
951.5938
951.5766
951.5352
951.4611
951.4238
951.2472
951.3239
952.1518
952.0986
951.7178
951.5175
951.3448
951.2307
951.1807
951.1728
951.1931
951.2229
951.2248
951.1666
951.1515
951.0495
950.987
950.8705
950.791
950.7877
950.8451
950.9178
950.9992
951.0742
951.1066
951.064
959.4661
960.0226
960.3931
960.6845
961.0217
961.5172
962.1834
962.9178
956.6157
957.9737
959.0643
959.6987
960.1883
960.5506
960.8377
961.1595
961.6184
962.2351
962.9318
963.333
963.4497
963.3055
956.1128
956.9523
958.1538
959.1401
959.8092
960.2987
960.6879
960.9958
961.3132
961.7281
962.2557
962.8408
963.1572
963.2103
962.9908
962.3893
954.3145
955.381
956.3003
957.1955
958.2688
959.0666
959.8079
960.3197
960.752
961.1058
961.44
961.8227
962.262
962.727
962.9808
963.04
962.7347
962.131
961.1206
960.176
953.9613
954.5429
955.531
956.4563
957.2735
958.3044
959.0383
959.6726
960.1878
960.6654
961.0855
961.4636
961.8377
962.2088
962.569
962.7827
962.8164
962.5438
961.9956
961.1755
960.0939
958.9566
953.6075
954.0959
954.7254
955.7044
956.5477
957.3786
958.1911
958.7863
959.326
959.8227
960.3271
960.807
961.2396
961.6309
961.9757
962.2752
962.4672
962.5205
962.3408
961.9239
961.24
960.4297
959.4857
959.0441
953.705
954.2369
954.9352
955.8939
956.7026
957.3712
958.0057
958.463
958.8904
959.3173
959.7849
960.2795
960.7478
961.1652
961.5391
961.8492
962.0588
962.1247
962.0125
961.6988
961.207
960.5398
959.8634
959.2792
953.4964
953.8808
954.4378
955.271
956.1969
956.9284
957.5079
957.998
958.3172
958.6042
958.9102
959.2716
959.6911
960.1333
960.5657
960.9497
961.2454
961.4669
961.5466
961.46
961.2199
960.805
960.3179
959.8165
959.2816
958.8868
953.4409
953.6149
954.0081
954.7457
955.6993
956.6372
957.3434
957.8522
958.1908
958.3739
958.5064
958.6612
958.8694
959.165
959.4868
959.8486
960.1859
960.4643
960.6541
960.6783
960.6066
960.4112
960.1086
959.6808
959.2304
958.9023
958.5488
958.2482
953.5409
953.7217
954.1523
955.0134
956.1692
957.1106
957.742
958.1184
958.3162
958.4157
958.4723
958.5302
958.6091
958.7392
958.9205
959.1817
959.3749
959.5514
959.6546
959.624
959.4499
959.2702
959.0427
958.7459
958.3673
958.1537
957.9863
957.8307
953.6937
953.8469
954.2776
955.3118
956.507
957.4268
957.9426
958.1894
958.319
958.3846
958.4201
958.4427
958.4587
958.4631
958.4834
958.5625
958.6533
958.7275
958.719
958.6185
958.4144
958.2835
958.1783
958.0839
957.9232
957.8398
957.7685
957.6231
953.8866
953.9284
954.013
954.3887
955.3874
956.5551
957.5334
957.9738
958.122
958.2013
958.2535
958.311
958.388
958.4802
958.4916
958.4197
958.3359
958.2961
958.3
958.3161
958.3178
958.2963
958.3147
958.31
958.3036
958.2875
958.2478
958.2479
958.2023
958.2108
954.0396
954.1156
954.1922
954.4918
955.3439
956.4213
957.3729
957.8501
957.9429
957.831
957.7324
957.8089
958.0803
958.4232
958.6225
958.5771
958.3609
958.1271
957.9799
957.9348
957.9511
957.9893
958.039
958.0619
958.1023
958.1596
958.2408
958.3752
958.5205
958.6484
954.1898
954.3235
954.3997
954.6162
955.266
956.1784
957.06
957.5802
957.7033
957.5228
957.2151
957.1254
957.4824
958.0576
958.571
958.7845
958.6435
958.2791
957.8803
957.5782
957.4084
957.3472
957.3697
957.4062
957.4666
957.5512
957.7075
957.9298
958.2409
958.6033
954.3147
954.5309
954.6358
954.7893
955.2358
955.9311
956.6752
957.1942
957.3711
957.2728
957.0665
957.0198
957.2723
957.7737
958.3365
958.7278
958.7933
958.5302
958.0612
957.5541
957.1378
956.8696
956.7496
956.7555
956.7981
956.8586
956.995
957.202
957.5735
958.1099
954.3848
954.7035
954.8788
955.016
955.3056
955.7797
956.3375
956.7855
956.9993
957.0097
956.9517
957.0287
957.3289
957.802
958.2972
958.6418
958.719
958.5083
958.0729
957.5272
956.9925
956.566
956.3053
956.2296
956.2384
956.2681
956.3421
956.4588
956.7596
957.314
954.3795
954.7997
955.0837
955.267
955.4812
955.7857
956.1604
956.4967
956.7099
956.8058
956.9034
957.1496
957.546
958.0002
958.376
958.5582
958.495
958.2028
957.7445
957.2037
956.6646
956.2037
955.8919
955.771
955.7541
955.7731
955.8166
955.8454
956.0145
956.4392
954.315
954.7951
955.1965
955.4803
955.7149
955.9461
956.2026
956.454
956.6623
956.8425
957.1111
957.487
957.8945
958.2223
958.3753
958.3091
958.0349
957.6043
957.0865
956.5507
956.055
955.6485
955.3903
955.2749
955.2612
955.2888
955.3533
955.3421
955.4244
955.7191
954.2414
954.6997
955.179
955.5804
955.9107
956.1782
956.4215
956.6617
956.9078
957.1983
957.5672
957.9085
958.1337
958.1797
958.0252
957.6908
957.2252
956.6916
956.1502
955.6549
955.2422
954.9389
954.7744
954.7017
954.6983
954.738
954.8487
954.8392
954.9147
955.224
954.5931
955.0575
955.5306
955.9305
956.3111
956.6412
956.9545
957.2805
957.6098
957.8308
957.9032
957.8017
957.5326
957.1251
956.6234
956.0777
955.5411
955.0552
954.6578
954.3632
954.1795
954.0681
954.0278
954.0271
954.08
954.2191
954.2516
954.3709
954.2293
954.6891
955.0688
955.6383
956.1187
956.5488
956.898
957.1277
957.2255
957.1726
956.9826
956.6689
956.2574
955.78
955.2749
954.7802
954.3391
953.9733
953.7048
953.5242
953.3995
953.3142
953.2736
953.2572
953.401
953.3945
953.5861
953.8363
953.794
954.1059
954.4668
954.828
955.2626
955.5905
955.7967
955.8887
955.8617
955.7207
955.4851
955.1585
954.7721
954.3565
953.9461
953.572
953.2707
953.0434
952.8832
952.7717
952.6256
952.5354
952.4902
952.4569
952.5883
952.671
952.9105
953.3099
953.7868
954.0216
954.1686
954.3105
954.5001
954.6081
954.6205
954.5351
954.3599
954.1052
953.7899
953.4534
953.1223
952.8282
952.5916
952.4261
952.3143
952.2091
952.1051
951.9338
951.8596
951.8321
951.8671
951.8651
952.0446
952.3229
953.521
953.6189
953.6612
953.6739
953.6735
953.5912
953.4375
953.217
952.9421
952.6472
952.3724
952.1449
951.9795
951.8738
951.8092
951.7605
951.6818
951.5858
951.4261
951.4092
951.4439
951.4205
951.4909
951.6291
953.1715
953.1592
953.1021
953.0109
952.8607
952.6598
952.4516
952.2063
951.9445
951.7048
951.53
951.4314
951.387
951.38
951.393
951.3895
951.3261
951.2534
951.1518
951.2095
951.2335
951.267
951.3332
951.4721
952.6932
952.4879
952.3689
952.0585
951.8018
951.5559
951.3227
951.124
950.9904
950.9491
950.9787
951.0336
951.1026
951.1706
951.2013
951.1553
951.1036
951.058
951.1303
951.1783
951.2354
951.2922
951.8458
951.6702
951.3089
951.0263
950.8237
950.7054
950.562
950.5518
950.6333
950.7602
950.8806
950.9974
951.0976
951.1484
951.1083
951.0442
950.995
951.0928
951.1584
951.1964
950.6564
950.4221
950.391
950.2992
950.2908
950.3807
950.5405
950.7166
950.8658
950.9993
951.1056
951.1595
951.1095
950.9877
950.9018
950.9552
950.0685
950.111
950.1273
950.2149
950.3574
950.5589
950.7572
950.9112
951.0365
951.1259
951.1718
951.0988
950.9083
950.6881
950.2092
950.4023
950.6239
950.8271
950.9688
951.0684
951.1188
951.0631
959.0377
959.488
959.8255
960.1754
960.6925
961.3646
955.6435
956.937
958.0234
959.077
959.5477
959.94
960.2552
960.6118
961.1496
961.8788
962.8287
963.4548
963.8945
964.066
954.2408
955.3257
956.0908
957.346
958.3755
959.3668
960.0029
960.4187
960.7308
961.0847
961.6037
962.2918
963.0854
963.5744
963.838
963.8441
963.6172
963.5473
953.9087
954.5245
955.5271
956.3836
957.742
958.8315
959.7688
960.5221
960.9907
961.3205
961.6729
962.1491
962.7272
963.2604
963.6235
963.7027
963.4834
963.1041
962.6789
962.1629
953.567
954.0888
954.762
955.7092
956.7849
958.0915
959.1673
960.1346
960.9099
961.4408
961.8095
962.1687
962.5979
963.0641
963.4529
963.6559
963.5621
963.1485
962.5205
961.8483
960.9106
959.974
953.3623
953.7143
954.2315
955.0616
956.0535
957.1309
958.3623
959.3843
960.3226
961.0976
961.6923
962.1314
962.522
962.9219
963.2929
963.5563
963.6328
963.4303
962.902
962.1421
961.2259
960.0963
958.8644
958.1089
953.2476
953.4923
953.8288
954.4756
955.3556
956.3447
957.4025
958.5308
959.449
960.2901
961.0256
961.6575
962.1746
962.622
963.0263
963.3472
963.5407
963.5648
963.3436
962.795
961.995
961.0008
959.7733
958.5209
957.7074
957.7115
953.2273
953.3244
953.5523
954.0044
954.7118
955.6168
956.5934
957.5876
958.5557
959.3204
960.0268
960.6855
961.3092
961.8794
962.3884
962.8285
963.1645
963.3896
963.4474
963.2809
962.8166
962.0753
961.1351
959.9565
958.683
957.7165
957.7447
958.4689
953.287
953.2977
953.3853
953.6479
954.1842
954.9331
955.8707
956.8151
957.6962
958.474
959.0707
959.6306
960.1938
960.7765
961.352
961.8978
962.3922
962.7778
963.033
963.127
963.0274
962.6894
962.1157
961.3565
960.4114
959.3843
958.4873
957.8807
958.3963
958.778
953.3131
953.3539
953.4746
953.7963
954.3718
955.1794
956.1693
957.0792
957.8342
958.4366
958.8634
959.2515
959.6635
960.1295
960.6346
961.1525
961.6525
962.0759
962.3712
962.5227
962.4984
962.2763
961.867
961.2918
960.5811
959.8086
958.9578
958.4027
958.1064
958.3827
953.1768
953.4079
953.4645
953.6095
953.9618
954.5716
955.4892
956.5981
957.4892
958.1417
958.5877
958.8571
959.0653
959.2848
959.5805
959.9488
960.3428
960.7669
961.1536
961.449
961.6223
961.6322
961.487
961.1993
960.7875
960.2603
959.6619
959.0814
958.5081
958.1161
957.9089
957.8701
953.312
953.5084
953.6053
953.7743
954.1216
954.7742
955.8628
957.115
957.9429
958.4683
958.7563
958.8995
958.9882
959.0766
959.1994
959.3821
959.6256
959.9527
960.1977
960.4009
960.5145
960.4992
960.3471
960.1116
959.7981
959.4127
958.974
958.5968
958.2596
957.916
957.76
957.6549
953.3946
953.6352
953.7727
953.9475
954.2792
954.9609
956.1671
957.5172
958.2468
958.6222
958.7906
958.8632
958.9014
958.9288
958.9548
958.9831
959.0382
959.1592
959.2918
959.4036
959.4114
959.319
959.1267
958.9275
958.7526
958.5924
958.4087
958.2333
958.0521
957.7905
957.7536
957.6266
953.4663
953.7725
953.9629
954.1365
954.4343
955.0915
956.2901
957.6454
958.3575
958.6091
958.6988
958.7465
958.8018
958.8679
958.9528
958.9738
958.9176
958.8389
958.79
958.7783
958.7802
958.7648
958.7344
958.723
958.6988
958.6627
958.611
958.5446
958.4726
958.3064
958.2082
957.9744
952.8431
953.4463
953.8817
954.1623
954.3422
954.5964
955.1712
956.2547
957.5133
958.2692
958.4747
958.4049
958.333
958.3903
958.5971
958.9064
959.102
959.0804
958.8887
958.6563
958.4877
958.413
958.4034
958.4229
958.4537
958.4693
958.4811
958.5015
958.5563
958.6514
958.7464
958.7998
958.7802
958.7947
952.9478
953.4735
953.9669
954.3368
954.5569
954.779
955.239
956.1301
957.2278
958.0023
958.2601
958.135
957.8413
957.693
958.0262
958.5687
959.0592
959.2821
959.1733
958.8327
958.429
958.0968
957.8894
957.7971
957.7883
957.8144
957.8459
957.8887
958.0026
958.2111
958.4993
958.8314
959.0824
959.2665
953.0565
953.5167
954.028
954.4782
954.7669
954.9872
955.3371
956.0057
956.8834
957.6006
957.9331
957.8944
957.6864
957.594
957.801
958.2683
958.8153
959.2148
959.308
959.0742
958.6159
958.0905
957.635
957.3254
957.1751
957.1475
957.157
957.1645
957.2314
957.4179
957.7722
958.3166
958.7997
959.3149
953.1629
953.5443
954.0467
954.5645
954.9444
955.207
955.488
955.9561
956.5954
957.1802
957.5286
957.6087
957.5575
957.5914
957.8384
958.2733
958.7567
959.1139
959.2171
959.0292
958.6007
958.0395
957.471
957.0053
956.7123
956.5955
956.5639
956.5292
956.5101
956.5805
956.848
957.4324
958.061
958.9396
953.2865
953.5736
954.0275
954.5784
955.0517
955.4005
955.6806
956.0174
956.4533
956.8831
957.1897
957.3501
957.444
957.6484
958.0036
958.4353
958.8124
959.0125
958.9696
958.6872
958.2215
957.6568
957.0846
956.592
956.2531
956.0893
956.0271
955.9707
955.9002
955.8634
955.9802
956.4291
957.0064
958.0404
953.4307
953.6729
954.0185
954.5341
955.0624
955.5137
955.8633
956.1691
956.4897
956.8065
957.0711
957.2909
957.5457
957.8981
958.2897
958.6179
958.784
958.7328
958.4644
958.025
957.4845
956.9176
956.3908
955.9591
955.6695
955.5201
955.4533
955.3918
955.3157
955.2385
955.2605
955.5376
955.9231
956.8637
953.8241
954.0481
954.4392
954.9665
955.4924
955.9484
956.3212
956.6444
956.9419
957.2249
957.529
957.8977
958.2382
958.4703
958.5285
958.3836
958.0488
957.5703
957.0135
956.4447
955.9216
955.4858
955.16
954.9558
954.8444
954.7792
954.7134
954.6517
954.5932
954.6183
954.8036
955.0014
953.769
953.9335
954.2931
954.7791
955.3136
955.8415
956.321
956.7399
957.1162
957.4803
957.8199
958.0578
958.1447
958.0574
957.7964
957.3862
956.8709
956.3061
955.7494
955.2476
954.8349
954.5256
954.3067
954.1625
954.0687
953.9931
953.9203
953.8708
953.8692
954.0346
954.1196
954.3659
953.6235
953.7919
954.059
954.4701
954.9464
955.4763
956.006
956.4861
956.8755
957.1397
957.2748
957.2653
957.1089
956.8142
956.4059
955.9208
955.4043
954.9032
954.4599
954.0975
953.8245
953.6324
953.4727
953.3464
953.2464
953.1582
953.0872
953.0418
953.1063
953.3803
953.5312
953.821
953.4525
953.6134
953.7503
954.0185
954.3712
954.7419
955.1127
955.4478
955.7039
955.8518
955.8762
955.7714
955.547
955.2203
954.8259
954.4042
953.997
953.6388
953.3543
953.1409
952.9817
952.8599
952.7098
952.589
952.4955
952.4153
952.3368
952.3383
952.4486
952.7114
952.9697
953.3494
953.3959
953.5016
953.6561
953.8838
954.1245
954.3335
954.5028
954.606
954.6217
954.5393
954.3551
954.088
953.7663
953.4306
953.118
952.8549
952.6547
952.5184
952.42
952.3292
952.2422
952.1088
952.0275
951.9744
951.9208
951.8428
951.8882
952.0545
952.2478
952.4813
953.2245
953.273
953.3414
953.4513
953.5639
953.6359
953.655
953.6137
953.507
953.3378
953.0971
952.8237
952.5519
952.3182
952.1452
952.0331
951.9748
951.9527
951.9298
951.8866
951.8375
951.761
951.7444
951.743
951.711
951.6337
951.7004
951.8339
951.9926
952.1923
953.0072
953.0462
953.0391
952.9877
952.9291
952.8034
952.641
952.4503
952.2476
952.0028
951.7871
951.6227
951.5293
951.5059
951.5251
951.575
951.6347
951.666
951.6676
951.6691
951.6639
951.6821
951.6757
951.6273
951.5324
951.6313
951.7566
951.8577
952.7236
952.5752
952.3855
952.1745
951.9329
951.7037
951.5047
951.3437
951.1501
951.0458
951.0233
951.0735
951.1741
951.2866
951.4095
951.5227
951.5966
951.6415
951.6654
951.6332
951.6014
951.5628
951.4951
951.4676
951.6341
951.7132
952.0759
951.6834
951.4624
951.1052
950.8935
950.7588
950.7011
950.6014
950.6324
950.7434
950.9047
951.0866
951.2532
951.4168
951.5551
951.6222
951.6355
951.6012
951.4758
951.3578
951.287
951.3172
951.3528
951.5391
951.0737
950.7696
950.4336
950.3498
950.2567
950.3146
950.313
950.46
950.6641
950.8829
951.0954
951.2752
951.4374
951.5561
951.5666
951.506
951.3783
951.124
951.0318
950.926
951.0752
951.1516
950.2159
950.0103
949.9402
949.9802
950.0847
950.1561
950.3691
950.6252
950.8632
951.079
951.2436
951.375
951.4503
951.3639
951.2042
950.9799
950.7121
950.6275
950.5271
950.7149
949.6839
949.7382
949.8086
949.9607
950.0405
950.3095
950.5306
950.7579
950.9595
951.0902
951.1743
951.2134
951.1074
950.862
950.5793
950.275
950.2178
950.0382
949.6558
949.865
949.9667
950.2649
950.4159
950.609
950.7908
950.8861
950.925
950.9567
950.8726
950.5215
950.1379
949.6439
950.1805
950.386
950.5543
950.6133
950.5898
950.467
956.3589
957.3791
958.302
958.8333
959.2374
959.5712
960.0207
960.6773
961.4753
962.1788
954.1643
954.933
956.0978
956.951
957.9379
958.8945
959.4613
959.8438
960.1935
960.6994
961.4463
962.2158
963.0224
963.7876
964.1016
964.2696
953.9067
954.4243
955.3114
956.5828
957.6258
958.7707
959.6697
960.4268
960.8329
961.2007
961.6946
962.2519
962.9397
963.5636
964.0636
964.2293
964.2882
964.2137
953.1315
953.5726
954.129
954.8708
955.803
957.1423
958.3692
959.689
960.6993
961.4451
961.8637
962.2477
962.7302
963.2483
963.7745
964.1582
964.3421
964.2217
964.042
963.7598
963.365
963.1596
953.1537
953.3138
953.7573
954.464
955.3307
956.3378
957.675
959.0179
960.4578
961.5519
962.2985
962.7324
963.1305
963.5859
964.0199
964.3664
964.5144
964.4268
964.0774
963.5912
962.9524
962.2711
961.4033
960.6489
953.2049
953.3027
953.5213
954.1019
954.8904
955.7741
956.8252
958.15
959.5109
960.9589
962.1197
962.8928
963.3613
963.7748
964.1892
964.5139
964.6808
964.6099
964.2799
963.6931
962.9245
961.9778
960.8914
959.8613
958.7994
958.5668
953.3125
953.3239
953.4619
953.8375
954.5321
955.2964
956.1715
957.2408
958.5357
959.8473
961.2075
962.3418
963.1693
963.7164
964.1675
964.5565
964.7866
964.8061
964.5656
964.0556
963.2797
962.2954
961.1331
959.8724
958.7622
958.3234
958.6439
959.2849
953.2511
953.3483
953.4279
953.7066
954.2251
954.8965
955.6322
956.5053
957.5813
958.8152
960.0081
961.2021
962.2425
963.0825
963.7141
964.2367
964.6594
964.8692
964.8624
964.5666
963.9704
963.0848
961.9818
960.7187
959.4339
958.4967
958.3799
958.9289
959.5759
959.8926
953.288
953.4036
953.6025
954.0085
954.5246
955.1596
955.891
956.7845
957.8476
958.9681
959.9887
960.9816
961.8967
962.7086
963.3888
963.9801
964.4843
964.7939
964.822
964.5487
963.9773
963.1196
962.0371
960.7844
959.4923
958.5801
958.5007
959.0684
959.5644
959.8163
953.0582
953.3598
953.5538
953.8486
954.2421
954.7291
955.3453
956.1099
957.0439
958.0469
958.9813
959.7688
960.5225
961.2653
961.9995
962.6933
963.3332
963.8934
964.2907
964.436
964.3045
963.898
963.2247
962.332
961.251
960.0539
958.9938
958.5326
958.8012
959.3072
959.3968
959.1965
952.5135
952.9945
953.3912
953.7359
954.0562
954.4199
954.875
955.5071
956.3667
957.328
958.2208
958.9478
959.5001
960.0087
960.537
961.1143
961.7244
962.3352
962.9081
963.3674
963.6286
963.6583
963.4472
963.004
962.3673
961.5753
960.6715
959.7529
958.8746
958.5501
958.7221
958.9286
958.9234
958.8454
952.5517
953.0451
953.4863
953.8983
954.2276
954.5575
954.9973
955.7228
956.7173
957.7322
958.5145
959.0536
959.4041
959.6848
959.9758
960.3551
960.8028
961.2764
961.7685
962.1992
962.4973
962.6216
962.5494
962.291
961.8756
961.3348
960.6935
959.9854
959.2862
958.6923
958.3481
958.2683
958.3498
958.5377
952.6546
953.1507
953.6564
954.0687
954.3817
954.6797
955.1464
955.9823
957.193
958.2164
958.8576
959.2229
959.4138
959.5368
959.6582
959.8244
960.0578
960.3621
960.7521
961.0385
961.2554
961.3558
961.3144
961.1317
960.837
960.4436
959.9932
959.5182
959.0592
958.6288
958.2391
957.9995
957.8765
958.0307
951.9285
952.4989
953.1186
953.7433
954.2114
954.5286
954.8089
955.2934
956.2208
957.6131
958.578
959.062
959.2801
959.37
959.4155
959.4499
959.4866
959.5355
959.6192
959.7723
959.9308
960.0631
960.0706
959.9694
959.7703
959.5419
959.3347
959.1348
958.9224
958.698
958.4537
958.1703
957.9652
957.76
957.7917
957.8558
952.03
952.4617
953.1083
953.7991
954.3301
954.6742
954.9538
955.4239
956.3621
957.7609
958.7445
959.0962
959.2158
959.2682
959.3225
959.3858
959.463
959.4898
959.445
959.3704
959.3136
959.2891
959.2792
959.2527
959.2151
959.1825
959.1388
959.0793
959.0027
958.9107
958.7955
958.6143
958.4121
958.0993
958.0956
957.9922
952.2771
952.6389
953.2022
953.8772
954.4385
954.8184
955.1066
955.5385
956.3983
957.6806
958.6532
959.0031
958.9861
958.9418
958.9976
959.1614
959.4384
959.6259
959.6189
959.4432
959.2088
959.0193
958.9171
958.8847
958.8894
958.9063
958.9119
958.9063
958.9062
958.9416
959.0073
959.0578
959.0481
958.8854
958.7898
958.6136
952.4905
952.7711
953.3166
953.9448
954.5229
954.951
955.263
955.6481
956.3726
957.4653
958.3925
958.7932
958.7506
958.4984
958.3216
958.6221
959.1343
959.6011
959.8253
959.7358
959.4085
958.9969
958.6388
958.4021
958.2881
958.2634
958.2775
958.2908
958.3125
958.4085
958.6095
958.8802
959.1561
959.3386
959.3997
959.3545
952.795
952.9837
953.4471
954.0105
954.5835
955.0608
955.4155
955.767
956.3402
957.2061
958.0256
958.4703
958.5144
958.3349
958.2148
958.3862
958.8238
959.3531
959.7519
959.859
959.641
959.1855
958.6435
958.1592
957.8228
957.6547
957.6091
957.5975
957.5772
957.6169
957.8054
958.1684
958.657
959.105
959.4703
959.6187
953.0863
953.2094
953.6014
954.0852
954.6222
955.134
955.5477
955.9001
956.3486
956.9897
957.6522
958.0882
958.2321
958.2035
958.2138
958.4167
958.8129
959.2764
959.6332
959.747
959.5693
959.1413
958.5667
957.9748
957.485
957.1737
957.0371
956.9814
956.9101
956.846
956.9035
957.1842
957.7068
958.3146
959.01
959.4933
953.3492
953.4462
953.7894
954.1984
954.6609
955.1658
955.6356
956.0291
956.4159
956.8843
957.38
957.7619
957.9669
958.0707
958.2397
958.5492
958.9455
959.306
959.5048
959.4662
959.1845
958.7112
958.1309
957.5398
957.0308
956.6781
956.4959
956.4092
956.3096
956.1764
956.1008
956.2101
956.5849
957.147
957.9904
958.7776
953.5142
953.6347
953.9058
954.3308
954.7307
955.1777
955.6639
956.1168
956.5153
956.9037
957.2868
957.6163
957.8648
958.1016
958.4193
958.7761
959.0805
959.2352
959.1792
958.9057
958.457
957.9033
957.322
956.7836
956.345
956.047
955.885
955.7955
955.6872
955.5352
955.4005
955.3907
955.5829
955.9685
956.6496
957.4585
953.623
953.7597
954.0107
954.4542
954.8393
955.2144
955.6503
956.1317
956.5825
956.9867
957.3545
957.6895
958.0077
958.3536
958.6652
958.8741
958.9171
958.7621
958.4176
957.9286
957.3611
956.7839
956.2563
955.8213
955.4987
955.2932
955.1766
955.0946
954.9815
954.8369
954.7092
954.682
954.7845
955.0832
955.461
956.1511
953.7811
953.8471
953.9972
954.4362
954.8525
955.2138
955.5885
956.0486
956.5355
956.9963
957.4212
957.807
958.1361
958.3581
958.4353
958.3429
958.0777
957.6626
957.1427
956.576
956.0216
955.5276
955.1257
954.8311
954.6272
954.4978
954.4113
954.3306
954.2099
954.08
953.9889
954.0058
954.0901
954.3871
954.6667
955.2413
953.7059
953.8411
954.2448
954.6832
955.0577
955.3898
955.7576
956.1816
956.6117
956.9871
957.2643
957.4196
957.4302
957.288
957.001
956.5966
956.1164
955.61
955.1258
954.7039
954.367
954.1201
953.9583
953.8381
953.7535
953.682
953.6056
953.4779
953.362
953.3019
953.3436
953.451
953.7598
953.993
953.5148
953.5941
953.8564
954.2837
954.6532
954.9559
955.2302
955.5131
955.7678
955.9661
956.0772
956.0776
955.954
955.7129
955.3774
954.9858
954.5811
954.2029
953.8809
953.6334
953.4602
953.3455
953.281
953.2154
953.1735
953.1281
953.0709
952.9314
952.822
952.7617
952.7783
952.8829
953.195
953.489
953.4424
953.4441
953.5588
953.8466
954.1439
954.3913
954.5782
954.7408
954.8471
954.8842
954.8432
954.7186
954.505
954.225
953.9129
953.6081
953.342
953.1312
952.9829
952.8963
952.8557
952.8385
952.8513
952.8483
952.87
952.859
952.8219
952.6537
952.5271
952.4334
952.4025
952.5041
952.7752
953.0713
953.2416
953.2713
953.3707
953.577
953.7487
953.836
953.8789
953.8552
953.7664
953.627
953.4449
953.2082
952.9628
952.7461
952.586
952.4899
952.4472
952.4505
952.4911
952.5495
952.6114
952.7
952.7684
952.8383
952.8393
952.8045
952.6037
952.4395
952.2673
952.176
952.238
952.4739
952.9093
952.9583
953.0155
953.0763
953.0398
952.9682
952.8376
952.6728
952.5079
952.3494
952.159
952.0198
951.9532
951.9635
952.0306
952.125
952.2422
952.375
952.5016
952.6268
952.7656
952.8696
952.9539
952.9524
952.8605
952.5634
952.3375
952.1181
952.0503
951.995
952.7132
952.5919
952.5122
952.3679
952.1943
952.0626
951.8736
951.7072
951.5995
951.5359
951.4411
951.4506
951.5444
951.7051
951.8934
952.0782
952.2684
952.4508
952.6039
952.759
952.9202
952.9986
953.0053
952.9094
952.7289
952.3283
952.1142
952.0255
952.0052
952.0012
952.2013
951.9383
951.6962
951.3477
951.2205
951.0635
950.9784
950.9826
951.0463
951.0601
951.2137
951.43
951.6884
951.9423
952.1671
952.3876
952.5904
952.7594
952.878
952.9512
952.8966
952.7746
952.5476
952.285
951.8434
951.8908
951.9475
951.9831
951.3611
950.9757
950.6554
950.5016
950.426
950.4722
950.6179
950.8198
950.9334
951.2008
951.4992
951.8118
952.0873
952.319
952.5229
952.675
952.762
952.7599
952.6885
952.4495
952.1913
951.8323
951.5327
951.3742
951.6423
951.8304
950.3499
950.0135
949.9929
949.9338
950.075
950.3201
950.6246
950.7983
951.1378
951.4843
951.8335
952.1091
952.3136
952.4611
952.5138
952.4744