/*--------------------------------*- C++ -*----------------------------------*\
  =========                 |
  \\      /  F ield         | OpenFOAM: The Open Source CFD Toolbox
   \\    /   O peration     | Website:  https://openfoam.org
    \\  /    A nd           | Version:  6
     \\/     M anipulation  |
\*---------------------------------------------------------------------------*/
FoamFile
{
    version     2.0;
    format      ascii;
    class       volScalarField;
    location    "49.8";
    object      volPowerFuel;
}
// * * * * * * * * * * * * * * * * * * * * * * * * * * * * * * * * * * * * * //

dimensions      [1 -1 -3 0 0 0 0];

internalField   nonuniform List<scalar> 
203709
(
533069.9
586513.6
586430.4
533163.5
557154.5
623735.3
772275
764124.6
764016
770632.9
623601.8
557111.5
544391.7
625986.6
782355.2
780097.7
802282.7
807804
807759.3
802193.8
779944.8
780673.3
625855.5
544287.9
544473.7
760534.3
776728.6
807186.7
823004.3
836920.2
843070
843075.3
836831.6
822856.7
807061.5
776597.1
759138.5
544392.5
626058.6
776754.5
811830.2
836713.7
855553.5
869163.1
875927
875930.9
869066.9
855421.8
836590.2
811678.1
776596.5
625914.9
557309.9
782467.4
807275.4
836749.6
862385.3
882610
896635.1
903585.9
903575.8
896585
882530.8
862225.9
836554.8
807081.4
781271.7
557134.6
623856
780208.7
823124.1
855643.5
882699.5
903701.5
917673.1
924271.7
924266
917667.3
903607.3
882525.3
855484.1
822968.3
780036.7
623723.1
533462
772570.6
802537.8
837159.1
869420.6
896875.1
917856.4
930841.4
937241.4
937198.9
930736.3
917645.7
896659.8
869236.6
837001.6
802397.9
771537.2
533196.9
586788.5
764396.5
808072.3
843400.9
876251.2
903869.6
924554.8
937421.1
944389.7
944127.3
937223.7
924338.9
903685.8
876071.2
843239.2
807982.4
764279.4
586603
586890.8
764597.9
808184.1
843426.4
876270.5
903898.8
924553.9
937443.4
944589.9
944324.6
937282.8
924361.6
903680.2
876099.1
843279.8
808037.5
764427.5
586751.4
533423.2
771312.3
802733.5
837311.2
869533.7
896954.4
917932.4
930977.9
937451.4
937351.5
930857.9
917778.4
896754.3
869336.2
837118.8
802539.3
770002.4
533340.2
624024.8
780466.7
823400.4
855921
882915.3
903912.8
917900.6
924563.8
924472.7
917863.1
903804.1
882757.7
855707.5
823164.4
780273.9
623910.5
557509.6
781267.3
807566.8
837052.1
862652.6
882897
896893.4
903942.7
903895.2
896929.5
882871.8
862601.3
836951.1
807437.5
779959.1
557360.2
626321.9
777051.3
812152.2
837060.1
855918.3
869588.7
876767.1
876744.5
869579
855913.9
837042.1
812126.6
777056.4
626261.1
544767.2
759682.8
777127.2
807644.2
823458
837443.6
843968.1
843963.6
837430
823444.7
807593.3
777059.5
758248.7
544592.1
544845
626445.4
781941.6
780601.8
802932.1
808681.1
808734.2
802913
780616.1
780217.6
626275.4
544650.4
557666.1
624220.5
772137.9
765201.4
765298.2
770458.5
624178.9
557538
533719.5
587148.1
587185.5
533685.7
446602.9
507666.1
528344.4
542532.7
551398.4
551386.2
542497.2
528271.6
507567.2
446535.3
455583.5
530878.7
676267.1
698335.4
723531
751282.8
773238.9
773220.8
751262
723361.4
697972.9
674326.1
530406.8
455173.5
466367.3
665207.9
702577.4
756602.7
807872.3
850535.7
905655.5
951099.9
951053.2
905546.1
850164
807327.1
756080.8
702026.6
663416.6
466096.9
471029
677736.6
738640.9
805152.1
874089.8
972270.6
1093865
1214827
1258166
1258061
1210189
1093365
971787.8
873647.5
804681
738171.4
676021.8
470780.9
466434.7
677703.7
746150.1
824053.3
953539.2
1109655
1277734
1401294
1493260
1642550
1642394
1492926
1400788
1272613
1109113
952976.7
823621.6
745665.9
676049.3
466172.8
455800.3
665542.6
738748.2
824124.6
1001345
1238056
1400585
1534298
1749390
1845717
1902523
1902384
1845319
1748821
1533692
1399938
1232925
1000770
823599.1
738291.3
664031.9
455533.6
531023.4
702750.3
805274.2
953618.7
1238088
1465222
1723476
1866484
1978212
2047207
2082322
2082218
2046885
1977772
1865955
1722869
1464651
1233052
953187.8
804978.7
702501.6
530791.8
447102
676638.9
756786.9
874292.2
1109772
1400866
1723616
1917704
2042960
2129603
2184632
2211782
2211718
2184415
2129297
2042587
1917272
1723196
1400548
1109566
874110
756531.9
675299.3
446681.1
508250.6
698991.2
808193.8
972675
1278255
1534792
1866832
2043151
2156834
2233545
2282037
2305679
2305645
2281907
2233300
2156460
2042675
1866303
1534302
1273171
972199.2
807833.7
698419.8
507728.6
528973.2
724366.7
851045.4
1094270
1402040
1750077
1978832
2130127
2233929
2305118
2350235
2372271
2372235
2350105
2304823
2233491
2129639
1978316
1749511
1401336
1093984
850743.1
723744.6
528447
543174.3
752249.4
906591.7
1215792
1494269
1846695
2048139
2185584
2282973
2350873
2393871
2414824
2414638
2393403
2350194
2282260
2185028
2047728
1846301
1493789
1211008
906106.8
751682
542756.1
552000.2
774134.8
952068.2
1259395
1643876
1903787
2083551
2213003
2306871
2373316
2415451
2436066
2435688
2414709
2372414
2306045
2212398
2083175
1903530
1643587
1259096
951753.7
773767.9
551696.6
551920.7
774006.8
951956.4
1259378
1644029
1903997
2083747
2213160
2306991
2373414
2415594
2436328
2435961
2414902
2372551
2306152
2212518
2083343
1903762
1643832
1259150
951726.2
773746.1
551686.2
542984
752101.2
906710.2
1211791
1494582
1847226
2048714
2186080
2283358
2351262
2394365
2415445
2415218
2393883
2350618
2282681
2185518
2048338
1847027
1494499
1215929
906517.5
751936.8
542813.9
528843.4
724380.3
851443.2
1094850
1402562
1750861
1979729
2131028
2234757
2305924
2351083
2373189
2373085
2350918
2305664
2234443
2130738
1979530
1750766
1402551
1094603
851181.9
724284.1
528723.8
508221.2
699150
808693
973141.2
1274576
1535733
1867933
2044260
2157896
2234607
2283155
2306905
2306926
2283323
2234825
2158104
2044427
1868033
1535681
1278913
973079.6
808469.5
699068.2
508114.1
447123.8
675508.9
757307
874788.7
1110617
1401823
1724733
1918878
2044207
2130972
2186191
2213480
2213580
2186532
2131492
2044802
1919447
1725147
1401894
1110537
874781.3
757121.3
674420.7
447043.8
531417.5
703202.2
805736.5
954270.7
1234588
1466342
1724865
1868115
1980076
2049350
2084573
2084685
2049675
1980575
1868698
1725466
1466792
1239208
954289.1
805810.2
703057.3
531131.5
456151.6
664575.1
739237.5
824758.4
1002241
1234745
1402242
1536277
1751690
1848370
1905344
1905458
1848576
1751951
1536470
1402478
1239518
1002292
824733.1
739271.2
663314
455777.4
466868
677260.2
746943
824852.8
954513.6
1111030
1275159
1403590
1495824
1645432
1645541
1495926
1403584
1279628
1111049
954531.5
824809.5
746853.8
675975.8
466656
471550.4
677317
739452.3
806157.9
875267.2
973526
1095509
1212737
1260647
1260668
1217036
1095413
973552.4
875132.9
805992.8
739329.3
675959.3
471431.9
466769
665038.5
703498.8
757582
808966.4
851956.8
907414.7
952937.7
952915.4
907315.3
851740.8
808892.9
757580.8
703430.7
663534.4
466683
456210.3
531542.5
676388.7
699604.9
724969.7
752797.6
774798.5
774790.4
752739.8
724823.5
699440
674880.9
531558
456151.5
447272.7
508455.1
529154.1
543360.8
552291.2
552277.3
543427.8
529216.1
508474
447222.6
378423.9
429107.1
441807.4
446686.6
446570.5
441458.5
428486.3
377885.6
378038
453453.2
496584.7
625616.1
649017.8
662711.9
668936.4
668807
662299
648333.5
623553.1
496212.2
453115.6
377918.5
416964.3
606663.2
664743.6
733053
807762.1
842453.2
863771.7
873761.3
873629.4
863367.8
841780.4
806932
732336.5
664074.4
604719.8
416857.8
390761
485725.3
652600.2
775843.8
908875.8
1058065
1133932
1178129
1207535
1222750
1222564
1206977
1177213
1132718
1052782
907743.2
775025.1
650364.8
485329.1
390419.8
394491.2
594935.6
690792.9
859473.3
1077763
1232414
1361756
1565865
1661183
1717288
1745145
1744908
1716608
1660122
1564560
1360541
1231135
1072296
858310.1
690103.8
592953.7
394127.2
390817.8
595111.8
713425.8
894451.3
1156810
1349968
1612752
1782713
1930156
2039635
2113840
2150753
2150465
2113042
2038302
1928423
1780810
1610735
1348112
1151502
893360
712420.7
593203
390390.1
486052.2
691134.9
894669.1
1175528
1395775
1705414
1932470
2117525
2275595
2403342
2494398
2531693
2531338
2493349
2401732
2273648
2115411
1930234
1703218
1393821
1170143
893370.7
690213
485465.1
417557.2
652961.2
859785.4
1157364
1395925
1733448
2002548
2238814
2442729
2615006
2743563
2834933
2887526
2887152
2833856
2741918
2612983
2440481
2236454
2000276
1731282
1394116
1152086
858634
651026.7
416963.6
378364.7
607195.7
776432.4
1078422
1350933
1706130
2002867
2282325
2536684
2744060
2915009
3057569
3157799
3211908
3211581
3156846
3056116
2913219
2742011
2534531
2280208
2000771
1704141
1349198
1072587
775545.3
605464.7
377839.1
453999.4
665481.3
909605.5
1233720
1613985
1933444
2239273
2536829
2790956
3015440
3197037
3338151
3432957
3481303
3481047
3432219
3337069
3195699
3013919
2789377
2535269
2237686
1931861
1612382
1232079
908703.2
664799.2
453444.9
497159.4
733777.6
1058865
1363546
1784273
2118703
2443351
2744470
3015674
3248592
3429562
3563073
3650979
3694806
3694650
3650520
3562382
3428707
3247643
3014715
2743541
2442355
2117521
1782882
1362010
1054026
733200.5
496652.9
378845.1
626462.7
808476.4
1135079
1567989
1932127
2277078
2616097
2915852
3197641
3429898
3606458
3733808
3816587
3857448
3857364
3816314
3733331
3605813
3429116
3196769
2914921
2615069
2275829
1930612
1566314
1134187
807852.8
624879.3
378365.8
429373.2
649663.3
843421.6
1179700
1663660
2042086
2405222
2745104
3058857
3339257
3563968
3734419
3856882
3936144
3975155
3975053
3935822
3856325
3733732
3563231
3338506
3058075
2744222
2404216
2040650
1662057
1178666
842654.4
649020
428952.1
442252.6
663501.8
864942.2
1209477
1720174
2116895
2497024
2837104
3159650
3434626
3652595
3818160
3937189
4014117
4051797
4051477
4013262
3936009
3816959
3651739
3434090
3159209
2836545
2496201
2115604
1718771
1208449
864208.2
662885.3
441769.4
447336.7
669994.2
875176.7
1224998
1748382
2154255
2534996
2890422
3214432
3483572
3696938
3859510
3976937
4052859
4089960
4089446
4051584
3975337
3858060
3695960
3483076
3214158
2890068
2534347
2153243
1747227
1224074
874472.8
669351.1
446851.3
447389.5
670049.3
875214.3
1225052
1748420
2154360
2535248
2890791
3214856
3483980
3697274
3859771
3977178
4053144
4090321
4089829
4051924
3975618
3858308
3696229
3483416
3214582
2890511
2534720
2153570
1747506
1224251
874594.9
669465.2
446950.1
442449.8
663738.2
865110
1209658
1720308
2117332
2497909
2838180
3160843
3435814
3653635
3818992
3938036
4015083
4052873
4052526
4014197
3936859
3817832
3652757
3435320
3160617
2837979
2497489
2116757
1719612
1208885
864539.6
663209.2
442050.9
429745.5
650050.2
843722.2
1180075
1663926
2042829
2406596
2746759
3060645
3341108
3565789
3736129
3858495
3937767
3976802
3976664
3937433
3858036
3735665
3565454
3340977
3060655
2746730
2406345
2042469
1663425
1179231
843144.6
649556.2
429374.5
379265.6
625266
809037.7
1135785
1568380
1933072
2278543
2618032
2918006
3199917
3432153
3608633
3735933
3818759
3859731
3859824
3819059
3736378
3609153
3432690
3200419
2918433
2618348
2278729
1932974
1568123
1134865
808464.3
624046.4
378924.1
497494.5
734350.8
1055881
1363916
1785319
2120090
2445302
2746722
3018057
3251052
3432138
3565839
3654004
3698088
3698331
3654720
3566932
3433454
3252409
3019262
2747652
2446055
2120630
1785396
1363955
1058877
733791.9
497177.7
454177.1
665911.2
910388.6
1234366
1615105
1934739
2241046
2539089
2793553
3018413
3200443
3341996
3437253
3485955
3486208
3437982
3343120
3201844
3019955
2795032
2540337
2242079
1935407
1615207
1234430
909818.3
665560.2
454036.3
378407.9
606365.1
777177.3
1074944
1352032
1707513
2004769
2284858
2539804
2747802
2919401
3062513
3163299
3217840
3218030
3163793
3063236
2920304
2748880
2540902
2285856
2005599
1708006
1351923
1079290
776711
605037.7
378470
417582.3
652066.3
860600.7
1154726
1397486
1735558
2005330
2242251
2446882
2619969
2749165
2841114
2894156
2894274
2841367
2749485
2620386
2447473
2242884
2005938
1736063
1397784
1158435
860486.9
650733
417517.9
486345.7
691756.2
895573.9
1173247
1397629
1708308
1936155
2121905
2280595
2409043
2500827
2538575
2538591
2500842
2409095
2280760
2122094
1936393
1708592
1397883
1177026
895504.6
691549.9
486180.2
391222.1
594422.7
714202.9
895601.9
1155200
1352728
1616183
1786893
1935025
2045140
2119914
2157144
2157102
2119852
2045013
1934926
1786920
1616377
1352861
1158854
895588.3
714103.1
593203.3
391067.3
394808.1
594699
691933.7
860732.8
1075314
1234900
1365131
1569949
1665695
1722198
1750277
1750202
1722183
1665702
1569926
1365053
1235126
1079819
860827.3
691863.9
593330.9
394735.3
391250.2
486549.2
652495.3
777290.8
910528.3
1056114
1136280
1180656
1210398
1226351
1226176
1210597
1180959
1136555
1060437
910693.4
777305.2
651053.6
486407.4
391205.8
417686
606754.3
666057.3
734513.6
809235.1
843960.2
865437.9
875804.3
875617.5
865482.1
843992
809229
734417.4
665891.9
605419.3
417601.3
378449.1
454292.5
497519.5
626172.4
650118.2
663864.8
670567
670483.9
663782.9
649971.8
624481.8
497402.7
454115.2
378532.9
379189.1
429666.7
442397
447538.4
447486.1
442305
429497.8
378868.5
335817.4
378489.7
388020.1
387894.1
378102.4
335510.3
322789.5
401368.7
449125.4
503528.6
625529.7
651993.8
662160.6
661872
651227.5
622726.3
503152.2
448836
401012.2
322635.2
325424.1
421355.5
585301.7
684829.6
772284.6
897818.8
967244.1
996077.9
1010109
1009710
995017
966032.6
893711.2
771346.6
683692.7
582714.4
421022.7
325351.1
364094.5
565467
707754.4
908766.6
1025804
1141791
1245772
1418639
1485220
1511744
1511317
1484029
1416970
1244030
1139813
1023887
902948.1
706808.1
563354.2
363986.6
390164.4
628232.6
817066.8
1045063
1225897
1474811
1636351
1760427
1864218
1927933
1957255
1956811
1926649
1862255
1758065
1633847
1472395
1223744
1039541
815866.3
625669.1
389858.9
404691.8
679492
941315.8
1142979
1342251
1668130
1901961
2086666
2217815
2317309
2381795
2412969
2412494
2380406
2315119
2215025
2083511
1898822
1665387
1340045
1140790
935848.7
676695.8
404214.2
390335.8
679638.3
983296.6
1217282
1547780
1821264
2094970
2323482
2513438
2673620
2791317
2866356
2902708
2902188
2864847
2788966
2670656
2510100
2319965
2091516
1818015
1544945
1215036
978201.8
676892
389868.1
364396.9
628457.5
941831.7
1217457
1588241
1913336
2215491
2482859
2733248
2945840
3120554
3249819
3333535
3374215
3373634
3331864
3247188
3117201
2942041
2729206
2478787
2211574
1909827
1585268
1215291
936357.4
626329.2
363932.1
325734.1
565788.7
817848.5
1143569
1548463
1913837
2257232
2562755
2858945
3128270
3355658
3540394
3679800
3771011
3814106
3813452
3769121
3676884
3536757
3351572
3123924
2854505
2558369
2253024
1910166
1545508
1141506
816660.4
564022.7
325280
421812.5
708624.4
1045633
1343707
1822568
2216676
2563432
2899974
3215339
3496363
3735468
3928970
4075467
4173926
4223914
4223246
4171996
4072508
3925305
3731351
3491997
3210874
2895494
2559057
2212565
1819081
1341174
1040503
707601.2
421330.7
323290
585817.6
909315.5
1227208
1670253
2097072
2484853
2860369
3215978
3542329
3832132
4079431
4281618
4439071
4547064
4602418
4601832
4545366
4436475
4278408
4075813
3828285
3538341
3211857
2856169
2480718
2093277
1667166
1224743
903959.8
584177.2
323087.4
401655.8
685425.2
1026761
1477073
1904655
2326429
2735970
3130251
3497406
3832497
4129611
4388546
4602032
4766858
4878652
4935198
4934743
4877357
4764937
4599681
4385918
4126823
3829582
3494296
3126882
2732325
2322792
1901530
1474294
1025049
684476.4
401284
449741.6
773377.6
1143594
1639379
2089967
2517211
2949258
3358075
3736845
4080143
4388893
4658377
4878360
5045242
5157104
5213178
5212913
5156333
5044072
4876935
4656833
4387302
4078483
3734910
3355619
2946107
2513765
2086859
1636401
1141386
771892.5
448942.5
504428.4
899869
1248594
1764117
2221904
2678154
3124711
3543405
3930888
4282860
4602869
4878811
5101164
5267644
5378207
5433319
5433182
5377786
5266954
5100282
4877789
4601732
4281569
3929279
3541156
3121614
2674676
2218625
1760907
1245819
894063.7
503225.6
336493.3
626568.8
969616
1422108
1868471
2322149
2796613
3254801
3683640
4078143
4441008
4768396
5046416
5268410
5433446
5542406
5596508
5596340
5541910
5432671
5267553
5045555
4767552
4440108
4076941
3681740
3251985
2793358
2318906
1865184
1418923
966918.9
624329.5
335615.4
378960
653225
998489.8
1488969
1932621
2387296
2872420
3339443
3775943
4177652
4549910
4881023
5159260
5380280
5543789
5651363
5704508
5704063
5650161
5542159
5378695
5158253
4880512
4549526
4176944
3774470
3337090
2869634
2384413
1929670
1486033
996035.5
651642.8
378285.9
388711.6
663660.7
1012657
1515843
1962436
2419074
2909487
3381018
3820198
4228893
4606395
4938516
5216110
5436114
5598938
5705973
5758689
5758005
5704194
5596696
5434140
5214900
4938040
4606213
4228444
3819056
3379148
2907237
2416704
1959996
1513437
1010770
662363.8
388088.6
388742.6
663775.1
1012913
1515990
1962552
2419161
2909587
3381242
3820652
4229527
4607083
4939157
5216639
5436525
5599329
5706415
5759200
5758540
5704690
5597128
5434536
5215329
4938565
4606851
4229146
3819752
3379810
2907851
2417298
1960631
1514063
1011288
662694.9
388245.1
379218.3
653469.5
998747.2
1489235
1932921
2387556
2872711
3340109
3777273
4179456
4551860
4882899
5160915
5381645
5545171
5652868
5706094
5705605
5651575
5543479
5380065
5159838
4882401
4551675
4179196
3776651
3339119
2871444
2386098
1931447
1487757
997470.6
652606.6
378773.8
336854.2
624692.5
969612.2
1422366
1868877
2322610
2797102
3255840
3685644
4080822
4443925
4771341
5049311
5271158
5436011
5544911
5598979
5598778
5544385
5435329
5270558
5048995
4771373
4444132
4080931
3685456
3255341
2796280
2321460
1867778
1421313
968791.3
623488.8
336522.3
504596.3
896494.2
1248920
1764656
2222642
2678869
3126036
3545749
3934009
4286360
4606530
4882436
5104665
5271037
5381612
5436863
5437001
5382026
5271684
5105500
4883395
4607524
4287305
3934769
3546197
3126074
2678504
2221767
1763901
1248230
899278.6
504196
449910
773689.6
1144091
1639920
2090932
2518143
2950793
3360486
3740035
4083837
4392832
4662448
4882589
5049720
5161946
5218489
5218856
5163010
5051361
4884622
4664633
4394906
4085631
3741504
3361518
2951274
2518203
2090336
1639507
1143538
773191.8
449495.4
402113.4
686076.5
1027620
1477655
1905655
2327661
2737714
3132646
3500558
3836353
4134053
4393557
4607649
4773131
4885633
4942905
4943280
4886722
4774835
4609822
4395992
4136491
3838575
3502425
3133971
2738414
2327977
1905448
1477553
1026961
685464.8
401630
323674.5
584666.3
906456.6
1227771
1671082
2098502
2486871
2863082
3219573
3546869
3837579
4085768
4288864
4447213
4556106
4612305
4612555
4556822
4448334
4290338
4087501
3839384
3548589
3221049
2864135
2487458
2098929
1671211
1227908
909534.1
583310.6
323324.5
422127.5
709034.4
1043164
1344169
1824055
2218793
2566404
2903976
3220477
3502631
3742838
3937453
4085002
4184444
4235287
4235392
4184737
4085482
3938164
3743784
3503699
3221561
2904942
2567151
2219338
1824433
1344550
1046424
708778.8
421881.4
325850.3
564956.6
818497.4
1144916
1550172
1916051
2260331
2566973
2864459
3135072
3363682
3549574
3690073
3782272
3826141
3826112
3782205
3690033
3549668
3363950
3135492
2864942
2567427
2260669
1916215
1550124
1144670
818236.9
563826.2
325885.1
364541.1
627549.7
939161.2
1218780
1590199
1916326
2219704
2488378
2739999
2953865
3129748
3260023
3344589
3385874
3385758
3344313
3259650
3129404
2953673
2739986
2488366
2219686
1916373
1590238
1218819
942541.6
625956.3
364562
390573.5
678568.3
981485.4
1218767
1550570
1824999
2099885
2329540
2520736
2681974
2800526
2876282
2913139
2912976
2875960
2800105
2681516
2520338
2329291
2099570
1824669
1550426
1218726
984608.6
676647.8
390497.4
404957.6
678668
939471.8
1145366
1345351
1672386
1907130
2092757
2224796
2325004
2390126
2421883
2421659
2389815
2324604
2224358
2092398
1906754
1671860
1344689
1145147
943163.7
676815.1
404914.1
390478.5
627851.3
818980.8
1043648
1228425
1478671
1641235
1766212
1870613
1934766
1964368
1964110
1934321
1870010
1765572
1640804
1478487
1228507
1047020
818711
626276
390477.1
364472.3
565357.9
709407.5
906773.7
1027925
1144626
1249795
1423452
1490347
1517016
1516840
1490036
1423063
1249394
1144703
1028327
910747.8
709074.9
563965.2
364437.4
325737.4
422107.7
585431.6
685907.1
773830
897002.4
970234.2
999210.3
1013333
1013136
999067.5
970240.6
900592.3
774230.1
686255.7
583751.9
421981.2
325774.1
323628.1
401797
449772.4
504571.8
626133.8
653515.7
663868.8
663786.3
653474.1
624243.4
504701.3
450044.7
402020.1
323296.3
336770
379059.4
388678.3
388608
378983.6
336513.9
278944.5
338638.9
382352.8
410586.9
420588.5
420861.6
411376.9
383782.1
339919.5
279482.7
283869.6
385346.9
456326.2
579607.1
659908.7
777378.4
818608.4
834513.9
834050.4
817773.6
773543.7
659394.5
577860.7
455875.9
385170
283686.6
377403
588160.7
765680.8
868972.9
970414.3
1072064
1159400
1310726
1357342
1356742
1309307
1157662
1069756
968481.6
867833
761753.5
585605.4
376657.6
312515.2
482094.8
772054.2
967013.5
1126252
1367493
1528059
1663163
1762111
1843402
1883113
1882428
1841601
1759671
1660283
1525080
1364866
1124457
964713.9
761725.8
481080.8
312150.2
338478.7
604056.2
887654.8
1116706
1423313
1663685
1870525
2045445
2189118
2311642
2396105
2437180
2436491
2394198
2308832
2185674
2041529
1866558
1659922
1420010
1113894
882024.8
601221.9
338056.3
345148.8
629506.5
954952.1
1210050
1576041
1881651
2138280
2375296
2573798
2733594
2860581
2946234
2988403
2987694
2944214
2857471
2729657
2569279
2370596
2133651
1877279
1572518
1207184
949170.1
626870.9
344627.5
338706.8
629725.5
973855.7
1260167
1675890
2018262
2325168
2620336
2882993
3100847
3273020
3404396
3492245
3535669
3534914
3490068
3400986
3268642
3095783
2877695
2615176
2320358
2013963
1672418
1257588
968092.2
627057.5
338173.2
312697.3
604334.4
955252.5
1260619
1710168
2094593
2460098
2795598
3108002
3384020
3616995
3806312
3948706
4042572
4088681
4087850
4040171
3944964
3801539
3611530
3378262
3102285
2790198
2455277
2090512
1706682
1258085
949824.9
602077.3
312281.8
482153
888064.3
1210451
1676605
2095060
2504655
2893363
3251127
3577450
3871122
4122041
4325810
4478175
4578118
4627014
4626086
4575424
4474003
4320568
4116121
3864883
3571171
3245104
2887912
2499967
2091100
1673265
1207966
883307.1
481469.1
376952.3
772510.1
1117290
1577192
2019349
2461123
2894088
3301511
3676972
4024112
4335651
4601406
4816491
4977806
5083825
5135492
5134478
5080897
4973307
4810916
4595170
4329060
4017380
3670337
3295274
2888571
2456452
2015484
1574003
1114789
764118.1
376836.6
283691
588605.3
967539.4
1424639
1883196
2327175
2797548
3252775
3677943
4075631
4441354
4766914
5044763
5269882
5439865
5553096
5609297
5608271
5550143
5435364
5264360
5038611
4760389
4434601
4068802
3671273
3246570
2792094
2322643
1879604
1421805
965710.5
586890.2
283657.5
385659.9
766575
1128483
1665904
2140881
2623457
3111159
3580304
4026205
4442388
4821694
5158119
5446443
5682021
5862191
5983868
6044954
6044058
5981287
5858279
5677251
5441130
5152438
4815690
4436092
4019742
3573986
3105337
2618370
2136611
1662731
1126175
761887.3
385225.5
456708.1
870641.3
1370053
1873491
2379105
2887329
3388496
3875239
4338768
4768637
5158739
5505213
5804684
6051316
6240620
6368710
6433117
6432435
6366786
6237783
6047909
5800919
5501168
5154378
4763877
4333471
3869610
3382951
2882187
2374499
1869863
1367328
868825.6
456409.4
278948
580772.4
972226.3
1531062
2049522
2578940
3106512
3622855
4127413
4605391
5047042
5447542
5805157
6115465
6370975
6566356
6698149
6764369
6764003
6697087
6564759
6369069
6113427
5803016
5445180
5044130
4601488
4122579
3617672
3101376
2573976
2045174
1527684
970167.8
579308.4
279906.6
339014.2
660774.1
1074048
1667149
2194650
2740211
3280188
3813638
4332531
4821542
5272929
5683788
6052388
6371517
6632984
6831768
6965250
7032181
7032011
6964739
6830974
6632017
6370418
6051127
5682225
5270753
4818132
4327931
3808474
3274820
2734723
2189385
1662606
1071358
659886.4
340084.4
382862.1
779040.9
1162843
1767400
2318421
2868465
3412938
3957432
4486306
4984198
5444097
5864903
6242562
6567734
6832630
7033009
7166930
7233866
7233656
7166328
7032142
6831769
6566937
6241789
5863976
5442510
4981335
4482183
3952625
3407693
2862812
2312553
1761769
1158496
773688.7
383927.7
410986.1
820911.7
1315081
1849491
2403765
2955108
3501944
4052589
4587685
5091808
5558888
5987893
6371748
6700714
6967678
7168580
7302336
7368877
7368327
7300857
7166616
6965890
6699750
6371414
5987621
5557954
5089624
4584314
4048525
3497339
2949944
2398168
1843896
1310325
818275
411538.5
421031.1
836950
1362129
1889777
2445568
2998136
3546352
4099837
4637937
5145143
5616904
6050627
6437478
6767968
7035558
7236856
7370717
7437086
7436231
7368476
7234059
7033203
6766690
6437151
6050582
5616336
5143515
4635327
4096628
3542642
2993886
2440889
1885086
1358085
834596.1
421058.3
420947.5
836953.1
1362113
1889898
2445726
2998302
3546503
4100007
4638234
5145709
5617729
6051550
6438359
6768710
7036143
7237416
7371342
7437783
7436946
7369142
7234648
7033752
6767284
6437868
6051447
5617310
5144522
4636314
4097600
3543673
2995032
2442098
1886247
1359042
835137.6
420814.2
411144.1
820965.5
1315090
1849683
2404127
2955565
3502399
4053106
4588561
5093450
5561248
5990533
6374321
6703031
6969651
7170572
7304460
7371048
7370414
7302780
7168428
6967776
6701920
6373980
5990546
5561077
5092742
4587305
4051408
3500300
2953139
2401461
1847024
1312875
819497.8
410773.6
383101.2
776086.9
1163087
1767668
2318930
2869170
3413724
3958332
4487730
4986727
5447671
5868909
6246621
6571766
6836523
7036671
7170461
7237305
7237035
7169752
7035806
6835895
6571643
6247010
5869499
5448069
4986673
4487168
3957278
3412223
2867428
2317043
1765815
1161575
777702.6
382586.7
339295.3
661412.6
1075115
1667754
2195403
2741159
3281345
3814972
4334466
4824692
5277289
5688702
6057547
6376682
6638029
6836688
6970160
7037256
7037430
6970676
6837547
6639253
6378199
6059193
5690281
5278545
4825436
4334614
3814539
3280392
2740008
2194055
1666270
1073534
660566.8
338848.8
279548.6
579360.8
973002.1
1532035
2050579
2580093
3107975
3624581
4129762
4608857
5051672
5452901
5810941
6121507
6377266
6572987
6705268
6772146
6772610
6706612
6575095
6379970
6124522
5813897
5455526
5053777
4610313
4130512
3624712
3107540
2579448
2049567
1530726
971714.1
578007.5
278994.1
457250.7
871112.6
1371057
1874907
2380477
2888987
3390581
3877976
4342451
4773469
5164615
5511985
5812262
6059709
6249899
6378980
6444460
6444913
6380303
6252003
6062462
5815403
5515151
5167509
4775858
4344167
3878991
3391061
2888987
2380188
1874064
1370224
870671.8
456746.3
386008.1
764050.6
1129194
1667400
2142425
2625213
3113521
3583453
4030378
4447800
4828518
5166295
5455893
5692734
5874181
5997159
6059512
6059772
5997931
5875452
5694496
5458015
5168521
4830621
4449573
4031693
3584304
3114072
2625435
2142296
1666699
1128859
766821.3
385786.6
284301.6
587873.8
968849.3
1425926
1884975
2329073
2800175
3256248
3682539
4081663
4449068
4776318
5055808
5282533
5454052
5568717
5626191
5626227
5568850
5454357
5283132
5056707
4777368
4450119
4082565
3683226
3256708
2800495
2329219
1884716
1425582
968226.7
586220.8
283856.4
378090.6
765726.6
1118163
1578533
2021584
2463987
2897761
3306438
3683442
4032392
4345859
4613492
4830367
4993309
5100734
5153526
5153374
5100329
4992788
4829936
4613250
4345756
4032338
3683380
3306356
2897614
2463803
2021318
1578404
1118110
765003.8
377257.4
482850.4
886211
1211556
1678355
2097610
2508257
2898385
3257698
3585835
3881414
4134259
4339850
4493776
4594965
4644766
4644501
4594233
4492721
4338704
4133179
3880430
3584878
3256815
2897687
2507723
2097266
1678054
1211496
888398
482329.5
312814
602906.6
953117.3
1261606
1712511
2097911
2464807
2801802
3115884
3393646
3628427
3819455
3963262
4058208
4105058
4104753
4057377
3962039
3818046
3626972
3392199
3114413
2800466
2463834
2097222
1712064
1261478
956048.4
601713.5
312768.3
338734.6
628477
971884.3
1262044
1678790
2022372
2330643
2627284
2891458
3110877
3284617
3417281
3506085
3550160
3549860
3505315
3416144
3283276
3109477
2890028
2625833
2329328
2021540
1678191
1261662
975043.7
626993.4
338759.4
345329.3
628769.7
953295.5
1211605
1579060
1885926
2143760
2382159
2582073
2743345
2871511
2957966
3000630
3000370
2957321
2870590
2742308
2581076
2381230
2142944
1885255
1578666
1211331
956300.2
627000.3
345296.2
338813.6
603620.3
886571.1
1118146
1426323
1668101
1875777
2051638
2196660
2320332
2405516
2447021
2446845
2405134
2319861
2196229
2051333
1875406
1667602
1426195
1118478
889350.8
601676.7
338678.3
312770.8
482615.6
766142.6
968629.9
1129604
1371463
1532362
1668285
1768476
1850455
1890626
1890492
1850299
1768420
1668489
1532445
1371177
1129077
969095.9
766249.6
482804.4
312685.8
377553.4
588315.5
763686.8
871291.7
972755.9
1074857
1163443
1315534
1362552
1362474
1315477
1163369
1074882
972784.7
871295.7
767525
586884.8
377979
283972.6
385873.5
456969.8
580276.7
661376.9
776124.3
821097.9
837089.3
836953.7
821090
779367.1
661335.3
578483.6
456848.5
385939
284189.7
279145.7
339050.1
382837.3
410949.4
420907.9
420757
410925.1
382868.3
339060.5
278965.8
241541.8
294588.2
325779.2
358102.3
380689.1
383605
374711.4
344132
297024.3
244710.4
251963.5
354598.4
444201.6
621979.1
705535.1
759312
791165.6
805207.3
805272.5
791549.7
762798.9
709021.1
618715.9
444869.4
354757.4
251856.2
253720.5
395274.6
640143.9
782236.5
909467.5
1035809
1229236
1341877
1399274
1425567
1424830
1397278
1339699
1227326
1034225
908217.9
780721.2
633734.5
394774.7
253606.2
322192
560714.6
828097.6
1032678
1307532
1496757
1656776
1804596
1918631
2006222
2048895
2047991
2003695
1915029
1800408
1652889
1493605
1304254
1029890
823788.8
557992.2
321808.7
374413.9
717854.7
973383.3
1215271
1571845
1841947
2076923
2270753
2431085
2554672
2645002
2690927
2690007
2642405
2550789
2426284
2265614
2071990
1837219
1567029
1211140
970784.9
708463.6
373725.1
398945.2
792934
1087954
1473925
1793814
2123475
2417259
2673458
2888963
3064566
3202576
3298895
3347580
3346687
3296346
3198604
3059353
2882811
2667022
2410935
2117449
1788450
1469748
1085410
783403.1
398295.8
398900.8
811207.3
1136347
1568085
1950702
2324438
2677101
2992772
3272411
3509082
3700998
3849330
3950702
4001623
4000702
3948056
3845144
3695360
3502277
3265124
2985566
2670377
2318620
1945936
1564322
1133848
801536.6
397822.6
374162.2
792702.5
1137005
1597052
2018439
2444071
2848975
3222692
3564564
3867438
4123474
4329995
4487219
4593302
4646315
4645316
4590432
4482657
4323918
4116233
3859715
3557001