/*--------------------------------*- C++ -*----------------------------------*\
  =========                 |
  \\      /  F ield         | OpenFOAM: The Open Source CFD Toolbox
   \\    /   O peration     | Website:  https://openfoam.org
    \\  /    A nd           | Version:  6
     \\/     M anipulation  |
\*---------------------------------------------------------------------------*/
FoamFile
{
    version     2.0;
    format      ascii;
    class       volScalarField;
    location    "49.8";
    object      volPowerFuel;
}
// * * * * * * * * * * * * * * * * * * * * * * * * * * * * * * * * * * * * * //

dimensions      [1 -1 -3 0 0 0 0];

internalField   nonuniform List<scalar> 
203709
(
524834.8
577476.2
577413.7
524968.9
548486.6
614073
760350
752340.7
752258.1
758798.1
614030.2
548552.2
535867.5
616240.6
770238.9
768034.2
789890.3
795343.9
795322.1
789864.2
767983.6
768726
616275.8
535970.5
535852.4
748632.7
764602.1
794623.2
810239.5
823970.3
830053.1
830087.3
823964.1
810235.8
794714.8
764751.7
747604.8
536094
616121
764516.8
799083.4
823623.9
842222.7
855666
862363.4
862404.8
855689.4
842297.8
823796.6
799311.9
764813.2
616400.5
548386.1
770056.3
794502.5
823556
848836.9
868796.1
882657
889549.2
889578.5
882742.6
868964.1
849038.6
823826
794859.6
769489.6
548658.7
613852.9
767763.8
810011.3
842042.6
868719.9
889462.8
903296.4
909858.1
909893.6
903433.2
889634.3
868926.1
842344.1
810356.6
768103.5
614165.2
524858.3
760218.1
789694
823761.9
855512.6
882552.8
903265.6
916133
922511.4
922510.7
916153
903259.5
882609.8
855646.6
823962.1
789950.1
759627.9
524956.4
577320.6
752151.8
795117.5
829864.1
862184.2
889388.1
909812.5
922564.3
929506.8
929304.6
922529.8
909842.7
889504.2
862327
830035.1
795372.3
752399.9
577507.8
577381.9
752300.7
795197.2
829864.5
862156
889344.1
909741.4
922538.7
929676.1
929480.3
922574.4
909856.2
889490.2
862337.3
830043.2
795381.1
752493.7
577607.9
524730.4
758857.2
789764
823768.5
855461.6
882456.3
903152.7
916087.5
922574.1
922565.5
916217.4
903351.6
882651.5
855659.7
823955.8
789942.2
757957.2
524988.5
613848.7
767789.8
810012.1
842010.9
868600.1
889314.4
903150.8
909790.8
909782.9
903342.2
889540.8
868838
842215.9
810192.1
767996.8
614096.1
548362.6
768538
794400.9
823422.7
848641.3
868603
882424.3
889414.1
889424.2
882627.2
868844.4
848933.7
823713
794682.9
767666.1
548559.6
616044.7
764361.1
798906.4
823432.1
842012.4
855493.3
862591.8
862611.6
855609.5
842215.5
823696.3
799220.4
764741.2
616333.9
535795.3
747262.3
764416.6
794442.5
810013
823792.3
830240.1
830272.9
823889.6
810179.5
794636.3
764641
746187.8
535929.6
535847.3
616124.6
769092.2
767787
789771
795455
795543.6
789858.8
767968
767626.3
616188.8
535913
548456.7
613934.7
759430.8
752636.3
752762.8
757871.8
614008.2
548478.4
524922.1
577484.9
577537.2
524930.6
439775.2
499922.6
520291.9
534271.4
543014.4
543021.4
534296.8
520328.6
499988.7
439887.1
448555.7
522713.2
665927.2
687666.7
712491.4
739838.3
761486.3
761501.3
739918.2
712498
687572.4
664372.9
522561.2
448445.4
459117.3
654929.8
691727.4
744955
795461.2
837494.9
891806.1
936603.4
936604.1
891831.1
837333.9
795218
744816.4
691642.7
653692.9
459187.8
463657.1
667189.2
727163.7
792653.6
860558.4
957260.9
1077034
1196210
1238955
1238926
1191849
1076850
957150
860535.5
792672.6
727223.9
666055.7
463756.2
459098.7
667119.6
734514.7
811236
938754.8
1092498
1258058
1379743
1470326
1617401
1617331
1470232
1379578
1253419
1092442
938684.7
811298
734555.4
666019.4
459197
448597
655120.9
727215.1
811288.2
985846
1219075
1379149
1510818
1722644
1817491
1873451
1873352
1817232
1722294
1510515
1378868
1214419
985760
811248.7
727262.9
654167.1
448726.5
522625.3
691721.6
792664.1
938745
1218986
1442743
1697139
1838016
1948081
2016033
2050616
2050527
2015773
1947770
1837734
1696909
1442658
1214568
938854.6
792891.7
691996.3
522845.5
439935
665916.5
744840.1
860502.5
1092381
1379121
1697029
1888245
2011688
2097105
2151365
2178139
2178105
2151264
2097053
2011742
1888427
1697390
1379656
1092988
861026.1
745242.3
665270.2
439995.3
500066.6
687820.7
795348.8
957280.1
1258232
1510887
1837905
2011613
2123668
2199329
2247216
2270600
2270635
2247326
2199565
2124039
2012140
1838581
1511623
1254366
957711.9
795785.6
688033.4
500145.6
520428.5
712716.7
837438.6
1076931
1380043
1722738
1947977
2096978
2199273
2269557
2314231
2336131
2336202
2314456
2269930
2199762
2097571
1948594
1723265
1380313
1077473
837886.1
712851.9
520491.7
534384.9
740120.3
892053.7
1196555
1470795
1817784
2016065
2151302
2247171
2314223
2356881
2377812
2377784
2356868
2314230
2247254
2151491
2016331
1818053
1470998
1192535
892274.7
740248.3
534515.7
543052.8
761636.6
936768.3
1239415
1618032
1873971
2050870
2178207
2270591
2336178
2377998
2398661
2398548
2377972
2336253
2270757
2178414
2051105
1874214
1618296
1239750
937118.2
761900.4
543254.7
542959.8
761495.3
936627.6
1239336
1618089
1874104
2051064
2178317
2270577
2336097
2377992
2398842
2398816
2378232
2336507
2270990
2178623
2051293
1874400
1618456
1239718
937018.9
761813.3
543195.3
534155
739925.2
892070.1
1192437
1470851
1818056
2016384
2151511
2247208
2314135
2356847
2378011
2378170
2357387
2314828
2247842
2152017
2016799
1818491
1471360
1197113
892469.6
740315.5
534437.2
520234
712635.1
837648.1
1077221
1380185
1723043
1948283
2097153
2199256
2269401
2314046
2336073
2336251
2314653
2270214
2200090
2097900
1948912
1723597
1380753
1077558
837943.6
713070.7
520552.2
499939.4
687802.2
795563.4
957385
1254122
1511158
1838098
2011643
2123522
2199096
2246981
2270482
2270646
2247559
2199945
2124497
2012604
1838916
1511684
1258915
957824.7
795840.1
688211.1
500243.7
439820.3
664542.1
744989
860561.5
1092644
1379287
1697086
1888153
2011495
2096887
2151245
2178136
2178300
2151773
2097717
2012506
1889211
1698009
1379855
1093018
860985.6
745236.5
663907.6
440092.4
522743.1
691748.8
792604.1
938744.4
1214606
1442655
1697001
1837910
1948042
2016194
2050871
2051037
2016675
1948794
1838827
1697986
1443498
1219577
939140.3
793047.7
691975.7
522802.6
448686
653724.4
727140.5
811236.2
985820.7
1214527
1379272
1511107
1723005
1818123
1874211
1874392
1818527
1723577
1511686
1379941
1219679
986259.9
811567.9
727511.1
652818.1
448607.9
459210.9
666146
734645.5
811247.2
938763.3
1092693
1254122
1380443
1471169
1618360
1618531
1471453
1380699
1258849
1093057
939130.9
811531.1
734861.9
665161.9
459232
463804.6
666177
727260.5
792847.9
860803.1
957431.5
1077390
1192691
1239827
1239887
1197033
1077465
957657.8
860886.1
792910.8
727349.9
665041
463858.3
459120.7
654110.1
691910.8
745070.3
795584.7
837854.1
892389.9
937167.1
937169.4
892359.6
837738.1
795628.7
745187.4
691958.9
652736.8
459126.6
448734.9
522806.1
665217
688023
712948.6
740307
761948.8
761958.1
740297.3
712871
687935.9
663807.8
522871.8
448724.2
439899.1
500041.4
520375.9
534336.9
543120.4
543115.8
534428.4
520472.7
500098.2
439875.2
372714.4
422645.5
435153.4
439965.7
439869
434865
422129.6
372301.9
372304.3
446604.7
489096
616220.9
639266.7
652753.8
658896.3
658801.1
652451.3
638782.9
614476.2
488980.6
446549.2
372436.6
410605.1
597457.7
654683.3
721996.4
795606.8
829782.6
850788.1
860649.2
860566.9
850543.9
829399.8
795208.3
721790.4
654554.3
596106.9
410820
384750.8
478268.4
642622.6
764018.4
895096.1
1042109
1116886
1160445
1189440
1204477
1204382
1189174
1160054
1116454
1037858
894857.6
764013.6
641104.1
478341.3
384775.1
388384.9
585754.6
680135.3
846275.6
1061303
1213675
1341143
1542222
1636156
1691486
1719029
1718949
1691290
1635923
1542084
1341255
1213862
1057315
846180.2
680274.2
584508.1
388417.6
384736.3
585874.5
702345.3
880596.7
1138991
1329280
1588102
1755552
1900810
2008700
2081886
2118396
2118316
2081716
2008403
1900506
1755404
1588051
1329268
1135444
880726
702262
584749.2
384751.9
478452.7
680339.5
880718.9
1157284
1374222
1679175
1902789
2085070
2240770
2366637
2456423
2493335
2493229
2456112
2366203
2240396
2084885
1902739
1679215
1374276
1153739
880685.2
680330.5
478451.1
410988.7
642720.8
846310.5
1139305
1374259
1706667
1971723
2204421
2405251
2574920
2701547
2791601
2843548
2843407
2791216
2700999
2574354
2404805
2204131
1971665
1706706
1374377
1135734
846340.8
641669.6
410886.2
372393.7
597639.2
764202.6
1061505
1329878
1679723
1972033
2247349
2497916
2702157
2870488
3010856
3109568
3162928
3162749
3109073
3010152
2869734
2701439
2497367
2247069
1971907
1679689
1329878
1057214
764332.2
596704.7
372307
446810.5
654948.1
895227.6
1214340
1588874
1903611
2204912
2498073
2748427
2969549
3148402
3287365
3380711
3428330
3428143
3380203
3286681
3147693
2968929
2748035
2497954
2204951
1903754
1589038
1214264
895493.1
655090.2
446788.6
489252.4
722122.1
1042090
1342104
1756470
2085939
2405738
2702363
2969528
3198994
3377303
3508858
3595471
3638654
3638542
3595184
3508542
3377095
3198998
2969831
2702975
2406499
2086648
1757034
1342318
1038781
722474.8
489331
372789.3
616505.6
795601
1117043
1543214
1901814
2241656
2575611
2870869
3148441
3377269
3551284
3676851
3758539
3798899
3798912
3758586
3677034
3551700
3377981
3149462
2872120
2576923
2242766
1902670
1543721
1117818
796052.1
615729.1
372764.1
422497.8
639300.5
829958.1
1160926
1637232
2009810
2367579
2702465
3011483
3287598
3508910
3676882
3797726
3876151
3914878
3914952
3876395
3798208
3677614
3509855
3288654
3012552
2703509
2368627
2010560
1637682
1161447
830259.9
639471
422607.8
435144.5
652888.6
851111.8
1190218
1692807
2083274
2457773
2792913
3110617
3381316
3595774
3758707
3876226
3952508
3990126
3990112
3952520
3876317
3758930
3596147
3381827
3111214
2793582
2458503
2083778
1693045
1190459
851330.2
653041.8
435203.5
440120.4
659249
861163.9
1205492
1720567
2120002
2494990
2845252
3164497
3429442
3639334
3799284
3915119
3990412
4027585
4027575
3990496
3915332
3799596
3639695
3429867
3164980
2845866
2495665
2120455
1720697
1205553
861262.8
659298.3
440162.5
440147
659274.5
861181.7
1205545
1720623
2120121
2495150
2845408
3164716
3429805
3639626
3799376
3915073
3990401
4027733
4027882
3990906
3915793
3800057
3640123
3430249
3165323
2846154
2495867
2120608
1720789
1205550
861235.4
659277.3
440175.4
435264.1
653034.1
851214.9
1190389
1692972
2083704
2458357
2793452
3111258
3382035
3596374
3759038
3876291
3952511
3990340
3990648
3953357
3877356
3760036
3597209
3382787
3112056
2794292
2459105
2084314
1693318
1190416
851306.7
653080.5
435319.9
422748.6
639536.8
830138.9
1161252
1637474
2010377
2368432
2703330
3012378
3288456
3509558
3677209
3797752
3876028
3914831
3915128
3876881
3798935
3678486
3510769
3289534
3013336
2704192
2369147
2011043
1637966
1161244
830259.1
639647.7
422824
373076.1
615132.2
795977.2
1117620
1543393
1902313
2242327
2576487
2871750
3149190
3377752
3551467
3676819
3758444
3798917
3799192
3759273
3678078
3552974
3379303
3150599
2872913
2577468
2243211
1902999
1543976
1117497
796087.8
614526.9
373129.7
489402.7
722463.4
1038928
1342082
1756802
2086257
2406308
2702943
2969951
3199215
3377376
3508901
3595628
3639012
3639304
3596500
3510268
3379086
3201056
2971678
2704373
2407522
2087284
1757457
1342765
1042543
722494.6
489541
446795.6
655110
895652.3
1214498
1589156
1903674
2205065
2498281
2748574
2969706
3148688
3287860
3381515
3429419
3429720
3382394
3289237
3150439
2971659
2750477
2499915
2206442
1904721
1589722
1215106
895647.5
655250.5
447037
372269.4
596538.8
764558.7
1057509
1330113
1679794
1972140
2247572
2498257
2702758
2871471
3012193
3111317
3165002
3165284
3112087
3013363
2872962
2704496
2500017
2249140
1973454
1680730
1330452
1062272
764542.2
595630.3
372612.3
410822
641503.9
846610.9
1135887
1374614
1707056
1972304
2205236
2406418
2576587
2703613
2794046
2846271
2846498
2794624
2704434
2577635
2407687
2206531
1973490
1708082
1375370
1139974
846874.7
640508.3
410993.8
478492.4
680540.2
880991.8
1154068
1374690
1680156
1904142
2086725
2242703
2368968
2459225
2496403
2496531
2459555
2369481
2243403
2087447
1904872
1680866
1375325
1158143
881249.7
680609.5
478527.8
384954.6
584877.2
702655
881043.6
1136329
1330499
1589489
1757254
1902828
2011053
2084582
2121254
2121313
2084806
2011335
1903179
1757699
1590046
1330939
1140197
881278.3
702765.7
583855
384919.6
388487.1
585142.3
680739.5
846708.1
1057681
1214531
1342494
1543816
1637924
1693498
1721170
1721181
1693727
1638288
1544192
1342765
1215060
1062392
847043.2
680844.8
583962.1
388509.6
384982.6
478707
641895.9
764567.7
895534.6
1038634
1117397
1161009
1190269
1205996
1205880
1190627
1161561
1117976
1043172
895956.1
764809.5
640660.6
478674.5
385020
410921.2
596853.7
655125.3
722390.3
795832.3
829961.3
851084.3
861297.1
861143.1
851219
830142
796018
722478.6
655127.4
595725
410915.9
372293.3
446855.6
489328.5
615833.4
639363.1
652878.6
659479.2
659417.6
652861.1
639325.7
614312.7
489310.6
446772
372443.9
372933
422563
435074.6
440132.1
440090.5
435015
422446.8
372663.2
330781.2
372827.1
382221.2
382111
372488.5
330543.5
317948.8
395370.4
442415.6
496021
616244.1
642312.7
652341
652092.5
641671.4
613673.4
495852.7
442351.4
395250.3
317987.8
320526.5
415028.1
576538.7
674621.1
760818.9
884539.1
952973.7
981387.2
995240.5
994924.1
980585.8
952212.6
881117.5
760495.2
674124.9
574580.7
415058.8
320726.4
358582.7
556936.7
697116
895131.4
1010523
1124859
1227348
1397716
1463352
1489555
1489278
1462625
1396838
1226622
1124067
1009863
890625.1
697040.5
555519.5
358829.1
384223.1
618701.9
804695
1029274
1207454
1452753
1611982
1734304
1836641
1899501
1928519
1928299
1898908
1835855
1733558
1611400
1452350
1207121
1025372
804605.2
616948.4
384308.8
398500.4
669143.7
926970.6
1125584
1321892
1642912
1873344
2055390
2184699
2282841
2346533
2377461
2377306
2346119
2282290
2184140
2054890
1872984
1642810
1321839
1125216
922967.3
667226.3
398437
384337.3
669246.2
968249.6
1198640
1524107
1793495
2063121
2288287
2475477
2633362
2749459
2823620
2859755
2859669
2823415
2749250
2633255
2475499
2288363
2063201
1793417
1523982
1198416
964657.1
667342.2
384249
358778.7
618808
927371.6
1198725
1563788
1883920
2181531
2444896
2691557
2900990
3073146
3200626
3283368
3323848
3323802
3283284
3200562
3073195
2901194
2691840
2445161
2181684
1883978
1563657
1198500
923217.4
617365.9
358661.1
320690.9
557077.9
805236.7
1125918
1524511
1884221
2222369
2523292
2815017
3080281
3304235
3486213
3623645
3713758
3756631
3756542
3713549
3623449
3486183
3304434
3080641
2815411
2523574
2222439
1884126
1524244
1125611
805030.7
555934
320568.3
415260.1
697676.7
1029475
1322858
1794238
2182229
2523711
2855208
3165830
3442596
3678043
3868586
4012913
4110070
4159660
4159520
4109699
4012454
3868235
3677908
3442705
3166117
2855498
2523883
2182153
1794022
1322539
1025870
697474.8
415232.8
318217
576726.3
895262.7
1208157
1644221
2064334
2446129
2816029
3166415
3487947
3773407
4016924
4215968
4370985
4477395
4532113
4531896
4476807
4370196
4215206
4016336
3773101
3487916
3166517
2816133
2446112
2064141
1643906
1207473
891086.4
575761.4
318383.9
395340
674742.7
1010825
1454052
1874845
2289975
2693281
3081859
3443731
3773943
4066657
4321684
4531883
4694133
4804177
4859903
4859642
4803474
4693193
4530963
4320975
4066292
3773930
3443935
3082143
2693490
2289946
1874678
1453364
1010349
674577.3
395436.3
442633.4
761282.8
1125780
1613740
2057138
2477632
2903157
3306189
3679496
4017752
4321919
4587384
4804075
4968434
5078578
5133791
5133602
5078090
4967862
4803670
4587328
4322294
4018519
3680474
3307139
2903867
2477943
2057207
1613076
1124972
760712
442380.6
496427.9
885796.9
1229084
1736450
2186901
2635879
3075621
3488373
3870280
4217041
4532287
4804156
5023285
5187396
5296434
5350814
5350793
5296392
5187514
5023771
4805135
4533768
4218874
3872187
3490037
3076824
2636513
2187076
1735827
1227983
881206.8
495875.6
331075.7
616612.1
954386.2
1399829
1839111
2285502
2752324
3203332
3626020
4014966
4372497
4694932
4968769
5187553
5350371
5458129
5511797
5511872
5458397
5350977
5188592
4970206
4696605
4374281
4016753
3627621
3204455
2752830
2285512
1838418
1398590
953053.8
615283.8
330683.5
372842.2
642791.4
982727.2
1465570
1902212
2349600
2826882
3286427
3716540
4112697
4479586
4805641
5079422
5296920
5458333
5564981
5618029
5618046
5565079
5458586
5297399
5080164
4806616
4480739
4113969
3717766
3287193
2827000
2349285
1901455
1464460
981656.2
642168.9
372727.3
382413.6
653011.4
996590.2
1491939
1931513
2380879
2863381
3327309
3759865
4162863
4535094
4862198
5135329
5351757
5512308
5618397
5671195
5671260
5618626
5512713
5352300
5135979
4862994
4536049
4164038
3760997
3327910
2863285
2380333
1930688
1491007
995936.2
652630.4
382329.1
382425.6
653080.2
996760.9
1491985
1931564
2380960
2863530
3327587
3760201
4163159
4535419
4862709
5135829
5351990
5512312
5618366
5671293
5671558
5619107
5513310
5352936
5136590
4863543
4536533
4164475
3761409
3328299
2863607
2380577
1930922
1491236
996156.8
652804.2
382453
373045.9
642909.7
982748.8
1465542
1902301
2349811
2827263
3287184
3717489
4113623
4480598
4806774
5080475
5297624
5458613
5565022
5618174
5618558
5566033
5459894
5298896
5081672
4807997
4481937
4115019
3718761
3288142
2827771
2349904
1902206
1465309
982504.8
642839.7
373108.9
331363.1
614589.8
954034.9
1399636
1839147
2285790
2752807
3204265
3627294
4016371
4373962
4696395
4970005
5188350
5350686
5458121
5511767
5512098
5459051
5352027
5189911
4971642
4698012
4375510
4017786
3628555
3205369
2753640
2286267
1839580
1399947
954278.5
614144.2
331451
496419.9
882073.4
1228886
1736461
2187258
2636314
3076420
3489509
3871686
4218543
4533684
4805234
5023950
5187712
5296601
5351101
5351427
5297560
5189212
5025848
4807325
4535736
4220399
3873308
3490925
3077636
2637332
2187893
1737177
1229428
885778.4
496583.7
442629.9
761232.2
1125723
1613643
2057494
2477941
2903741
3306943
3680479
4018831
4322878
4588125
4804637
4968967
5079284
5134864
5135254
5080433
4970791
4806984
4590745
4325461
4021135
3682481
3308629
2905106
2479130
2058190
1614493
1126221
761499.9
442680.1
395634.8
675062.2
1011145
1453953
1875068
2290302
2693778
3082368
3444338
3774625
4067361
4322482
4532907
4695525
4806072
4862368
4862797
4807329
4697525
4535505
4325434
4070344
3777336
3446669
3084270
2695259
2291594
1875933
1454862
1011317
675046
395522.8
318482
575335.7
891975.7
1208104
1644213
2064633
2446594
2816552
3167066
3488836
3774612
4018567
4218188
4373828
4480881
4536194
4536581
4482006
4375609
4220532
4021302
3777452
3491519
3169444
2818506
2448125
2066018
1645243
1208985
895615.1
574413.5
318388.3
415399.4
697761.9
1026525
1322634
1794639
2182769
2524491
2856314
3167401
3444706
3680766
3872016
4017027
4114802
4164889
4165182
4115640
4018342
3873762
3682838
3446903
3169561
2858343
2526292
2184315
1795880
1323684
1030291
697906.2
415410.6
320693.1
556032.6
805532.9
1126683
1525307
1885086
2223535
2524902
2817230
3083125
3307719
3490347
3628413
3719085
3762347
3762536
3719637
3629294
3491528
3309122
3084658
2818804
2526444
2224919
1886179
1526006
1126970
805646.9
555175.5
320880.5
358783.8
617663.4
924325.3
1199382
1564659
1885268
2183422
2447394
2694588
2904659
3077446
3205484
3288691
3329444
3329555
3289065
3206087
3078259
2905692
2695793
2448606
2184574
1886333
1565501
1199971
928038.7
616338.8
358943.7
384419.5
667890.2
965948.7
1199293
1525531
1795241
2065358
2290985
2478789
2637217
2753776
2828356
2864766
2864817
2828658
2754320
2637950
2479703
2292050
2066334
1796043
1526281
1199863
969441.1
666251.3
384462.3
398576.9
667936.1
924503.1
1126923
1323486
1644971
1875678
2058069
2187844
2286406
2350543
2381924
2381886
2350781
2286881
2188510
2058940
1876500
1645559
1323667
1127341
928582.2
666373.6
398639.6
384302.5
617863.1
805825.6
1026750
1208386
1454419
1614198
1737078
1839788
1902965
1932197
1932085
1902955
1839882
1737303
1614707
1455105
1209205
1030639
805928.3
616547.5
384396.9
358682.3
556311.1
697964.4
892054.4
1011158
1125884
1229315
1400159
1466015
1492328
1492251
1466002
1400235
1229430
1126490
1012030
896400.1
697919.8
555128.3
358733.9
320539
415317.7
575968.2
674758.4
761205.5
882368.7
954424
982948
996877.3
996731.9
982956.4
954665.7
886170.4
761832.4
675299.2
574489.8
415296.7
320643.6
318397.2
395267.7
442426.3
496315.5
615908.7
642837.5
653030
652967.4
642853.4
614136.1
496515.3
442768.2
395554.3
318122.6
331223.9
372819.8
382280.2
382217.2
372763.3
330995.2
274782.4
333593.9
376671.7
404492.4
414352.8
414636.4
405315.9
378152.2
334943.5
275389.5
279644.6
379624.2
449562.3
571051.1
650192.8
765991.8
806643.6
822338.8
821931.2
805983.7
762515.1
650022.7
569706.3
449423.4
379727.2
279629
371782.3
579455
754345.3
856177.5
956171.9
1056387
1142494
1291681
1337681
1337205
1290643
1141352
1054898
955211
856084.9
751510.4
577639.1
371392.5
307838.9
474908.3
760591.6
952677.7
1109567
1347341
1505640
1638888
1736489
1816693
1855945
1855478
1815559
1735167
1637552
1504502
1346663
1109531
951936.8
751603.5
474476.7
307781
333393
595054.5
874415.2
1100074
1402147
1638959
1842837
2015309
2157073
2277972
2361370
2402052
2401702
2360474
2276827
2155874
2014086
1841730
1637973
1401260
1099124
870233.5
592997.7
333298.2
339942.5
620092.4
940679.3
1191942
1552485
1853535
2106332
2339900
2535599
2693303
2818711
2903391
2945273
2945042
2902779
2817883
2692409
2534648
2338909
2105252
1852304
1551510
1190909
936219.6
618141.4
339732.8
333580.6
620287.9
959271.1
1241254
1650716
1987943
2290215
2580921
2839699
3054422
3224327
3354153
3441153
3484442
3484337
3440883
3353796
3223931
3053903
2839034
2580145
2289265
1986869
1649763
1240402
954787
618361
333382.9
307939.7
595259.9
940940.1
1241651
1684382
2062955
2422897
2753275
3060918
3332808
3562342
3749074
3889793
3982860
4028990
4029020
3982979
3890039
3749422
3562604
3332841
3060719
2752818
2422280
2062253
1683467
1240913
936869
593781.8
307840.8
474842.6
874746.5
1192226
1651257
2063282
2466570
2849299
3201559
3522877
3812100
4059233
4260087
4410585
4509702
4558722
4558837
4510093
4411274
4260997
4060133
3812817
3523327
3201691
2849156
2466146
2062534
1650319
1191424
871218
474721.2
371162.3
760876.4
1100460
1553327
1988639
2423543
2849773
3250884
3620557
3962364
4269121
4530771
4742621
4901785
5006799
5058564
5058703
5007242
4902563
4743702
4531970
4270260
3963277
3621103
3251009
2849472
2422847
1987661
1552206
1099409
753554.5
371471.4
279270.4
579598.8
952887.1
1403062
1854538
2291561
2754547
3202637
3621225
4012825
4372949
4693470
4966942
5188528
5356028
5467952
5524046
5524083
5468115
5356431
5189251
4967899
4694530
4373932
4013537
3621538
3202497
2754013
2290622
1853398
1401918
952215.3
578640.1
279580.8
379645
754835.2
1111291
1640519
2108100
2583056
3063034
3524819
3963909
4373883
4747520
5078811
5362606
5594415
5771761
5891737
5952344
5952215
5891430
5771474
5594367
5362853
5079318
4748154
4374453
3964246
3524870
3062695
2582150
2106681
1639265
1110232
751085.8
379701.8
449550.7
857226.8
1349062
1844771
2342466
2842615
3335801
3814951
4271618
4695355
5079780
5421083
5715953
5958690
6144948
6271014
6334564
6334309
6270348
6144145
5958078
5715714
5421259
5080280
4695995
4272208
3815301
3335707
2841863
2340938
1843241
1347792
856363.6
449812.7
274497.2
571631.4
957123.4
1507441
2017920
2539027
3058173
3566261
4062995
4534122
4969613
5364296
5716605
6022244
6273851
6466181
6595869
6661042
6660821
6595307
6465580
6273566
6022490
5717417
5365558
4971081
4535468
4063921
3566522
3057591
2537392
2015907
1505755
956162.4
570903.3
275817.4
333586.6
650318.1
1057245
1641258
2160623
2697622
3228956
3753832
4264598
4746590
5191761
5596618
5959757
6274173
6531823
6727732
6859291
6925283
6925255
6859246
6727934
6532604
6275700
5961979
5599251
5194410
4748861
4266146
3754427
3228461
2695907
2158174
1638834
1055917
650295.6
335092.1
376719.1
766702
1144554
1739784
2282289
2823721
3359485
3895188
4415576
4906186
5359815
5774624
6146641
6466963
6728050
6925732
7058136
7124514
7124622
7058526
6926625
6729637
6469139
6149174
5777322
5362467
4908470
4417066
3895649
3358883
2821936
2279590
1736684
1141926
762529.2
378281.9
404371.8
807857.9
1294305
1820428
2366119
2908858
3446987
3988739
4515145
5011645
5472430
5895508
6273655
6597433
6860176
7058503
7191113
7257545
7257626
7191390
7059064
6861127
6598807
6275371
5897471
5474508
5013510
4516110
3988706
3446084
2907041
2363558
1817466
1291555
806476.1
405488.6
414241.1
823609.4
1340530
1859935
2407083
2951051
3490600
4035188
4564537
5063900
5529146
5957081
6338325
6663612
6926885
7125328
7257967
7324441
7324581
7258387
7126011
6927806
6664775
6339744
5958776
5531113
5065622
4565314
4034923
3489506
2949283
2404857
1857534
1338371
822510.5
414867.8
414151.1
823599.1
1340465
1859941
2407065
2951032
3490634
4035316
4564842
5064352
5529568
5957505
6338968
6664363
6927303
7125410
7257917
7324456
7324802
7258844
7126654
6928544
6665516
6340416
5959366
5531676
5066212
4565930
4035518
3490083
2949916
2405601
1858398
1339228
823074.9
414635.4
404506.6
807876.1
1294181
1820309
2365990
2908780
3447064
3989078
4515965
5012878
5473670
5896845
6275193
6598992
6861344
7059079
7191218
7257565
7257954
7192233
7060411
6862821
6600617
6277066
5898940
5475839
5014867
4517517
3990073
3447509
2908787
2365645
1819773
1293728
807657
404739
376915.9
763725.2
1144598
1739609
2282093
2823603
3359593
3895645
4416659
4907773
5361628
5776589
6148704
6468871
6729472
6926499
7058365
7124551
7124841
7059194
6927790
6731195
6470956
6151016
5778937
5363836
4909783
4418456
3897157
3360734
2824421
2282538
1739748
1144562
766378.4
376931.2
333817.3
650874.6
1058071
1641354
2160582
2697585
3229152
3754337
4265624
4748113
5193639
5598709
5961877
6276017
6533204
6728658
6859982
6926059
6926383
6860947
6730253
6535407
6278670
5964702
5601459
5196117
4750309
4267610
3756117
3230599
2698750
2161291
1641587
1057719
650824.5
333794.1
275043.9
570163.6
957643.1
1507877
2018166
2539147
3058482
3566776
4063882
4535355
4971155
5366043
5718340
6023820
6275288
6467643
6597594
6663275
6663740
6598968
6469874
6278277
6027299
5721904
5369365
4974109
4537932
4066144
3568763
3060045
2540387
2018814
1507936
957318.8
569420
274802
449977.5
857422.1
1349529
1845393
2342819
2843017
3336368
3815773
4272659
4696623
5081276
5422777
5717906
5961057
6147912
6274724
6339086
6339631
6276331
6150514
5964526
5721936
5426918
5085142
4700039
4275604
3818283
3338504
2844663
2344015
1845839
1349737
857709.7
449895.3
379903.7
752121.2
1111560
1641284
2108666
2583524
3063677
3525671
3964984
4375259
4749430
5081376
5365948
5598666
5776967
5897864
5959268
5959751
5899293
5779292
5601809
5369672
5085316
4753260
4378768
3968053
3528272
3065866
2585196
2109751
1641571
1111934
755363.2
379977.1
279816.2
578739.4
953824.7
1403730
1855433
2292247
2755456
3203765
3622696
4014863
4375824
4697308
4971853
5194572
5363109
5475880
5532571
5532926
5476930
5364824
5196931
4974707
4700407
4378954
4017865
3625433
3206139
2757408
2293712
1856194
1404131
953703.8
577423.7
279556.2
372182.4
753923.4
1100866
1553950
1989809
2424829
2851219
3252806
3623168
3965914
4273778
4536608
4749629
4909770
5015502
5067678
5067917
5016220
4910968
4751317
4538708
4276122
3968357
3625566
3255004
2853061
2426225
1990722
1554638
1101327
753532.8
371542.9
475368.6
872569.1
1192800
1652126
2064440
2468120
2851481
3204446
3526728
3817017
4065322
4267306
4418671
4518364
4567670
4567828
4518867
4419542
4268581
4066968
3818881
3528652
3206295
2853167
2469506
2065508
1652798
1193317
875080.5
475031.6
307965.4
593632.4
938426.9
1241982
1685538
2064468
2425043
2756131
3064671
3337527
3568148
3755911
3897414
3991028
4037450
4037553
3991409
3898121
3756971
3569522
3339016
3066098
2757396
2426220
2065415
1686225
1242533
941723.9
592663.9
308009.1
333485.1
618765.4
956782.7
1242205
1652111
1989884
2292856
2584375
2843992
3059608
3230467
3361064
3448643
3492302
3492352
3448928
3361630
3231330
3060717
2845065
2585301
2293601
1990708
1652733
1242596
960392.3
617551.3
333600.7
339963.4
618978.4
938328.4
1192413
1553815
1855558
2109052
2343442
2539978
2698646
2824835
2910077
2952283
2952291
2910233
2825189
2699216
2540771
2344231
2109837
1856261
1554489
1192865
941801.8
617516.4
340026.4
333521.1
594146.6
872564.3
1100354
1403502
1641308
1845564
2018516
2161233
2282986
2366934
2407924
2407917
2367052
2283295
2161749
2019250
1846157
1641703
1404118
1101228
875711.8
592487.6
333489.4
307862.5
474999.7
753996.3
953201.4
1111553
1349495
1507767
1641535
1740155
1820904
1860512
1860465
1820998
1740483
1642185
1508339
1349643
1111402
953974.2
754352.6
475327.6
307865.2
371560.1
578960.8
751507.9
857349.8
957144
1057604
1144776
1294485
1340785
1340743
1294528
1144849
1057788
957352.2
857503.7
755422.3
577663.4
372059.9
279435.5
379686.3
449606.2
570912.7
650685.5
763615.6
807870.1
823609
823487.8
807899.6
766861.2
650708.8
569221.6
449542.7
379804.9
279698.5
274591.9
333506.4
376574.5
404221.1
414014.8
413872.3
404215
376631.2
333548.9
274450.1
237943.1
290204.9
320939.6
352796.2
375060.8
377946.1
369201
339085.1
292667
241113.3
248231.2
349362.9
437647.6
612874.5
695233.7
748271.4
779683.9
793544.5
793646.4
780192.9
751961.1
699065
610114.5
438593.1
349736.8
248236.1
249959.4
389461.1
630785.2
770784.6
896167.8
1020727
1211427
1322551
1379187
1405168
1404546
1377573
1321063
1210504
1020214
896040.3
770329.7
625307.6
389316.2
249986.3
317431.6
552521.1
815993.7
1017599
1288422
1474913
1632702
1778544
1891119
1977585
2019781
2019103
1975773
1888771
1776145
1630964
1474054
1287327
1016522
813052.9
550540.2
317343.6
368886.5
707386.3
959188
1197514
1548886
1814981
2046529
2237690
2395983
2518081
2607339
2652843
2652299
2605891
2516142
2393893
2235823
2045074
1813546
1546904
1195533
958197.7
699162.5
368568.5
393048.7
781379.2
1072084
1452430
1767606
2092383
2381738
2634135
2846641
3020126
3156573
3251859
3300227
3299890
3250955
3155286
3018551
2844843
2632224
2379663
2090039
1765245
1450543
1071024
772863
392735.8
392984.5
799393.3
1119757
1545182
1922182
2290372
2637723
2948532
3223922
3457218
3646840
3793675
3894116
3944874
3944705
3893644
3792936
3645794
3455711
3221947
2946172
2635097
2287839
1919905
1543213
1118446
790606.9
392248.1
368578
781140.9
1120402
1573676
1988838
2408152
2806965
3174933
3511443
3809637
4061888
4265880
4421657
4527016
4580085
4580075
4526973
4421534
4265548
4061000
3808040
3509335
3172511