/*--------------------------------*- C++ -*----------------------------------*\
  =========                 |
  \\      /  F ield         | OpenFOAM: The Open Source CFD Toolbox
   \\    /   O peration     | Website:  https://openfoam.org
    \\  /    A nd           | Version:  6
     \\/     M anipulation  |
\*---------------------------------------------------------------------------*/
FoamFile
{
    version     2.0;
    format      ascii;
    class       volScalarField;
    location    "50/region0/neutronTransport";
    object      discFlux7;
}
// * * * * * * * * * * * * * * * * * * * * * * * * * * * * * * * * * * * * * //

dimensions      [0 -2 -1 0 0 0 0];

internalField   nonuniform List<scalar> 
203709
(
6.166056
16.44282
15.41514
6.166056
4.110704
15.41514
46.24542
40.07936
39.05169
47.27309
14.38746
7.193732
5.13838
14.38746
46.24542
36.99633
34.94098
38.02401
36.99633
36.99633
36.99633
48.30077
13.35979
7.193732
5.13838
47.27309
39.05169
35.96866
34.94098
32.88563
34.94098
35.96866
32.88563
34.94098
35.96866
40.07936
48.30077
8.221408
14.38746
39.05169
33.91331
35.96866
35.96866
33.91331
35.96866
34.94098
33.91331
38.02401
35.96866
34.94098
41.10704
17.47049
4.110704
46.24542
35.96866
35.96866
35.96866
34.94098
33.91331
34.94098
34.94098
33.91331
34.94098
35.96866
38.02401
35.96866
51.3838
8.221408
14.38746
35.96866
34.94098
34.94098
34.94098
33.91331
34.94098
33.91331
33.91331
34.94098
33.91331
33.91331
36.99633
35.96866
39.05169
18.49817
5.13838
46.24542
33.91331
33.91331
32.88563
32.88563
34.94098
31.85795
31.85795
32.88563
31.85795
33.91331
33.91331
34.94098
34.94098
36.99633
51.3838
9.249084
16.44282
40.07936
38.02401
34.94098
35.96866
34.94098
33.91331
31.85795
34.94098
33.91331
32.88563
33.91331
34.94098
34.94098
34.94098
36.99633
41.10704
21.58119
14.38746
38.02401
38.02401
35.96866
34.94098
33.91331
33.91331
31.85795
33.91331
32.88563
32.88563
32.88563
34.94098
34.94098
35.96866
38.02401
41.10704
22.60887
7.193732
47.27309
34.94098
34.94098
34.94098
34.94098
33.91331
31.85795
32.88563
31.85795
31.85795
34.94098
33.91331
34.94098
34.94098
34.94098
49.32845
12.33211
14.38746
38.02401
36.99633
36.99633
33.91331
33.91331
34.94098
33.91331
33.91331
34.94098
33.91331
33.91331
35.96866
36.99633
38.02401
18.49817
7.193732
48.30077
36.99633
35.96866
34.94098
33.91331
34.94098
33.91331
33.91331
33.91331
33.91331
35.96866
35.96866
36.99633
47.27309
12.33211
13.35979
40.07936
34.94098
35.96866
36.99633
34.94098
34.94098
35.96866
34.94098
35.96866
36.99633
33.91331
40.07936
18.49817
7.193732
48.30077
41.10704
35.96866
36.99633
34.94098
36.99633
36.99633
35.96866
36.99633
36.99633
40.07936
50.35612
12.33211
8.221408
17.47049
51.3838
39.05169
35.96866
38.02401
36.99633
34.94098
36.99633
49.32845
18.49817
12.33211
8.221408
18.49817
49.32845
41.10704
42.13471
50.35612
18.49817
12.33211
9.249084
21.58119
22.60887
13.35979
5.13838
11.30444
11.30444
13.35979
13.35979
13.35979
13.35979
11.30444
12.33211
7.193732
5.13838
13.35979
44.19007
36.99633
36.99633
36.99633
38.02401
36.99633
36.99633
36.99633
38.02401
46.24542
14.38746
7.193732
4.110704
42.13471
35.96866
34.94098
35.96866
31.85795
56.52218
69.88196
68.85429
58.57753
31.85795
35.96866
35.96866
34.94098
43.16239
6.166056
4.110704
42.13471
33.91331
33.91331
32.88563
57.54985
114.072
9.506389e+14
1.227769e+15
1.223014e+15
1.056285e+15
136.6809
62.68823
32.88563
34.94098
35.96866
45.21774
6.166056
4.110704
42.13471
32.88563
30.83028
58.57753
116.1274
9.828455e+14
1.393689e+15
1.736696e+15
2.058796e+15
2.087203e+15
1.78613e+15
1.40376e+15
1.095549e+15
138.7363
60.63288
31.85795
35.96866
44.19007
6.166056
4.110704
43.16239
33.91331
31.85795
89.40781
9.808542e+14
1.394458e+15
1.761077e+15
2.141246e+15
2.295323e+15
2.415844e+15
2.434451e+15
2.367031e+15
2.203937e+15
1.816103e+15
1.404243e+15
1.092708e+15
113.0444
32.88563
35.96866
44.19007
7.193732
14.38746
34.94098
34.94098
58.57753
9.807767e+14
1.715025e+15
2.128741e+15
2.303598e+15
2.453045e+15
2.522647e+15
2.564009e+15
2.572886e+15
2.550878e+15
2.491762e+15
2.379501e+15
2.183388e+15
1.758759e+15
1.13488e+15
80.15872
35.96866
38.02401
17.47049
5.13838
43.16239
34.94098
32.88563
116.1274
1.394685e+15
2.128786e+15
2.405356e+15
2.515119e+15
2.579162e+15
2.612853e+15
2.630474e+15
2.63401e+15
2.623819e+15
2.597409e+15
2.545993e+15
2.443902e+15
2.22222e+15
1.613242e+15
146.9577
32.88563
34.94098
49.32845
8.221408
11.30444
36.99633
34.94098
58.57753
9.831651e+14
1.761506e+15
2.303798e+15
2.515199e+15
2.595567e+15
2.633434e+15
2.652216e+15
2.660938e+15
2.662308e+15
2.656539e+15
2.641609e+15
2.610745e+15
2.545144e+15
2.385958e+15
1.895308e+15
1.153723e+15
80.15872
34.94098
40.07936
16.44282
11.30444
36.99633
32.88563
115.0997
1.394155e+15
2.1416e+15
2.453261e+15
2.579285e+15
2.633514e+15
2.658543e+15
2.670422e+15
2.675974e+15
2.676706e+15
2.672613e+15
2.662615e+15
2.641884e+15
2.59843e+15
2.499928e+15
2.260634e+15
1.619804e+15
146.9577
32.88563
39.05169
17.47049
14.38746
35.96866
56.52218
9.506249e+14
1.737004e+15
2.295609e+15
2.522834e+15
2.612974e+15
2.652334e+15
2.670512e+15
2.679263e+15
2.683363e+15
2.683619e+15
2.680307e+15
2.6728e+15
2.657043e+15
2.624805e+15
2.553756e+15
2.381821e+15
1.873662e+15
1.124537e+15
77.0757
40.07936
19.52584
12.33211
38.02401
68.85429
1.227736e+15
2.058902e+15
2.416013e+15
2.564127e+15
2.630577e+15
2.66108e+15
2.67613e+15
2.683474e+15
2.686445e+15
2.686497e+15
2.683836e+15
2.677413e+15
2.663426e+15
2.636514e+15
2.579396e+15
2.455766e+15
2.174308e+15
1.471677e+15
94.54619
39.05169
18.49817
13.35979
38.02401
69.88196
1.222651e+15
2.08701e+15
2.43443e+15
2.572934e+15
2.634084e+15
2.662414e+15
2.676835e+15
2.683808e+15
2.686839e+15
2.686701e+15
2.683896e+15
2.677189e+15
2.662857e+15
2.63491e+15
2.575173e+15
2.447217e+15
2.159799e+15
1.510905e+15
95.57386
39.05169
18.49817
13.35979
35.96866
58.57753
1.056537e+15
1.785738e+15
2.36691e+15
2.550873e+15
2.623822e+15
2.656583e+15
2.672685e+15
2.680437e+15
2.684047e+15
2.68396e+15
2.680472e+15
2.672102e+15
2.655334e+15
2.620225e+15
2.542226e+15
2.35723e+15
1.823874e+15
1.34589e+15
85.2971
38.02401
18.49817
11.30444
36.99633
31.85795
136.6809
1.403563e+15
2.20389e+15
2.491663e+15
2.597316e+15
2.641579e+15
2.66268e+15
2.672933e+15
2.677593e+15
2.677269e+15
2.67217e+15
2.661091e+15
2.638566e+15
2.590536e+15
2.482296e+15
2.225819e+15
1.624643e+15
177.7879
31.85795
39.05169
17.47049
11.30444
38.02401
35.96866
61.66056
1.096061e+15
1.816491e+15
2.379614e+15
2.545996e+15
2.610723e+15
2.64197e+15
2.657191e+15
2.663485e+15
2.66281e+15
2.655434e+15
2.638665e+15
2.604915e+15
2.534935e+15
2.363615e+15
1.842345e+15
1.370408e+15
90.43548
35.96866
40.07936
17.47049
7.193732
46.24542
35.96866
31.85795
137.7086
1.404562e+15
2.183685e+15
2.443982e+15
2.545204e+15
2.598582e+15
2.62493e+15
2.636084e+15
2.634281e+15
2.620225e+15
2.590633e+15
2.53496e+15
2.436446e+15
2.208614e+15
1.623372e+15
182.9263
32.88563
34.94098
46.24542
11.30444
14.38746
38.02401
34.94098
61.66056
1.093044e+15
1.759104e+15
2.222334e+15
2.386134e+15
2.500174e+15
2.553918e+15
2.578677e+15
2.574379e+15
2.542258e+15
2.482339e+15
2.363636e+15
2.208729e+15
1.797132e+15
1.369549e+15
88.38013
35.96866
34.94098
18.49817
7.193732
45.21774
36.99633
31.85795
113.0444
1.135202e+15
1.613389e+15
1.8956e+15
2.261064e+15
2.382072e+15
2.455191e+15
2.44658e+15
2.357282e+15
2.225831e+15
1.842438e+15
1.623725e+15
1.369863e+15
153.1237
33.91331
35.96866
45.21774
12.33211
6.166056
44.19007
35.96866
32.88563
81.1864
146.9577
1.153949e+15
1.62061e+15
1.873736e+15
2.173455e+15
2.159128e+15
1.823953e+15
1.624524e+15
1.370318e+15
182.9263
89.40781
32.88563
35.96866
44.19007
9.249084
5.13838
46.24542
35.96866
35.96866
31.85795
80.15872
144.9023
1.124408e+15
1.471087e+15
1.510852e+15
1.345558e+15
179.8433
90.43548
32.88563
34.94098
35.96866
44.19007
9.249084
6.166056
45.21774
39.05169
35.96866
34.94098
32.88563
77.0757
95.57386
96.60154
86.32478
33.91331
36.99633
34.94098
36.99633
45.21774
9.249084
7.193732
17.47049
48.30077
39.05169
39.05169
39.05169
41.10704
40.07936
39.05169
38.02401
40.07936
47.27309
17.47049
11.30444
7.193732
16.44282
17.47049
20.55352
18.49817
18.49817
20.55352
17.47049
17.47049
12.33211
3.083028
12.33211
12.33211
11.30444
11.30444
12.33211
13.35979
5.13838
3.083028
12.33211
12.33211
44.19007
38.02401
39.05169
38.02401
36.99633
40.07936
39.05169
47.27309
12.33211
13.35979
5.13838
4.110704
46.24542
32.88563
57.54985
71.93732
71.93732
72.96499
71.93732
71.93732
71.93732
72.96499
70.90964
59.6052
33.91331
45.21774
5.13838
5.13838
12.33211
39.05169
59.6052
117.1551
1.005494e+15
1.293447e+15
1.311436e+15
1.308856e+15
1.306099e+15
1.304823e+15
1.304152e+15
1.301526e+15
1.281608e+15
1.114403e+15
139.7639
63.71591
40.07936
13.35979
7.193732
6.166056
44.19007
32.88563
94.54619
1.037903e+15
1.472485e+15
1.849586e+15
2.199991e+15
2.31887e+15
2.360497e+15
2.368419e+15
2.365565e+15
2.351752e+15
2.310964e+15
2.222551e+15
1.894383e+15
1.481558e+15
1.159616e+15
119.2104
33.91331
44.19007
8.221408
5.13838
43.16239
33.91331
99.68457
1.140515e+15
1.836932e+15
2.257064e+15
2.453519e+15
2.630924e+15
2.737816e+15
2.839371e+15
2.860103e+15
2.856253e+15
2.828643e+15
2.722041e+15
2.641301e+15
2.513696e+15
2.306004e+15
1.882552e+15
1.279227e+15
125.3765
33.91331
46.24542
8.221408
12.33211
33.91331
100.7122
1.144228e+15
1.863303e+15
2.338753e+15
2.624176e+15
2.787539e+15
2.95781e+15
3.095679e+15
3.513187e+15
3.620806e+15
3.62822e+15
3.572662e+15
3.109688e+15
2.961982e+15
2.795905e+15
2.652285e+15
2.428818e+15
1.938889e+15
1.286842e+15
126.4041
34.94098
16.44282
5.13838
38.02401
95.57386
1.140918e+15
1.863199e+15
2.3558e+15
2.688621e+15
2.932805e+15
3.111452e+15
3.563657e+15
3.733149e+15
3.874252e+15
3.999449e+15
4.027019e+15
3.982017e+15
3.801044e+15
3.642746e+15
3.137468e+15
2.94703e+15
2.717734e+15
2.452605e+15
1.942069e+15
1.286458e+15
121.2658
42.13471
6.166056
2.055352
43.16239
59.6052
1.03742e+15
1.837311e+15
2.339189e+15
2.688964e+15
3.013671e+15
3.53536e+15
3.732919e+15
3.89693e+15
4.054215e+15
4.140881e+15
4.204664e+15
4.224231e+15
4.203953e+15
4.127888e+15
4.020986e+15
3.806218e+15
3.614301e+15
3.044375e+15
2.720663e+15
2.438415e+15
1.914256e+15
1.209623e+15
83.24175
46.24542
7.193732
13.35979
32.88563
118.1827
1.472727e+15
2.257229e+15
2.624579e+15
2.933041e+15
3.535253e+15
3.843542e+15
4.040904e+15
4.14825e+15
4.232521e+15
4.281482e+15
4.311808e+15
4.321549e+15
4.311568e+15
4.277797e+15
4.221243e+15
4.117945e+15
3.975908e+15
3.668913e+15
2.963081e+15
2.666737e+15
2.357773e+15
1.701225e+15
151.0684
34.94098
16.44282
12.33211
56.52218
1.004018e+15
1.849878e+15
2.453754e+15
2.787849e+15
3.111503e+15
3.732929e+15
4.040909e+15
4.197085e+15
4.275718e+15
4.324281e+15
4.352333e+15
4.367797e+15
4.372136e+15
4.365754e+15
4.347126e+15
4.313659e+15
4.254425e+15
4.153597e+15
3.93772e+15
3.177577e+15
2.808933e+15
2.529174e+15
1.986034e+15
1.190644e+15
80.15872
17.47049
3.083028
45.21774
70.90964
1.292032e+15
2.199753e+15
2.631025e+15
2.958013e+15
3.563839e+15
3.897139e+15
4.148373e+15
4.275781e+15
4.337575e+15
4.370453e+15
4.388168e+15
4.396975e+15
4.398881e+15
4.394268e+15
4.381993e+15
4.359061e+15
4.318161e+15
4.242889e+15
4.090811e+15
3.721097e+15
2.987818e+15
2.666487e+15
2.314918e+15
1.549072e+15
98.65689
49.32845
5.13838
12.33211
39.05169
72.96499
1.31061e+15
2.318436e+15
2.737717e+15
3.095579e+15
3.733286e+15
4.054404e+15
4.232663e+15
4.324374e+15
4.3705e+15
4.394365e+15
4.406875e+15
4.412865e+15
4.413758e+15
4.409878e+15
4.400579e+15
4.383278e+15
4.352506e+15
4.297032e+15
4.188575e+15
3.947785e+15
3.160148e+15
2.752247e+15
2.396184e+15
1.611019e+15
100.7122
41.10704
18.49817
12.33211
40.07936
71.93732
1.308428e+15
2.36012e+15
2.839244e+15
3.513064e+15
3.874332e+15
4.141044e+15
4.281599e+15
4.35242e+15
4.388244e+15
4.406927e+15
4.416639e+15
4.421072e+15
4.42146e+15
4.41815e+15
4.410363e+15
4.396101e+15
4.370855e+15
4.325906e+15
4.241202e+15
4.070598e+15
3.668075e+15
2.868875e+15
2.438199e+15
1.624985e+15
100.7122
41.10704
18.49817
11.30444
35.96866
71.93732
1.305907e+15
2.36821e+15
2.859955e+15
3.620735e+15
3.99949e+15
4.204761e+15
4.311889e+15
4.367878e+15
4.397063e+15
4.412951e+15
4.421135e+15
4.424842e+15
4.424937e+15
4.421951e+15
4.414765e+15
4.401814e+15
4.379261e+15
4.339779e+15
4.269766e+15
4.134796e+15
3.834698e+15
2.918724e+15
2.456668e+15
1.630523e+15
100.7122
40.07936
17.47049
10.27676
38.02401
71.93732
1.30478e+15
2.365556e+15
2.85621e+15
3.628051e+15
4.026896e+15
4.224222e+15
4.321584e+15
4.372189e+15
4.398953e+15
4.413841e+15
4.421563e+15
4.425056e+15
4.424992e+15
4.421945e+15
4.414702e+15
4.401724e+15
4.379149e+15
4.339814e+15
4.271093e+15
4.1396e+15
3.857073e+15
2.932047e+15
2.461904e+15
1.633057e+15
100.7122
40.07936
16.44282
12.33211
39.05169
72.96499
1.304153e+15
2.35175e+15
2.828614e+15
3.572789e+15
3.981907e+15
4.203907e+15
4.311555e+15
4.365765e+15
4.394309e+15
4.409938e+15
4.418234e+15
4.422056e+15
4.421985e+15
4.418312e+15
4.410321e+15
4.395999e+15
4.370794e+15
4.326526e+15
4.246224e+15
4.098688e+15
3.764939e+15
2.917366e+15
2.455255e+15
1.633956e+15
99.68457
41.10704
17.47049
12.33211
38.02401
71.93732
1.301479e+15
2.310688e+15
2.721831e+15
3.10974e+15
3.801097e+15
4.127885e+15
4.277754e+15
4.347095e+15
4.381998e+15
4.400624e+15
4.410446e+15
4.414849e+15
4.414745e+15
4.410357e+15
4.400859e+15
4.383585e+15
4.353245e+15
4.298842e+15
4.191245e+15
3.961287e+15
3.195115e+15
2.790028e+15
2.410753e+15
1.630315e+15
100.7122
41.10704
18.49817
5.13838
46.24542
71.93732
1.281676e+15
2.222108e+15
2.641184e+15
2.962044e+15
3.642977e+15
4.021154e+15
4.221328e+15
4.313681e+15
4.359073e+15
4.383335e+15
4.396169e+15
4.401787e+15
4.401684e+15
4.396032e+15
4.383623e+15
4.361425e+15
4.323014e+15
4.252644e+15
4.11851e+15
3.808534e+15
3.03559e+15
2.684194e+15
2.308173e+15
1.607412e+15
98.65689
47.27309
11.30444
12.33211
58.57753
1.114665e+15
1.893839e+15
2.513693e+15
2.795864e+15
3.13732e+15
3.806358e+15
4.118063e+15
4.25448e+15
4.318217e+15
4.352592e+15
4.370867e+15
4.378885e+15
4.37882e+15
4.370752e+15
4.353271e+15
4.32303e+15
4.271771e+15
4.175564e+15
3.959456e+15
3.21087e+15
2.840352e+15
2.527156e+15
1.944897e+15
1.422828e+15
88.38013
16.44282
12.33211
32.88563
140.7916
1.48097e+15
2.306309e+15
2.65239e+15
2.94679e+15
3.614339e+15
3.975993e+15
4.15368e+15
4.243008e+15
4.297176e+15
4.325958e+15
4.339331e+15
4.339425e+15
4.326467e+15
4.298843e+15
4.252681e+15
4.175618e+15
4.062126e+15
3.7804e+15
3.013056e+15
2.678858e+15
2.34574e+15
1.71502e+15
184.9817
35.96866
17.47049
5.13838
45.21774
63.71591
1.159007e+15
1.88296e+15
2.428862e+15
2.717238e+15
3.043991e+15
3.668987e+15
3.937834e+15
4.090974e+15
4.188757e+15
4.241251e+15
4.269275e+15
4.270707e+15
4.246197e+15
4.19124e+15
4.118537e+15
3.959572e+15
3.780482e+15
3.122563e+15
2.755143e+15
2.431231e+15
1.923066e+15
1.445852e+15
91.46316
48.30077
10.27676
6.166056
40.07936
118.1827
1.278801e+15
1.938719e+15
2.451992e+15
2.720228e+15
2.962997e+15
3.177607e+15
3.721158e+15
3.947925e+15
4.070535e+15
4.134295e+15
4.139298e+15
4.098706e+15
3.96129e+15
3.808453e+15
3.210809e+15
3.013002e+15
2.75518e+15
2.451557e+15
1.946691e+15
1.50071e+15
161.3451
41.10704
9.249084
12.33211
32.88563
125.3765
1.287281e+15
1.941587e+15
2.438393e+15
2.666813e+15
2.808947e+15
2.987792e+15
3.160099e+15
3.667934e+15
3.834425e+15
3.856999e+15
3.76499e+15
3.195285e+15
3.03549e+15
2.840329e+15
2.679046e+15
2.431584e+15
1.946651e+15
1.503555e+15
166.4835
33.91331
16.44282
8.221408
45.21774
34.94098
128.4595
1.286662e+15
1.914792e+15
2.35795e+15
2.529182e+15
2.666444e+15
2.75213e+15
2.868703e+15
2.918261e+15
2.931488e+15
2.917392e+15
2.790257e+15
2.684315e+15
2.527329e+15
2.346077e+15
1.923956e+15
1.50111e+15
168.5389
35.96866
47.27309
12.33211
8.221408
46.24542
33.91331
120.2381
1.209808e+15
1.701075e+15
1.985842e+15
2.314384e+15
2.395436e+15
2.437601e+15
2.455901e+15
2.460844e+15
2.455198e+15
2.411172e+15
2.308597e+15
1.944696e+15
1.7143e+15
1.445476e+15
160.3174
34.94098
47.27309
11.30444
9.249084
17.47049
42.13471
82.21408
151.0684
1.189883e+15
1.547682e+15
1.609478e+15
1.623951e+15
1.631007e+15
1.63259e+15
1.633967e+15
1.631023e+15
1.608678e+15
1.424559e+15
184.9817
92.49084
41.10704
17.47049
13.35979
6.166056
46.24542
34.94098
79.13105
98.65689
100.7122
100.7122
100.7122
101.7399
99.68457
100.7122
98.65689
89.40781
35.96866
46.24542
9.249084
6.166056
16.44282
16.44282
48.30077
41.10704
40.07936
39.05169
40.07936
40.07936
40.07936
48.30077
15.41514
18.49817
10.27676
6.166056
17.47049
16.44282
17.47049
17.47049
17.47049
18.49817
11.30444
4.110704
11.30444
13.35979
13.35979
11.30444
5.13838
3.083028
11.30444
10.27676
25.6919
79.13105
77.0757
79.13105
78.10337
77.0757
79.13105
27.74725
10.27676
11.30444
4.110704
5.13838
12.33211
62.68823
83.24175
126.4041
1.061898e+15
1.372291e+15
1.386861e+15
1.382183e+15
1.380015e+15
1.379407e+15
1.370295e+15
1.183139e+15
149.013
83.24175
67.82661
9.249084
5.13838
3.083028
41.10704
100.7122
1.078302e+15
1.416116e+15
1.588764e+15
1.955924e+15
2.309792e+15
2.414334e+15
2.438171e+15
2.437594e+15
2.416383e+15
2.339275e+15
2.011117e+15
1.593758e+15
1.402112e+15
1.191866e+15
124.3488
41.10704
6.166056
1.027676
68.85429
129.4872
1.213333e+15
1.952822e+15
2.389882e+15
2.626505e+15
2.740633e+15
2.873269e+15
2.932007e+15
2.952467e+15
2.953597e+15
2.938977e+15
2.898406e+15
2.807379e+15
2.645645e+15
2.394534e+15
1.984797e+15
1.343177e+15
157.2344
70.90964
3.083028
2.055352
102.7676
1.123758e+15
1.586139e+15
2.053627e+15
2.615294e+15
2.961704e+15
3.483465e+15
3.639508e+15
3.699064e+15
3.723279e+15
3.731557e+15
3.731683e+15
3.725298e+15
3.708627e+15
3.668314e+15
3.560361e+15
3.005548e+15
2.707724e+15
2.119688e+15
1.587129e+15
1.250007e+15
123.3211
2.055352
2.055352
101.7399
1.236709e+15
1.978074e+15
2.465072e+15
2.834057e+15
3.470128e+15
3.72901e+15
3.921944e+15
4.074602e+15
4.13909e+15
4.163816e+15
4.171004e+15
4.171273e+15
4.166613e+15
4.15198e+15
4.117742e+15
4.038133e+15
3.815807e+15
3.589855e+15
2.926724e+15
2.493985e+15
1.999392e+15
1.380156e+15
127.4318
2.055352
3.083028
66.79894
1.124526e+15
1.978087e+15
2.528345e+15
2.968538e+15
3.566005e+15
3.888923e+15
4.100189e+15
4.21662e+15
4.302194e+15
4.348747e+15
4.378032e+15
4.387011e+15
4.388342e+15
4.38478e+15
4.363543e+15
4.336335e+15
4.287162e+15
4.184594e+15
4.038141e+15
3.721043e+15
3.026457e+15
2.59472e+15
2.028136e+15
1.304081e+15
87.35246
5.13838
4.110704
39.05169
130.5148
1.586091e+15
2.46476e+15
2.968639e+15
3.596076e+15
3.920293e+15
4.151899e+15
4.2949e+15
4.375994e+15
4.437616e+15
4.480016e+15
4.565556e+15
4.600271e+15
4.609205e+15
4.604049e+15
4.517489e+15
4.470644e+15
4.420387e+15
4.357634e+15
4.264095e+15
4.091493e+15
3.749411e+15
3.035609e+15
2.544364e+15
1.805071e+15
164.4282
43.16239
7.193732
10.27676
99.68457
1.211513e+15
2.053811e+15
2.834084e+15
3.566232e+15
3.920358e+15
4.160668e+15
4.315854e+15
4.419836e+15
4.487132e+15
4.590337e+15
4.645054e+15
4.693902e+15
4.731662e+15
4.746119e+15
4.741939e+15
4.694141e+15
4.650557e+15
4.541988e+15
4.472408e+15
4.393459e+15
4.284632e+15
4.095983e+15
3.729704e+15
2.941375e+15
2.183674e+15
1.367899e+15
127.4318
13.35979
4.110704
63.71591
1.076532e+15
1.951749e+15
2.615593e+15
3.470069e+15
3.889153e+15
4.152166e+15
4.316012e+15
4.435816e+15
4.571545e+15
4.643636e+15
4.70433e+15
4.754188e+15
4.788207e+15
4.813346e+15
4.824369e+15
4.822079e+15
4.79904e+15
4.76825e+15
4.703846e+15
4.645161e+15
4.514891e+15
4.405335e+15
4.280468e+15
4.071643e+15
3.65827e+15
2.748692e+15
2.029896e+15
1.262134e+15
88.38013
6.166056
12.33211
83.24175
1.414583e+15
2.389458e+15
2.961676e+15
3.728979e+15
4.100274e+15
4.295133e+15
4.419967e+15
4.571534e+15
4.677472e+15
4.746658e+15
4.791161e+15
4.825079e+15
4.847222e+15
4.861765e+15
4.868122e+15
4.866518e+15
4.854917e+15
4.835804e+15
4.80086e+15
4.759187e+15
4.674878e+15
4.509565e+15
4.38913e+15
4.241141e+15
3.962526e+15
3.069858e+15
2.483438e+15
1.663815e+15
114.072
16.44282
10.27676
125.3765
1.587882e+15
2.626715e+15
3.482846e+15
3.921942e+15
4.216723e+15
4.376172e+15
4.487191e+15
4.64364e+15
4.74666e+15
4.808406e+15
4.843976e+15
4.866929e+15
4.881133e+15
4.88954e+15
4.892853e+15
4.891316e+15
4.884319e+15
4.871849e+15
4.850854e+15
4.821123e+15
4.764634e+15
4.587359e+15
4.457833e+15
4.332e+15
4.131188e+15
3.66725e+15
2.722996e+15
1.879791e+15
164.4282
15.41514
25.6919
1.062783e+15
1.956773e+15
2.741525e+15
3.639158e+15
4.074487e+15
4.30224e+15
4.437711e+15
4.590399e+15
4.70439e+15
4.791202e+15
4.843999e+15
4.873349e+15
4.890245e+15
4.89995e+15
4.905162e+15
4.906883e+15
4.905398e+15
4.900404e+15
4.891308e+15
4.876385e+15
4.853337e+15
4.812756e+15
4.708201e+15
4.528347e+15
4.394886e+15
4.227057e+15
3.881274e+15
2.866309e+15
2.126683e+15
1.269437e+15
42.13471
3.083028
78.10337
1.373186e+15
2.311332e+15
2.874316e+15
3.699e+15
4.138911e+15
4.348698e+15
4.479981e+15
4.64508e+15
4.754247e+15
4.825131e+15
4.866965e+15
4.890263e+15
4.903225e+15
4.910392e+15
4.914024e+15
4.914981e+15
4.913528e+15
4.909496e+15
4.902229e+15
4.890383e+15
4.871825e+15
4.840756e+15
4.774418e+15
4.583686e+15
4.43482e+15
4.272402e+15
3.957796e+15
2.975687e+15
2.44665e+15
1.642864e+15
108.9337
6.166056
11.30444
78.10337
1.387399e+15
2.415558e+15
2.932718e+15
3.723305e+15
4.163662e+15
4.377951e+15
4.565496e+15
4.69391e+15
4.788257e+15
4.847269e+15
4.88117e+15
4.899979e+15
4.91041e+15
4.916099e+15
4.918862e+15
4.919434e+15
4.918055e+15
4.914529e+15
4.908279e+15
4.898097e+15
4.882062e+15
4.856092e+15
4.808469e+15
4.690447e+15
4.482886e+15
4.30004e+15
3.98659e+15
3.021913e+15
2.515655e+15
1.691288e+15
107.906
16.44282
13.35979
79.13105
1.382138e+15
2.438551e+15
2.952772e+15
3.7316e+15
4.170944e+15
4.386953e+15
4.600235e+15
4.731667e+15
4.813379e+15
4.8618e+15
4.889573e+15
4.905196e+15
4.914053e+15
4.918881e+15
4.921191e+15
4.921557e+15
4.920227e+15
4.91693e+15
4.911173e+15
4.90187e+15
4.887294e+15
4.864601e+15
4.826059e+15
4.742245e+15
4.509771e+15
4.314096e+15
3.997452e+15
3.039244e+15
2.537027e+15
1.708663e+15
109.9613
17.47049
13.35979
78.10337
1.380291e+15
2.43779e+15
2.953809e+15
3.73178e+15
4.171332e+15
4.388352e+15
4.609169e+15
4.746088e+15
4.82437e+15
4.868138e+15
4.892876e+15
4.906911e+15
4.915012e+15
4.919466e+15
4.921587e+15
4.921848e+15
4.92049e+15
4.917215e+15
4.911557e+15
4.902486e+15
4.88842e+15
4.867017e+15
4.831415e+15
4.757221e+15
4.519593e+15
4.318269e+15
3.998559e+15
3.039204e+15
2.537539e+15
1.713956e+15
109.9613
18.49817
11.30444
78.10337
1.380021e+15
2.416545e+15
2.939194e+15
3.725413e+15
4.166644e+15
4.384753e+15
4.604067e+15
4.74192e+15
4.822069e+15
4.866518e+15
4.891323e+15
4.905416e+15
4.913552e+15
4.918084e+15
4.920259e+15
4.920504e+15
4.91899e+15
4.915531e+15
4.909606e+15
4.90017e+15
4.885722e+15
4.86362e+15
4.827586e+15
4.744405e+15
4.515987e+15
4.313391e+15
3.989963e+15
3.020189e+15
2.514212e+15
1.714207e+15
108.9337
18.49817
4.110704
82.21408
1.370128e+15
2.33955e+15
2.89864e+15
3.708694e+15
4.151844e+15
4.363434e+15
4.517507e+15
4.694164e+15
4.799043e+15
4.854909e+15
4.884314e+15
4.90041e+15
4.909512e+15
4.914555e+15
4.916954e+15
4.917228e+15
4.91554e+15
4.911706e+15
4.905125e+15
4.89477e+15
4.878951e+15
4.852894e+15
4.801867e+15
4.633962e+15
4.469632e+15
4.287564e+15
3.963472e+15
2.968069e+15
2.42619e+15
1.702609e+15
107.906
9.249084
27.74725
1.181056e+15
2.011322e+15
2.807374e+15
3.668315e+15
4.117474e+15
4.336244e+15
4.470636e+15
4.650598e+15
4.768288e+15
4.835827e+15
4.871858e+15
4.891315e+15
4.902246e+15
4.908295e+15
4.911162e+15
4.911541e+15
4.909609e+15
4.905132e+15
4.897507e+15
4.885687e+15
4.867564e+15
4.837664e+15
4.767366e+15
4.576334e+15
4.423153e+15
4.241165e+15
3.903626e+15
2.859621e+15
2.066689e+15
1.495531e+15
47.27309
9.249084
147.9853
1.593735e+15
2.645546e+15
3.560517e+15
4.037847e+15
4.287122e+15
4.420347e+15
4.541928e+15
4.703858e+15
4.800885e+15
4.850872e+15
4.876403e+15
4.890406e+15
4.898093e+15
4.901764e+15
4.902382e+15
4.900139e+15
4.89477e+15
4.88569e+15
4.871468e+15
4.848498e+15
4.802251e+15
4.64343e+15
4.499553e+15
4.356858e+15
4.159299e+15
3.755223e+15
2.750321e+15
1.849941e+15
197.3138
16.44282
11.30444
84.26943
1.40174e+15
2.39343e+15
3.005181e+15
3.815424e+15
4.184623e+15
4.35762e+15
4.472262e+15
4.645098e+15
4.75918e+15
4.821142e+15
4.853371e+15
4.871862e+15
4.882063e+15
4.887152e+15
4.888281e+15
4.885675e+15
4.878941e+15
4.867571e+15
4.84851e+15
4.820838e+15
4.75537e+15
4.567554e+15
4.423708e+15
4.260539e+15
3.972251e+15
3.086186e+15
2.506744e+15
1.729673e+15
114.072
18.49817
5.13838
66.79894
1.193391e+15
1.983391e+15
2.706703e+15
3.589015e+15
4.037984e+15
4.26398e+15
4.393171e+15
4.514654e+15
4.674831e+15
4.764652e+15
4.812799e+15
4.840797e+15
4.856087e+15
4.864437e+15
4.866867e+15
4.863579e+15
4.852884e+15
4.837666e+15
4.802273e+15
4.755391e+15
4.607617e+15
4.464135e+15
4.319825e+15
4.124703e+15
3.741005e+15
2.75702e+15
2.057815e+15
1.518331e+15
96.60154
9.249084
10.27676
125.3765
1.343467e+15
2.118434e+15
2.925965e+15
3.72072e+15
4.091274e+15
4.284285e+15
4.405104e+15
4.509482e+15
4.587349e+15
4.708211e+15
4.774427e+15
4.808425e+15
4.825881e+15
4.831284e+15
4.827568e+15
4.801869e+15
4.767345e+15
4.643418e+15
4.567568e+15
4.464177e+15
4.335161e+15
4.158623e+15
3.824231e+15
2.981159e+15
2.157867e+15
1.586135e+15
170.5942
12.33211
7.193732
41.10704
157.2344
1.588218e+15
2.49401e+15
3.026185e+15
3.749355e+15
4.095839e+15
4.280453e+15
4.389157e+15
4.457839e+15
4.528352e+15
4.583659e+15
4.69036e+15
4.742071e+15
4.75712e+15
4.744419e+15
4.634014e+15
4.576329e+15
4.499595e+15
4.423831e+15
4.320022e+15
4.15879e+15
3.850177e+15
3.087753e+15
2.571955e+15
1.838359e+15
201.4245
42.13471
10.27676
5.13838
70.90964
1.251585e+15
1.999244e+15
2.594046e+15
3.035462e+15
3.729828e+15
4.071837e+15
4.241219e+15
4.331997e+15
4.39484e+15
4.434712e+15
4.482733e+15
4.509363e+15
4.519229e+15
4.515933e+15
4.469744e+15
4.423252e+15
4.356939e+15
4.26059e+15
4.124782e+15
3.824266e+15
3.087986e+15
2.627679e+15
2.061855e+15
1.552835e+15
96.60154
8.221408
2.055352
126.4041
1.382757e+15
2.027505e+15
2.544488e+15
2.941257e+15
3.658316e+15
3.96247e+15
4.131062e+15
4.226811e+15
4.272115e+15
4.299829e+15
4.313634e+15
4.317779e+15
4.31323e+15
4.287673e+15
4.241375e+15
4.159473e+15
3.972145e+15
3.740689e+15
2.980622e+15
2.57208e+15
2.061314e+15
1.608893e+15
162.3728
5.13838
4.110704
128.4595
1.305621e+15
1.805388e+15
2.183321e+15
2.748639e+15
3.069864e+15
3.667158e+15
3.881074e+15
3.957609e+15
3.986573e+15
3.997348e+15
3.998233e+15
3.989795e+15
3.963473e+15
3.903788e+15
3.755536e+15
3.086186e+15
2.756599e+15
2.157156e+15
1.839084e+15
1.554582e+15
163.4005
7.193732
3.083028
88.38013
165.4558
1.368294e+15
2.029831e+15
2.483599e+15
2.72321e+15
2.866986e+15
2.976555e+15
3.022731e+15
3.039175e+15
3.038434e+15
3.019949e+15
2.967766e+15
2.859147e+15
2.749957e+15
2.506596e+15
2.05765e+15
1.586843e+15
201.4245
97.62921
6.166056
5.13838
43.16239
128.4595
1.262077e+15
1.664175e+15
1.879333e+15
2.127267e+15
2.447473e+15
2.516536e+15
2.537033e+15
2.537016e+15
2.514446e+15
2.426549e+15
2.066766e+15
1.850424e+15
1.731573e+15
1.520559e+15
170.5942
42.13471
8.221408
7.193732
13.35979
87.35246
114.072
164.4282
1.270149e+15
1.643555e+15
1.692106e+15
1.709059e+15
1.713785e+15
1.714602e+15
1.703528e+15
1.496909e+15
197.3138
114.072
96.60154
14.38746
11.30444
7.193732
17.47049
15.41514
43.16239
109.9613
109.9613
110.989
110.989
109.9613
106.8783
47.27309
17.47049
17.47049
9.249084
6.166056
16.44282
18.49817
18.49817
17.47049
10.27676
1.027676
6.166056
23.63655
29.8026
30.83028
30.83028
30.83028
24.66422
7.193732
2.055352
-1.027676
25.6919
31.85795
86.32478
133.5979
1.123519e+15
1.452099e+15
1.47897e+15
1.472311e+15
1.43965e+15
1.240592e+15
157.2344
87.35246
30.83028
26.71957
1.027676
15.41514
128.4595
1.153896e+15
1.468586e+15
1.545003e+15
1.734157e+15
2.124926e+15
2.523488e+15
2.62903e+15
2.632146e+15
2.550531e+15
2.185213e+15
1.735618e+15
1.524056e+15
1.443297e+15
1.259175e+15
149.013
17.47049
3.083028
42.13471
1.23369e+15
1.723763e+15
2.185716e+15
2.58599e+15
2.807363e+15
3.31224e+15
3.498704e+15
3.628709e+15
3.675276e+15
3.680531e+15
3.654638e+15
3.58017e+15
3.402028e+15
2.821819e+15
2.592743e+15
2.201203e+15
1.694508e+15
1.351484e+15
53.43915
4.110704
2.055352
108.9337
1.321791e+15
2.141138e+15
2.723729e+15
3.369474e+15
3.63661e+15
3.765711e+15
3.928415e+15
4.079319e+15
4.156182e+15
4.185725e+15
4.190525e+15
4.177887e+15
4.140432e+15
4.051217e+15
3.834124e+15
3.676457e+15
3.484323e+15
2.760548e+15
2.16179e+15
1.45078e+15
132.5702
3.083028
3.083028
109.9613
1.351066e+15
2.210502e+15
2.827071e+15
3.545459e+15
3.89911e+15
4.113578e+15
4.224093e+15
4.296865e+15
4.366687e+15
4.408156e+15
4.426455e+15
4.430074e+15
4.4229e+15
4.403274e+15
4.363033e+15
4.280687e+15
4.179726e+15
4.045209e+15
3.704975e+15
2.938091e+15
2.273114e+15
1.480001e+15
134.6255
5.13838
2.055352
108.9337
1.35953e+15
2.270109e+15
3.287762e+15
3.703471e+15
3.980598e+15
4.219126e+15
4.370299e+15
4.515686e+15
4.584256e+15
4.621896e+15
4.641998e+15
4.650983e+15
4.65296e+15
4.649798e+15
4.641126e+15
4.623589e+15
4.58489e+15
4.453704e+15
4.343352e+15
4.15806e+15
3.832475e+15
3.453326e+15
2.34819e+15
1.49259e+15
134.6255
3.083028
2.055352
108.9337
1.35103e+15
2.270585e+15
3.321807e+15
3.843324e+15
4.130727e+15
4.304616e+15
4.499247e+15
4.610717e+15
4.692901e+15
4.748835e+15
4.778238e+15
4.791996e+15
4.797482e+15
4.798809e+15
4.797449e+15
4.792612e+15
4.781854e+15
4.75833e+15
4.688641e+15
4.61315e+15
4.439025e+15
4.25123e+15
4.024693e+15
3.538794e+15
2.359524e+15
1.488321e+15
133.5979
3.083028
42.13471
1.32184e+15
2.21014e+15
3.288301e+15
3.843388e+15
4.168248e+15
4.367294e+15
4.545595e+15
4.671819e+15
4.754731e+15
4.806785e+15
4.842404e+15
4.862548e+15
4.873629e+15
4.878072e+15
4.879457e+15
4.879182e+15
4.874795e+15
4.867082e+15
4.852049e+15
4.817089e+15
4.770045e+15
4.671497e+15
4.485678e+15
4.312427e+15
4.054546e+15
3.525864e+15
2.293984e+15
1.475983e+15
58.57753
14.38746
1.234592e+15
2.140806e+15
2.826881e+15
3.703274e+15
4.130615e+15
4.36733e+15
4.563606e+15
4.689917e+15
4.778733e+15
4.837108e+15
4.872344e+15
4.896256e+15
4.911448e+15
4.930959e+15
4.941335e+15
4.945288e+15
4.945609e+15
4.929974e+15
4.917598e+15