/*--------------------------------*- C++ -*----------------------------------*\
  =========                 |
  \\      /  F ield         | OpenFOAM: The Open Source CFD Toolbox
   \\    /   O peration     | Website:  https://openfoam.org
    \\  /    A nd           | Version:  6
     \\/     M anipulation  |
\*---------------------------------------------------------------------------*/
FoamFile
{
    version     2.0;
    format      ascii;
    class       volScalarField;
    location    "50/region0/neutronTransport";
    object      discFlux0;
}
// * * * * * * * * * * * * * * * * * * * * * * * * * * * * * * * * * * * * * //

dimensions      [0 -2 -1 0 0 0 0];

internalField   nonuniform List<scalar> 
203709
(
4.248823e+16
4.605905e+16
4.605128e+16
4.248711e+16
4.429389e+16
4.882114e+16
5.843539e+16
5.80038e+16
5.799307e+16
5.841764e+16
4.879845e+16
4.426791e+16
4.332511e+16
4.897377e+16
5.922401e+16
5.928769e+16
6.087119e+16
6.127659e+16
6.126879e+16
6.085085e+16
5.925579e+16
5.918038e+16
4.892507e+16
4.327199e+16
4.333256e+16
5.760697e+16
5.901909e+16
6.125239e+16
6.243404e+16
6.345132e+16
6.390181e+16
6.38955e+16
6.342776e+16
6.239738e+16
6.120356e+16
5.895747e+16
5.753463e+16
4.326718e+16
4.898245e+16
5.902302e+16
6.16e+16
6.344361e+16
6.483369e+16
6.583344e+16
6.632818e+16
6.632234e+16
6.580982e+16
6.479603e+16
6.339361e+16
6.153676e+16
5.894809e+16
4.890819e+16
4.430725e+16
5.923548e+16
6.125779e+16
6.344088e+16
6.533074e+16
6.682403e+16
6.786062e+16
6.837348e+16
6.836782e+16
6.784368e+16
6.679813e+16
6.529075e+16
6.338625e+16
6.11895e+16
5.915521e+16
4.423418e+16
4.883237e+16
5.929784e+16
6.243537e+16
6.482195e+16
6.68127e+16
6.837422e+16
6.941817e+16
6.991442e+16
6.991089e+16
6.940981e+16
6.835822e+16
6.679105e+16
6.478633e+16
6.238038e+16
5.922555e+16
4.876055e+16
4.251283e+16
5.845692e+16
6.089163e+16
6.346295e+16
6.583508e+16
6.785856e+16
6.941926e+16
7.040162e+16
7.088877e+16
7.088719e+16
7.039781e+16
6.940835e+16
6.784155e+16
6.580374e+16
6.341199e+16
6.082385e+16
5.838e+16
4.243511e+16
4.607542e+16
5.80261e+16
6.130199e+16
6.392851e+16
6.634837e+16
6.838934e+16
6.992902e+16
7.089956e+16
7.142302e+16
7.140861e+16
7.089189e+16
6.99183e+16
6.837183e+16
6.63164e+16
6.387945e+16
6.124147e+16
5.795333e+16
4.600367e+16
4.608139e+16
5.803891e+16
6.131113e+16
6.393527e+16
6.635867e+16
6.840258e+16
6.994037e+16
7.091101e+16
7.14438e+16
7.142776e+16
7.090226e+16
6.992746e+16
6.838054e+16
6.632781e+16
6.389109e+16
6.125299e+16
5.796979e+16
4.601869e+16
4.250837e+16
5.847419e+16
6.090944e+16
6.348715e+16
6.586895e+16
6.789826e+16
6.945685e+16
7.043727e+16
7.092378e+16
7.091621e+16
7.042617e+16
6.944045e+16
6.787356e+16
6.58364e+16
6.34442e+16
6.085533e+16
5.840584e+16
4.245932e+16
4.88436e+16
5.932158e+16
6.247203e+16
6.487352e+16
6.687094e+16
6.84272e+16
6.946693e+16
6.996399e+16
6.995509e+16
6.945586e+16
6.840707e+16
6.684374e+16
6.483818e+16
6.242915e+16
5.927454e+16
4.880065e+16
4.432068e+16
5.926252e+16
6.129201e+16
6.348588e+16
6.538193e+16
6.687959e+16
6.791403e+16
6.84335e+16
6.842632e+16
6.790466e+16
6.686057e+16
6.535753e+16
6.345576e+16
6.125752e+16
5.922283e+16
4.428385e+16
4.900621e+16
5.905699e+16
6.164173e+16
6.349212e+16
6.488658e+16
6.589224e+16
6.641706e+16
6.641191e+16
6.588131e+16
6.487058e+16
6.34716e+16
6.161826e+16
5.90337e+16
4.898048e+16
4.33579e+16
5.764968e+16
5.906155e+16
6.130144e+16
6.24849e+16
6.350855e+16
6.398758e+16
6.398578e+16
6.350353e+16
6.24772e+16
6.128893e+16
5.904509e+16
5.763094e+16
4.333298e+16
4.335661e+16
4.90088e+16
5.927214e+16
5.933261e+16
6.092788e+16
6.135336e+16
6.135778e+16
6.092993e+16
5.933824e+16
5.927203e+16
4.900026e+16
4.334517e+16
4.432484e+16
4.885443e+16
5.849118e+16
5.808376e+16
5.809322e+16
5.850034e+16
4.886357e+16
4.43312e+16
4.25275e+16
4.610322e+16
4.611004e+16
4.253754e+16
3.579724e+16
4.005646e+16
4.160775e+16
4.267477e+16
4.333685e+16
4.333214e+16
4.266147e+16
4.158632e+16
4.002885e+16
3.576929e+16
3.643944e+16
4.175053e+16
5.136887e+16
5.312118e+16
5.49533e+16
5.685722e+16
5.835133e+16
5.834584e+16
5.684338e+16
5.492275e+16
5.30712e+16
5.130033e+16
4.168196e+16
3.637218e+16
3.729995e+16
5.058418e+16
5.348821e+16
5.737303e+16
6.093141e+16
6.384514e+16
6.719024e+16
7.006319e+16
7.005628e+16
6.717146e+16
6.380142e+16
6.086747e+16
5.730146e+16
5.34065e+16
5.049924e+16
3.722979e+16
3.766263e+16
5.152738e+16
5.604681e+16
6.074842e+16
6.553065e+16
7.173117e+16
7.918774e+16
8.496329e+16
8.747819e+16
8.746831e+16
8.492877e+16
7.913677e+16
7.167219e+16
6.546496e+16
6.067072e+16
5.595704e+16
5.141968e+16
3.758297e+16
3.729936e+16
5.152174e+16
5.658582e+16
6.206195e+16
7.044166e+16
8.026407e+16
8.908711e+16
9.658597e+16
1.021349e+17
1.113556e+17
1.113418e+17
1.021019e+17
9.653267e+16
8.9014e+16
8.01844e+16
7.035028e+16
6.196763e+16
5.647495e+16
5.140201e+16
3.72095e+16
3.644534e+16
5.059869e+16
5.605146e+16
6.206655e+16
7.321806e+16
8.648514e+16
9.655508e+16
1.048024e+17
1.181835e+17
1.242119e+17
1.277605e+17
1.277447e+17
1.241673e+17
1.181135e+17
1.047165e+17
9.645259e+16
8.636418e+16
7.309564e+16
6.194275e+16
5.592297e+16
5.046748e+16
3.63466e+16
4.174541e+16
5.348952e+16
6.075462e+16
7.044883e+16
8.648948e+16
1.003929e+17
1.165438e+17
1.255663e+17
1.326182e+17
1.369861e+17
1.392041e+17
1.391865e+17
1.369359e+17
1.32541e+17
1.254631e+17
1.164163e+17
1.00253e+17
8.634439e+16
7.031045e+16
6.062272e+16
5.336099e+16
4.163435e+16
3.581001e+16
5.137229e+16
5.737306e+16
6.554146e+16
8.027518e+16
9.657663e+16
1.165544e+17
1.28781e+17
1.367358e+17
1.422561e+17
1.457692e+17
1.474981e+17
1.474822e+17
1.457212e+17
1.421791e+17
1.366308e+17
1.286508e+17
1.164065e+17
9.642919e+16
8.013791e+16
6.541239e+16
5.724053e+16
5.122855e+16
3.569988e+16
4.006916e+16
5.314119e+16
6.093888e+16
7.175325e+16
8.912199e+16
1.04837e+17
1.255868e+17
1.367415e+17
1.439917e+17
1.489106e+17
1.520312e+17
1.535499e+17
1.535368e+17
1.519922e+17
1.48847e+17
1.438997e+17
1.366193e+17
1.2544e+17
1.046844e+17
8.897133e+16
7.160671e+16
6.080409e+16
5.29976e+16
3.995047e+16
4.162252e+16
5.498278e+16
6.386317e+16
7.920824e+16
9.663352e+16
1.182286e+17
1.326465e+17
1.422663e+17
1.489142e+17
1.5351e+17
1.564375e+17
1.578668e+17
1.57856e+17
1.564066e+17
1.534586e+17
1.488413e+17
1.421636e+17
1.325123e+17
1.180702e+17
9.64651e+16
7.906982e+16
6.373583e+16
5.48415e+16
4.150592e+16
4.269114e+16
5.689327e+16
6.723191e+16
8.501285e+16
1.02198e+17
1.242773e+17
1.37035e+17
1.458016e+17
1.520561e+17
1.564552e+17
1.592608e+17
1.606347e+17
1.606241e+17
1.592332e+17
1.564101e+17
1.519933e+17
1.457128e+17
1.369149e+17
1.241305e+17
1.020426e+17
8.487248e+16
6.709577e+16
5.675948e+16
4.258327e+16
4.335286e+16
5.838291e+16
7.010423e+16
8.753954e+16
1.114378e+17
1.278477e+17
1.392833e+17
1.475672e+17
1.536126e+17
1.579185e+17
1.606665e+17
1.62021e+17
1.620039e+17
1.606347e+17
1.578717e+17
1.535493e+17
1.474824e+17
1.391731e+17
1.277156e+17
1.112943e+17
8.740869e+16
6.998301e+16
5.826583e+16
4.325408e+16
4.33476e+16
5.837355e+16
7.00946e+16
8.753524e+16
1.114436e+17
1.2786e+17
1.393008e+17
1.475903e+17
1.536389e+17
1.579444e+17
1.606931e+17
1.62052e+17
1.62034e+17
1.606609e+17
1.578974e+17
1.535754e+17
1.475095e+17
1.392007e+17
1.277436e+17
1.113195e+17
8.741964e+16
6.998726e+16
5.826884e+16
4.325577e+16
4.267866e+16
5.688042e+16
6.723321e+16
8.502443e+16
1.022083e+17
1.243081e+17
1.370842e+17
1.458676e+17
1.521326e+17
1.565319e+17
1.593369e+17
1.607127e+17
1.606993e+17
1.593076e+17
1.564874e+17
1.520732e+17
1.457944e+17
1.369971e+17
1.242113e+17
1.021142e+17
8.492543e+16
6.713985e+16
5.678916e+16
4.259484e+16
4.16145e+16
5.497915e+16
6.388085e+16
7.923378e+16
9.66564e+16
1.182747e+17
1.327167e+17
1.423588e+17
1.490222e+17
1.536215e+17
1.565507e+17
1.579848e+17
1.579737e+17
1.565272e+17
1.535838e+17
1.489717e+17
1.422974e+17
1.326455e+17
1.181966e+17
9.658151e+16
7.91442e+16
6.379287e+16
5.489928e+16
4.153847e+16
4.006779e+16
5.314578e+16
6.096277e+16
7.177398e+16
8.916417e+16
1.048929e+17
1.256654e+17
1.368395e+17
1.441068e+17
1.490393e+17
1.521691e+17
1.536979e+17
1.536903e+17
1.52154e+17
1.490143e+17
1.440723e+17
1.367962e+17
1.256129e+17
1.048303e+17
8.909449e+16
7.170934e+16
6.088431e+16
5.307314e+16
3.999801e+16
3.581104e+16
5.13838e+16
5.739937e+16
6.556635e+16
8.032579e+16
9.663838e+16
1.166378e+17
1.288817e+17
1.368541e+17
1.423915e+17
1.459221e+17
1.476639e+17
1.476604e+17
1.459151e+17
1.423805e+17
1.368375e+17
1.288583e+17
1.166044e+17
9.659086e+16
8.02688e+16
6.551595e+16
5.733069e+16
5.131594e+16
3.575286e+16
4.176811e+16
5.351407e+16
6.077944e+16
7.049114e+16
8.655369e+16
1.004743e+17
1.166479e+17
1.256912e+17
1.327621e+17
1.371512e+17
1.393804e+17
1.393814e+17
1.371537e+17
1.32765e+17
1.256913e+17
1.166444e+17
1.004627e+17
8.652514e+16
7.045413e+16
6.074385e+16
5.345632e+16
4.170246e+16
3.646442e+16
5.061538e+16
5.607589e+16
6.21027e+16
7.327035e+16
8.655792e+16
9.665427e+16
1.049255e+17
1.183306e+17
1.24386e+17
1.279507e+17
1.279574e+17
1.243972e+17
1.183445e+17
1.049366e+17
9.666681e+16
8.656464e+16
7.326071e+16
6.208271e+16
5.605213e+16
5.057183e+16
3.640506e+16
3.732277e+16
5.156209e+16
5.662596e+16
6.210161e+16
7.049174e+16
8.033899e+16
8.919904e+16
9.671706e+16
1.022865e+17
1.115322e+17
1.115431e+17
1.023056e+17
9.673489e+16
8.92131e+16
8.035868e+16
7.050717e+16
6.210629e+16
5.66189e+16
5.154442e+16
3.728925e+16
3.768905e+16
5.156145e+16
5.60841e+16
6.079631e+16
6.5588e+16
7.179263e+16
7.927438e+16
8.509291e+16
8.762296e+16
8.763116e+16
8.51053e+16
7.929504e+16
7.1825e+16
6.560939e+16
6.081129e+16
5.60941e+16
5.156448e+16
3.768e+16
3.731616e+16
5.06287e+16
5.352804e+16
5.741316e+16
6.097932e+16
6.391744e+16
6.728823e+16
7.017543e+16
7.018175e+16
6.730379e+16
6.393475e+16
6.101161e+16
5.745074e+16
5.355674e+16
5.064637e+16
3.73243e+16
3.646914e+16
4.177582e+16
5.140959e+16
5.317997e+16
5.502678e+16
5.694185e+16
5.844892e+16
5.845698e+16
5.696254e+16
5.505315e+16
5.321202e+16
5.145579e+16
4.181155e+16
3.649253e+16
3.582392e+16
4.008999e+16
4.164632e+16
4.272169e+16
4.339888e+16
4.340564e+16
4.274863e+16
4.168397e+16
4.01308e+16
3.585886e+16
3.046481e+16
3.398523e+16
3.493937e+16
3.531319e+16
3.530116e+16
3.490476e+16
3.392942e+16
3.041576e+16
3.040358e+16
3.57629e+16
3.89194e+16
4.732232e+16
4.908384e+16
5.009915e+16
5.056107e+16
5.054704e+16
5.005701e+16
4.901833e+16
4.726741e+16
3.887298e+16
3.57189e+16
3.03761e+16
3.337679e+16
4.596466e+16
5.016219e+16
5.461573e+16
5.960812e+16
6.202234e+16
6.351595e+16
6.421912e+16
6.4204e+16
6.347161e+16
6.195245e+16
5.952332e+16
5.453386e+16
5.008085e+16
4.588205e+16
3.332738e+16
3.135094e+16
3.816104e+16
4.930181e+16
5.742701e+16
6.58937e+16
7.393422e+16
7.870718e+16
8.162577e+16
8.358719e+16
8.460396e+16
8.45849e+16
8.353161e+16
8.153757e+16
7.859263e+16
7.380407e+16
6.576554e+16
5.731213e+16
4.917686e+16
3.805748e+16
3.125064e+16
3.164732e+16
4.519984e+16
5.200038e+16
6.275286e+16
7.518221e+16
8.487455e+16
9.296724e+16
1.058484e+17
1.119359e+17
1.155258e+17
1.173157e+17
1.172926e+17
1.154596e+17
1.118325e+17
1.057184e+17
9.283221e+16
8.472537e+16
7.501909e+16
6.258221e+16
5.185141e+16
4.503726e+16
3.152553e+16
3.135544e+16
4.521088e+16
5.355754e+16
6.511798e+16
8.022698e+16
9.22025e+16
1.08801e+17
1.196156e+17
1.289779e+17
1.359072e+17
1.405258e+17
1.428402e+17
1.428144e+17
1.404529e+17
1.357856e+17
1.288166e+17
1.19429e+17
1.085929e+17
9.199293e+16
8.00153e+16
6.492533e+16
5.336459e+16
4.502285e+16
3.122205e+16
3.817924e+16
5.201742e+16
6.512475e+16
8.145226e+16
9.514712e+16
1.146828e+17
1.290977e+17
1.408423e+17
1.507705e+17
1.58728e+17
1.641449e+17
1.664121e+17
1.663834e+17
1.640595e+17
1.585926e+17
1.505975e+17
1.406411e+17
1.288703e+17
1.144412e+17
9.490454e+16
8.120467e+16
6.49057e+16
5.182172e+16
3.802211e+16
3.341248e+16
4.931478e+16
6.275616e+16
8.024379e+16
9.514639e+16
1.164602e+17
1.33501e+17
1.48405e+17
1.612183e+17
1.717884e+17
1.797812e+17
1.854339e+17
1.887052e+17
1.886759e+17
1.853476e+17
1.796436e+17
1.716072e+17
1.610013e+17
1.481588e+17
1.332406e+17
1.16189e+17
9.488891e+16
7.999347e+16
6.253996e+16
4.912373e+16
3.326815e+16
3.042159e+16
4.598631e+16
5.744413e+16
7.519486e+16
9.223533e+16
1.147102e+17
1.335165e+17
1.510598e+17
1.66815e+17
1.798154e+17
1.90517e+17
1.994684e+17
2.05764e+17
2.091613e+17
2.091315e+17
2.056765e+17
1.993288e+17
1.903312e+17
1.79587e+17
1.665526e+17
1.507785e+17
1.332224e+17
1.14417e+17
9.196232e+16
7.493785e+16
5.72438e+16
4.579745e+16
3.02847e+16
3.578535e+16
5.018574e+16
6.590274e+16
8.490967e+16
1.088371e+17
1.291379e+17
1.484311e+17
1.668279e+17
1.826918e+17
1.968179e+17
2.082704e+17
2.171771e+17
2.231613e+17
2.262072e+17
2.261766e+17
2.230734e+17
2.170378e+17
2.080826e+17
1.965855e+17
1.824233e+17
1.665343e+17
1.481241e+17
1.288322e+17
1.085423e+17
8.463264e+16
6.568938e+16
5.00024e+16
3.563376e+16
3.893596e+16
5.462547e+16
7.393128e+16
9.302191e+16
1.196659e+17
1.408967e+17
1.612601e+17
1.798507e+17
1.968381e+17
2.115264e+17
2.229682e+17
2.314166e+17
2.36978e+17
2.397427e+17
2.397147e+17
2.368959e+17
2.312835e+17
2.227874e+17
2.113022e+17
1.965771e+17
1.795633e+17
1.60959e+17
1.405921e+17
1.193702e+17
9.274354e+16
7.372216e+16
5.444857e+16
3.878381e+16
3.047924e+16
4.735125e+16
5.961065e+16
7.87169e+16
1.059116e+17
1.290477e+17
1.508443e+17
1.718622e+17
1.905824e+17
2.083142e+17
2.229867e+17
2.341649e+17
2.422388e+17
2.474912e+17
2.500769e+17
2.500533e+17
2.474215e+17
2.421243e+17
2.340041e+17
2.227782e+17
2.08063e+17
1.903002e+17
1.715621e+17
1.505378e+17
1.287501e+17
1.056278e+17
7.850755e+16
5.943152e+16
4.716097e+16
3.034706e+16
3.398643e+16
4.90963e+16
6.204008e+16
8.166033e+16
1.12016e+17
1.360016e+17
1.58822e+17
1.798827e+17
1.995618e+17
2.172459e+17
2.314567e+17
2.422596e+17
2.500437e+17
2.550955e+17
2.575792e+17
2.575586e+17
2.550352e+17
2.499461e+17
2.421232e+17
2.31274e+17
2.170164e+17
1.992942e+17
1.795927e+17
1.585328e+17
1.357116e+17
1.117399e+17
8.144627e+16
6.185488e+16
4.892398e+16
3.385131e+16
3.495319e+16
5.012308e+16
6.355053e+16
8.364752e+16
1.156302e+17
1.406528e+17
1.642777e+17
1.855708e+17
2.058944e+17
2.232681e+17
2.370568e+17
2.475497e+17
2.551318e+17
2.600539e+17
2.624729e+17
2.624533e+17
2.599988e+17
2.55045e+17
2.474313e+17
2.368968e+17
2.230625e+17
2.056501e+17
1.853029e+17
1.640032e+17
1.403736e+17
1.153667e+17
8.343359e+16
6.336657e+16
4.995357e+16
3.481453e+16
3.534347e+16
5.060753e+16
6.427616e+16
8.468975e+16
1.174454e+17
1.429929e+17
1.665795e+17
1.888809e+17
2.093356e+17
2.263652e+17
2.398799e+17
2.501966e+17
2.57673e+17
2.625273e+17
2.649132e+17
2.648915e+17
2.624702e+17
2.575852e+17
2.500796e+17
2.397298e+17
2.261782e+17
2.091159e+17
1.886392e+17
1.663279e+17
1.427373e+17
1.171987e+17
8.448113e+16
6.409217e+16
5.043537e+16
3.520516e+16
3.534644e+16
5.061105e+16
6.42795e+16
8.469461e+16
1.174483e+17
1.42996e+17
1.665868e+17
1.888933e+17
2.093551e+17
2.26393e+17
2.399161e+17
2.502382e+17
2.577156e+17
2.625701e+17
2.649571e+17
2.649351e+17
2.625131e+17
2.576286e+17
2.501242e+17
2.397754e+17
2.262244e+17
2.091614e+17
1.886805e+17
1.66361e+17
1.427649e+17
1.172207e+17
8.449439e+16
6.410047e+16
5.044215e+16
3.521109e+16
3.496385e+16
5.013774e+16
6.356374e+16
8.366311e+16
1.156405e+17
1.406717e+17
1.643104e+17
1.856102e+17
2.059504e+17
2.233466e+17
2.371588e+17
2.476685e+17
2.552541e+17
2.601764e+17
2.625969e+17
2.625777e+17
2.601246e+17
2.551745e+17
2.475652e+17
2.370341e+17
2.23201e+17
2.057855e+17
1.854281e+17
1.64111e+17
1.40466e+17
1.154328e+17
8.346835e+16
6.339023e+16
4.9974e+16
3.48323e+16
3.400652e+16
4.911897e+16
6.206237e+16
8.168991e+16
1.120364e+17
1.360386e+17
1.588792e+17
1.799509e+17
1.996496e+17
2.173618e+17
2.31602e+17
2.424284e+17
2.502239e+17
2.55282e+17
2.577723e+17
2.57757e+17
2.552407e+17
2.501597e+17
2.423447e+17
2.315014e+17
2.172445e+17
1.995149e+17
1.79798e+17
1.58706e+17
1.358572e+17
1.118484e+17
8.149671e+16
6.189347e+16
4.896157e+16
3.388043e+16
3.050217e+16
4.736538e+16
5.964787e+16
7.876689e+16
1.059406e+17
1.290998e+17
1.509098e+17
1.719519e+17
1.906946e+17
2.084536e+17
2.231547e+17
2.343601e+17
2.424561e+17
2.477253e+17
2.50325e+17
2.503149e+17
2.476984e+17
2.424141e+17
2.343041e+17
2.230852e+17
2.083683e+17
1.905911e+17
1.718318e+17
1.50776e+17
1.289449e+17
1.057776e+17
7.857727e+16
5.948705e+16
4.722328e+16
3.038952e+16
3.895222e+16
5.466145e+16
7.3993e+16
9.304769e+16
1.197286e+17
1.409681e+17
1.613633e+17
1.7998e+17
1.969935e+17
2.117096e+17
2.231811e+17
2.316578e+17
2.372447e+17
2.400286e+17
2.40024e+17
2.372328e+17
2.316392e+17
2.231552e+17
2.11674e+17
1.969426e+17
1.799095e+17
1.612786e+17
1.408682e+17
1.195977e+17
9.292409e+16
7.381607e+16
5.451551e+16
3.883598e+16
3.578937e+16
5.020793e+16
6.595207e+16
8.495264e+16
1.089079e+17
1.292136e+17
1.485355e+17
1.669658e+17
1.828586e+17
1.970175e+17
2.085059e+17
2.174459e+17
2.234605e+17
2.265281e+17
2.265285e+17
2.234615e+17
2.174471e+17
2.085061e+17
1.970137e+17
1.828428e+17
1.669304e+17
1.484844e+17
1.291391e+17
1.087964e+17
8.484724e+16
6.580996e+16
5.008779e+16
3.569496e+16
3.041593e+16
4.601357e+16
5.748687e+16
7.524468e+16
9.229977e+16
1.147885e+17
1.33622e+17
1.511997e+17
1.669881e+17
1.800278e+17
1.907722e+17
1.997597e+17
2.060901e+17
2.095145e+17
2.095198e+17
2.061018e+17
1.997752e+17
1.907905e+17
1.800483e+17
1.670005e+17
1.511943e+17
1.335974e+17
1.147369e+17
9.220892e+16
7.516023e+16
5.737195e+16
4.59012e+16
3.035064e+16
3.340725e+16
4.934195e+16
6.280426e+16
8.029444e+16
9.52284e+16
1.165675e+17
1.336418e+17
1.485776e+17
1.614304e+17
1.720471e+17
1.800777e+17
1.85766e+17
1.890676e+17
1.890769e+17
1.857871e+17
1.801046e+17
1.72079e+17
1.614672e+17
1.486076e+17
1.336563e+17
1.165649e+17
9.520551e+16
8.024982e+16
6.273392e+16
4.92617e+16
3.334393e+16
3.819566e+16
5.205423e+16
6.517763e+16
8.15247e+16
9.523674e+16
1.148244e+17
1.292742e+17
1.410519e+17
1.510112e+17
1.590091e+17
1.644718e+17
1.667752e+17
1.667852e+17
1.644977e+17
1.590475e+17
1.510601e+17
1.410975e+17
1.293129e+17
1.148511e+17
9.525096e+16
8.151595e+16
6.514213e+16
5.199741e+16
3.813828e+16
3.13824e+16
4.524745e+16
5.360689e+16
6.518213e+16
8.032993e+16
9.233911e+16
1.089587e+17
1.198061e+17
1.292024e+17
1.361695e+17
1.408292e+17
1.431784e+17
1.431893e+17
1.408636e+17
1.362166e+17
1.292584e+17
1.198668e+17
1.0902e+17
9.238136e+16
8.035279e+16
6.518387e+16
5.358556e+16
4.520763e+16
3.133855e+16
3.166956e+16
4.525233e+16
5.207162e+16
6.281921e+16
7.526662e+16
8.498359e+16
9.311839e+16
1.060323e+17
1.121477e+17
1.157728e+17
1.175962e+17
1.176073e+17
1.158169e+17
1.122141e+17
1.061071e+17
9.318694e+16
8.506186e+16
7.533258e+16
6.285871e+16
5.208178e+16
4.524244e+16
3.1651e+16
3.138569e+16
3.821504e+16
4.93567e+16
5.750293e+16
6.596894e+16
7.402415e+16
7.880718e+16
8.174317e+16
8.373924e+16
8.482209e+16
8.482589e+16
8.37934e+16
8.182475e+16
7.889871e+16
7.411439e+16
6.604598e+16
5.755711e+16
4.939362e+16
3.822492e+16
3.138805e+16
3.342139e+16
4.602027e+16
5.023164e+16
5.468699e+16
5.96798e+16
6.210324e+16
6.362079e+16
6.436832e+16
6.436894e+16
6.365874e+16
6.215859e+16
5.974338e+16
5.474443e+16
5.027873e+16
4.607892e+16
3.344808e+16
3.042917e+16
3.581222e+16
3.897209e+16
4.74017e+16
4.915479e+16
5.018497e+16
5.069311e+16
5.069764e+16
5.020788e+16
4.918872e+16
4.745077e+16
3.901319e+16
3.584539e+16
3.047105e+16
3.051808e+16
3.402939e+16
3.49941e+16
3.539671e+16
3.539984e+16
3.500782e+16
3.404832e+16
3.053e+16
2.702364e+16
2.997284e+16
3.067163e+16
3.065918e+16
2.993798e+16
2.699333e+16
2.606154e+16
3.16611e+16
3.511992e+16
3.873771e+16
4.635204e+16
4.816576e+16
4.888117e+16
4.885686e+16
4.810228e+16
4.627432e+16
3.870095e+16
3.509364e+16
3.163454e+16
2.605187e+16
2.627241e+16
3.307605e+16
4.367261e+16
5.037811e+16
5.601332e+16
6.281553e+16
6.710294e+16
6.898778e+16
6.991302e+16
6.988141e+16
6.890426e+16
6.700584e+16
6.274022e+16
5.593708e+16
5.028888e+16
4.360833e+16
3.303695e+16
2.625031e+16
2.919049e+16
4.260735e+16
5.175985e+16
6.341821e+16
7.091056e+16
7.833471e+16
8.483804e+16
9.57312e+16
9.997609e+16
1.016743e+17
1.01639e+17
9.987823e+16
9.559552e+16
8.469714e+16
7.817979e+16
7.075813e+16
6.325257e+16
5.165398e+16
4.250578e+16
2.913728e+16
3.109052e+16
4.668177e+16
5.898642e+16
7.22534e+16
8.349643e+16
9.924411e+16
1.094732e+17
1.173684e+17
1.239806e+17
1.280518e+17
1.299247e+17
1.298861e+17
1.279418e+17
1.23815e+17
1.171705e+17
1.092609e+17
9.90302e+16
8.329339e+16
7.203748e+16
5.881655e+16
4.652094e+16
3.098719e+16
3.212014e+16
4.982521e+16
6.552789e+16
7.839389e+16
9.096681e+16
1.114501e+17
1.261985e+17
1.376765e+17
1.459804e+17
1.52327e+17
1.564497e+17
1.5844e+17
1.583983e+17
1.56329e+17
1.521388e+17
1.45741e+17
1.374009e+17
1.25908e+17
1.111698e+17
9.070419e+16
7.811649e+16
6.526447e+16
4.96059e+16
3.197624e+16
3.110747e+16
4.983774e+16
6.813491e+16
8.291623e+16
1.038652e+17
1.210938e+17
1.381591e+17
1.525861e+17
1.6459e+17
1.747638e+17
1.822571e+17
1.870349e+17
1.893469e+17
1.893025e+17
1.869064e+17
1.820555e+17
1.745046e+17
1.642868e+17
1.522493e+17
1.378028e+17
1.207233e+17
1.034994e+17
8.257706e+16
6.780036e+16
4.959145e+16
3.095498e+16
2.921938e+16
4.670264e+16
6.556213e+16
8.29254e+16
1.064078e+17
1.269086e+17
1.457687e+17
1.62608e+17
1.784827e+17
1.919818e+17
2.030802e+17
2.112868e+17
2.165827e+17
2.191547e+17
2.191086e+17
2.164486e+17
2.110724e+17
2.027988e+17
1.916469e+17
1.781043e+17
1.621985e+17
1.453368e+17
1.264745e+17
1.059877e+17
8.255455e+16
6.523349e+16
4.646697e+16
2.906864e+16
2.63035e+16
4.263751e+16
5.904031e+16
7.842482e+16
1.038947e+17
1.269274e+17
1.484021e+17
1.676564e+17
1.864181e+17
2.035129e+17
2.17946e+17
2.296482e+17
2.384594e+17
2.441796e+17
2.468864e+17
2.468388e+17
2.440399e+17
2.382366e+17
2.293562e+17
2.175963e+17
2.03114e+17
1.859813e+17
1.671899e+17
1.479183e+17
1.264551e+17
1.034568e+17
7.805661e+16
5.875267e+16
4.241347e+16
2.615863e+16
3.311366e+16
5.181859e+16
7.228157e+16
9.103689e+16
1.211415e+17
1.458086e+17
1.676782e+17
1.889977e+17
2.089953e+17
2.268063e+17
2.419453e+17
2.541525e+17
2.634001e+17
2.696048e+17
2.727558e+17
2.727084e+17
2.694653e+17
2.631774e+17
2.538586e+17
2.415897e+17
2.263989e+17
2.085483e+17
1.885196e+17
1.67182e+17
1.453103e+17
1.206722e+17
9.063676e+16
7.195008e+16
5.156213e+16
3.294389e+16
2.61023e+16
4.371094e+16
6.344491e+16
8.355298e+16
1.115355e+17
1.382284e+17
1.626721e+17
1.864666e+17
2.090207e+17
2.29681e+17
2.479904e+17
2.636308e+17
2.764104e+17
2.863647e+17
2.931902e+17
2.966861e+17
2.966398e+17
2.930542e+17
2.861472e+17
2.76121e+17
2.632773e+17
2.475827e+17
2.292309e+17
2.085376e+17
1.859641e+17
1.621641e+17
1.377331e+17
1.110867e+17
8.316086e+16
6.315351e+16
4.348926e+16
2.597778e+16
3.168177e+16
5.040748e+16
7.094331e+16
9.933035e+16
1.262858e+17
1.526739e+17
1.785647e+17
2.03584e+17
2.268549e+17
2.480149e+17
2.667881e+17
2.831702e+17
2.966805e+17
3.071108e+17
3.141814e+17
3.177507e+17
3.17706e+17
3.140511e+17
3.069024e+17
2.964009e+17
2.828261e+17
2.663879e+17
2.475697e+17
2.263757e+17
2.03085e+17
1.78058e+17
1.521703e+17
1.258184e+17
9.889889e+16
7.06118e+16
5.016173e+16
3.152598e+16
3.515621e+16
5.606569e+16
7.840433e+16
1.095829e+17
1.377728e+17
1.647019e+17
1.920888e+17
2.180426e+17
2.420213e+17
2.636861e+17
2.832006e+17
3.002552e+17
3.141831e+17
3.247476e+17
3.31823e+17
3.353581e+17
3.353172e+17
3.317029e+17
3.245531e+17
3.139207e+17
2.999309e+17
2.828203e+17
2.632596e+17
2.415602e+17
2.175589e+17
1.915938e+17
1.642045e+17
1.373027e+17
1.091325e+17
7.803151e+16
5.577271e+16
3.496246e+16
3.878561e+16
6.291313e+16
8.495819e+16
1.175014e+17
1.461051e+17
1.749019e+17
2.032181e+17
2.29777e+17
2.542664e+17
2.765046e+17
2.96746e+17
3.142143e+17
3.282961e+17
3.388415e+17
3.458439e+17
3.493236e+17
3.492887e+17
3.457407e+17
3.386723e+17
3.28062e+17
3.139159e+17
2.963882e+17
2.760976e+17
2.538231e+17
2.293095e+17
2.027375e+17
1.74418e+17
1.45638e+17
1.170445e+17
8.455148e+16
6.25527e+16
3.855742e+16
2.706486e+16
4.64051e+16
6.721578e+16
9.587905e+16
1.241395e+17
1.52488e+17
1.8243e+17
2.114637e+17
2.386279e+17
2.635577e+17
2.865037e+17
3.072181e+17
3.24817e+17
3.388786e+17
3.49346e+17
3.562693e+17
3.597018e+17
3.596708e+17
3.561785e+17
3.491993e+17
3.386758e+17
3.245525e+17
3.068924e+17
2.861253e+17
2.63141e+17
2.381868e+17
2.110038e+17
1.819631e+17
1.520259e+17
1.236789e+17
9.544002e+16
6.684065e+16
4.613008e+16
2.68934e+16
2.999987e+16
4.823018e+16
6.910379e+16
1.001421e+17
1.282405e+17
1.566533e+17
1.872532e+17
2.16809e+17
2.444017e+17
2.698177e+17
2.933861e+17
3.143461e+17
3.319491e+17
3.459359e+17
3.563232e+17
3.631817e+17
3.665785e+17
3.665496e+17
3.630985e+17
3.56192e+17
3.457581e+17
3.317147e+17
3.140528e+17
2.930408e+17
2.694332e+17
2.439893e+17
2.163738e+17
1.868068e+17
1.56204e+17
1.277923e+17
9.971319e+16
6.874534e+16
4.795826e+16
2.983338e+16
3.071468e+16
4.896512e+16
7.004123e+16
1.018689e+17
1.301542e+17
1.586925e+17
1.896177e+17
2.19436e+17
2.471687e+17
2.730329e+17
2.969504e+17
3.179893e+17
3.355641e+17
3.494983e+17
3.598351e+17
3.666541e+17
3.700295e+17
3.7e+17
3.665703e+17
3.597044e+17
3.493252e+17
3.353452e+17
3.177212e+17
2.966367e+17
2.726817e+17
2.467877e+17
2.190301e+17
1.891953e+17
1.582623e+17
1.297256e+17
1.014651e+17
6.971729e+16
4.871335e+16
3.055201e+16
3.071658e+16
4.897171e+16
7.005532e+16
1.018772e+17
1.301633e+17
1.587029e+17
1.896295e+17
2.194504e+17
2.471874e+17
2.730563e+17
2.969805e+17
3.180285e+17
3.356133e+17
3.495548e+17
3.598937e+17
3.667124e+17
3.700875e+17
3.700579e+17
3.666284e+17
3.597636e+17
3.493861e+17
3.354076e+17
3.177841e+17
2.966983e+17
2.727395e+17
2.468394e+17
2.190758e+17
1.892343e+17
1.582957e+17
1.29758e+17
1.014963e+17
6.974516e+16
4.873348e+16
3.05635e+16
3.001588e+16
4.824179e+16
6.911349e+16
1.001554e+17
1.282638e+17
1.56683e+17
1.872872e+17
2.168528e+17
2.444595e+17
2.698881e+17
2.934742e+17
3.144584e+17
3.320883e+17
3.46097e+17
3.564909e+17
3.633497e+17
3.667472e+17
3.667197e+17
3.632716e+17
3.563699e+17
3.459418e+17
3.319032e+17
3.142427e+17
2.932265e+17
2.696075e+17
2.441462e+17
2.165116e+17
1.869209e+17
1.562996e+17
1.278853e+17
9.980158e+16
6.88239e+16
4.801691e+16
2.986719e+16
2.708802e+16
4.639377e+16
6.720452e+16
9.588872e+16
1.2417e+17
1.525351e+17
1.824841e+17
2.115351e+17
2.387218e+17
2.636723e+17
2.866429e+17
3.073894e+17
3.250226e+17
3.391136e+17
3.495978e+17
3.565299e+17
3.5997e+17
3.59947e+17
3.564645e+17
3.494966e+17
3.389841e+17
3.248688e+17
3.072101e+17
2.864345e+17
2.634312e+17
2.384467e+17
2.112292e+17
1.821485e+17
1.521761e+17
1.238223e+17
9.55698e+16
6.694626e+16
4.619199e+16
2.695458e+16
3.878792e+16
6.288454e+16
8.496754e+16
1.175375e+17
1.461693e+17
1.749735e+17
2.033139e+17
2.298977e+17
2.544159e+17
2.766846e+17
2.969609e+17
3.144657e+17
3.285819e+17
3.391557e+17
3.461797e+17
3.496774e+17
3.496608e+17
3.461328e+17
3.390831e+17
3.284886e+17
3.143529e+17
2.968253e+17
2.765212e+17
2.54221e+17
2.296683e+17
2.030469e+17
1.746739e+17
1.458387e+17
1.172273e+17
8.46991e+16
6.266885e+16
3.861949e+16
3.515765e+16
5.606925e+16
7.842095e+16
1.096146e+17
1.378464e+17
1.647846e+17
1.922031e+17
2.18183e+17
2.421963e+17
2.63897e+17
2.834483e+17
3.005414e+17
3.145081e+17
3.251089e+17
3.322166e+17
3.357805e+17
3.35771e+17
3.321898e+17
3.250676e+17
3.144549e+17
3.004741e+17
2.833603e+17
2.637811e+17
2.420493e+17
2.179985e+17
1.919754e+17
1.645267e+17
1.375502e+17
1.093452e+17
7.818066e+16
5.586203e+16
3.499998e+16
3.170221e+16
5.043507e+16
7.098115e+16
9.935932e+16
1.263542e+17
1.527688e+17
1.78693e+17
2.037385e+17
2.270459e+17
2.482472e+17
2.670619e+17
2.834887e+17
2.970452e+17
3.075194e+17
3.146303e+17
3.182359e+17
3.182326e+17
3.14621e+17
3.075055e+17
2.970276e+17
2.834633e+17
2.670196e+17
2.481775e+17
2.269431e+17
2.03594e+17
1.785024e+17
1.525513e+17
1.261076e+17
9.913537e+16
7.075603e+16
5.023799e+16
3.155395e+16
2.612068e+16
4.3729e+16
6.350064e+16
8.357551e+16
1.115839e+17
1.38322e+17
1.62803e+17
1.866301e+17
2.092239e+17
2.299292e+17
2.482847e+17
2.639753e+17
2.768073e+17
2.868112e+17
2.936835e+17
2.97223e+17
2.97225e+17
2.936886e+17
2.868188e+17
2.768172e+17
2.639828e+17
2.482787e+17
2.298975e+17
2.091584e+17
1.865227e+17
1.626523e+17
1.381525e+17
1.113981e+17
8.340871e+16
6.328284e+16
4.357289e+16
2.600294e+16
3.312428e+16
5.183187e+16
7.233143e+16
9.105925e+16
1.212334e+17
1.459369e+17
1.67847e+17
1.892103e+17
2.092557e+17
2.271146e+17
2.423049e+17
2.545665e+17
2.638665e+17
2.701221e+17
2.733226e+17
2.733293e+17
2.701402e+17
2.638928e+17
2.545992e+17
2.423378e+17
2.271363e+17
2.092539e+17
1.891773e+17
1.677775e+17
1.458329e+17
1.211054e+17
9.093811e+16
7.217765e+16
5.168897e+16
3.301036e+16
2.630386e+16
4.266052e+16
5.907454e+16
7.850498e+16
1.040003e+17
1.270603e+17
1.485751e+17
1.678745e+17
1.866862e+17
2.038286e+17
2.18311e+17
2.300634e+17
2.389281e+17
2.447043e+17
2.474659e+17
2.474761e+17
2.447336e+17
2.38972e+17
2.301176e+17
2.183654e+17
2.038736e+17
1.867091e+17
1.678674e+17
1.485322e+17
1.269797e+17
1.038877e+17
7.837786e+16
5.894904e+16
4.255169e+16
2.623115e+16
2.922406e+16
4.674717e+16
6.56345e+16
8.300891e+16
1.065262e+17
1.270757e+17
1.459852e+17
1.628722e+17
1.78786e+17
1.923332e+17
2.034817e+17
2.117409e+17
2.17093e+17
2.197209e+17
2.197341e+17
2.171337e+17
2.118017e+17
2.035554e+17
1.924112e+17
1.788582e+17
1.629188e+17
1.459999e+17
1.270606e+17
1.064796e+17
8.294197e+16
6.552626e+16
4.665427e+16
2.916417e+16
3.112246e+16
4.987967e+16
6.823068e+16
8.300777e+16
1.040245e+17
1.212872e+17
1.38394e+17
1.528565e+17
1.649074e+17
1.751273e+17
1.826697e+17
1.875041e+17
1.898746e+17
1.898892e+17
1.87555e+17
1.827491e+17
1.75223e+17
1.650074e+17
1.529508e+17
1.384585e+17
1.213166e+17
1.040304e+17
8.29879e+16
6.817921e+16
4.982155e+16
3.107386e+16
3.213998e+16
4.988012e+16
6.565271e+16
7.85363e+16
9.1136e+16
1.116644e+17
1.264396e+17
1.379491e+17
1.462958e+17
1.526898e+17
1.568706e+17
1.589291e+17
1.589404e+17
1.569243e+17
1.527752e+17
1.464002e+17
1.380619e+17
1.265369e+17
1.117272e+17
9.115548e+16
7.855366e+16
6.564787e+16
4.985846e+16
3.211368e+16
3.111458e+16
4.674054e+16
5.911039e+16
7.237837e+16
8.362761e+16
9.943579e+16
1.09711e+17
1.176555e+17
1.243122e+17
1.284317e+17
1.303539e+17
1.303609e+17
1.284703e+17
1.243749e+17
1.177348e+17