/*--------------------------------*- C++ -*----------------------------------*\
  =========                 |
  \\      /  F ield         | OpenFOAM: The Open Source CFD Toolbox
   \\    /   O peration     | Website:  https://openfoam.org
    \\  /    A nd           | Version:  6
     \\/     M anipulation  |
\*---------------------------------------------------------------------------*/
FoamFile
{
    version     2.0;
    format      ascii;
    class       volScalarField;
    location    "50/region0/neutronTransport";
    object      discFlux6;
}
// * * * * * * * * * * * * * * * * * * * * * * * * * * * * * * * * * * * * * //

dimensions      [0 -2 -1 0 0 0 0];

internalField   nonuniform List<scalar> 
203709
(
-5.341618e-36
-2.10122e-36
-3.130975e-36
-1.693534e-36
-5.341665e-36
-2.230096e-36
-8.161114e-37
-1.952604e-36
-2.197865e-36
-1.68204e-36
-3.559236e-36
-2.020396e-36
-5.341611e-36
-2.171249e-36
-1.073228e-36
-2.410525e-36
-3.02205e-36
-3.365438e-36
-3.438439e-36
-3.13177e-36
-2.749996e-36
-2.034157e-36
-3.55962e-36
-1.826168e-36
-5.34161e-36
5.858656e-37
-2.233138e-36
-3.05561e-36
-3.470364e-36
-3.624617e-36
-3.698186e-36
-3.717649e-36
-3.685682e-36
-3.602933e-36
-3.212932e-36
-2.69136e-36
-1.668104e-36
-1.732346e-36
-2.170143e-36
-2.232897e-36
-3.322827e-36
-3.601958e-36
-3.724254e-36
-3.779137e-36
-3.8063e-36
-3.81267e-36
-3.80044e-36
-3.770067e-36
-3.699297e-36
-3.548326e-36
-2.945554e-36
-1.109802e-36
-5.341666e-36
-1.074062e-36
-3.055289e-36
-3.602001e-36
-3.749513e-36
-3.810437e-36
-3.83583e-36
-3.849027e-36
-3.852308e-36
-3.847404e-36
-3.831089e-36
-3.796728e-36
-3.722894e-36
-3.539423e-36
-3.122758e-36
-1.99261e-36
-2.229806e-36
-2.410418e-36
-3.470537e-36
-3.724413e-36
-3.810325e-36
-3.844189e-36
-3.864307e-36
-3.874784e-36
-3.875136e-36
-3.867688e-36
-3.857759e-36
-3.837059e-36
-3.791032e-36
-3.683826e-36
-3.131849e-36
-1.290755e-36
-5.341618e-36
-8.143218e-37
-3.023525e-36
-3.624158e-36
-3.779015e-36
-3.835733e-36
-3.864102e-36
-3.879759e-36
-3.885482e-36
-3.889285e-36
-3.886633e-36
-3.87235e-36
-3.856425e-36
-3.823315e-36
-3.751043e-36
-3.551069e-36
-3.096497e-36
-1.649224e-36
-2.10521e-36
-1.954343e-36
-3.365128e-36
-3.698355e-36
-3.806152e-36
-3.848628e-36
-3.874349e-36
-3.88523e-36
-3.899812e-36
-3.897452e-36
-3.895663e-36
-3.878355e-36
-3.867074e-36
-3.836684e-36
-3.780585e-36
-3.63428e-36
-2.92859e-36
-9.930974e-37
-3.130028e-36
-2.196844e-36
-3.438543e-36
-3.717772e-36
-3.812505e-36
-3.852252e-36
-3.874896e-36
-3.889017e-36
-3.895786e-36
-3.896035e-36
-3.897501e-36
-3.881053e-36
-3.868521e-36
-3.839631e-36
-3.786981e-36
-3.644956e-36
-3.195827e-36
-1.896958e-36
-1.692017e-36
-1.679839e-36
-3.131207e-36
-3.685164e-36
-3.800422e-36
-3.84732e-36
-3.867766e-36
-3.886346e-36
-3.894955e-36
-3.897404e-36
-3.887806e-36
-3.879401e-36
-3.86157e-36
-3.831981e-36
-3.766394e-36
-3.58559e-36
-3.235204e-36
1.061502e-36
-3.558843e-36
-2.749333e-36
-3.602795e-36
-3.769976e-36
-3.83119e-36
-3.857606e-36
-3.872459e-36
-3.87812e-36
-3.8811e-36
-3.879538e-36
-3.868432e-36
-3.847862e-36
-3.812704e-36
-3.720319e-36
-3.455657e-36
-2.193722e-36
-2.020014e-36
-2.037019e-36
-3.214005e-36
-3.699239e-36
-3.796829e-36
-3.837187e-36
-3.856497e-36
-3.867206e-36
-3.868693e-36
-3.861429e-36
-3.847716e-36
-3.824264e-36
-3.765748e-36
-3.614089e-36
-3.360696e-36
3.184019e-37
-3.55835e-36
-2.691436e-36
-3.548783e-36
-3.723169e-36
-3.790949e-36
-3.823515e-36
-3.833387e-36
-3.839799e-36
-3.831324e-36
-3.812506e-36
-3.765656e-36
-3.667181e-36
-3.41149e-36
-2.159398e-36
-1.828006e-36
-1.668527e-36
-2.945853e-36
-3.53925e-36
-3.684233e-36
-3.751718e-36
-3.780898e-36
-3.786875e-36
-3.764651e-36
-3.720419e-36
-3.614619e-36
-3.411156e-36
-3.091645e-36
6.732622e-37
-1.731149e-36
-1.110065e-36
-3.123433e-36
-3.132092e-36
-3.551708e-36
-3.631415e-36
-3.643833e-36
-3.585397e-36
-3.455888e-36
-3.361567e-36
-2.158023e-36
6.744446e-37
-1.994329e-36
-1.293005e-36
-3.098707e-36
-2.930057e-36
-3.196035e-36
-3.231916e-36
-2.195683e-36
3.15428e-37
-1.653427e-36
-9.970041e-37
-1.89259e-36
1.057119e-36
-5.34167e-36
-2.439504e-36
-3.54849e-36
-3.660025e-36
-3.696948e-36
-3.701044e-36
-3.686604e-36
-3.631511e-36
-3.456253e-36
-1.995808e-36
-5.341659e-36
-2.433949e-36
-1.191483e-36
-2.360793e-36
-2.739631e-36
-2.857773e-36
-2.878347e-36
-2.869749e-36
-2.858584e-36
-2.790477e-36
-2.615322e-36
-2.096548e-36
-3.66176e-36
-2.128457e-36
-5.341698e-36
-4.328581e-37
-2.586826e-36
-3.249597e-36
-3.576217e-36
-3.798245e-36
-3.769813e-36
-3.785084e-36
-3.749078e-36
-3.841463e-36
-3.787258e-36
-3.673527e-36
-3.357824e-36
-2.928901e-36
-2.099603e-36
-2.48278e-36
-5.341724e-36
-1.066224e-36
-2.99398e-36
-3.572503e-36
-3.864615e-36
-3.854568e-36
-3.756353e-36
-2.142568e-36
-2.628233e-36
-2.731271e-36
-2.953254e-36
-3.877736e-36
-3.935587e-36
-3.884841e-36
-3.737519e-36
-3.310183e-36
-2.692073e-36
-2.59366e-36
-5.341698e-36
-1.064517e-36
-3.065844e-36
-3.768139e-36
-3.851189e-36
-3.772632e-36
-2.267153e-36
-2.837754e-36
-2.974315e-36
-3.215732e-36
-3.075053e-36
-3.08618e-36
-2.860623e-36
-3.05877e-36
-3.909227e-36
-3.944586e-36
-3.864376e-36
-3.42989e-36
-2.764544e-36
-2.501982e-36
-5.34166e-36
-4.310655e-37
-2.993085e-36
-3.767354e-36
-3.737574e-36
-2.336261e-36
-2.807082e-36
-3.006689e-36
-3.271865e-36
-3.24421e-36
-3.074733e-36
-3.095718e-36
-3.169115e-36
-3.166449e-36
-3.163925e-36
-2.865827e-36
-3.079609e-36
-3.98406e-36
-3.872527e-36
-3.421728e-36
-2.623547e-36
-2.011032e-36
-2.434004e-36
-2.585412e-36
-3.572793e-36
-3.850549e-36
-2.335287e-36
-2.886498e-36
-3.213522e-36
-3.257752e-36
-3.132221e-36
-3.165043e-36
-3.180675e-36
-3.183379e-36
-3.173318e-36
-3.171942e-36
-3.20412e-36
-3.14989e-36
-3.081761e-36
-3.344239e-36
-3.9544e-36
-3.807506e-36
-3.2488e-36
-1.551019e-36
-5.341671e-36
-1.192328e-36
-3.249267e-36
-3.865062e-36
-3.772273e-36
-2.806976e-36
-3.213155e-36
-3.08017e-36
-3.157553e-36
-3.210906e-36
-3.247046e-36
-3.266776e-36
-3.270532e-36
-3.258103e-36
-3.229069e-36
-3.183227e-36
-3.1376e-36
-3.153758e-36
-3.549192e-36
-3.913315e-36
-3.868062e-36
-3.7115e-36
-3.304393e-36
-1.946458e-36
-2.438398e-36
-2.358348e-36
-3.575772e-36
-3.853609e-36
-2.265605e-36
-3.005238e-36
-3.257248e-36
-3.157309e-36
-3.22528e-36
-3.27658e-36
-3.309122e-36
-3.32638e-36
-3.329612e-36
-3.318686e-36
-3.293892e-36
-3.251183e-36
-3.187272e-36
-3.144703e-36
-3.139636e-36
-3.364629e-36
-3.970828e-36
-3.827023e-36
-3.219451e-36
-1.532502e-36
-3.54563e-36
-2.735661e-36
-3.797949e-36
-3.756176e-36
-2.837055e-36
-3.27144e-36
-3.132131e-36
-3.210891e-36
-3.276642e-36
-3.321995e-36
-3.349053e-36
-3.363103e-36
-3.365489e-36
-3.356081e-36
-3.335348e-36
-3.300046e-36
-3.243234e-36
-3.19164e-36
-3.206178e-36
-3.59196e-36
-3.911037e-36
-3.842729e-36
-3.564163e-36
-2.596406e-36
-3.657377e-36
-2.854373e-36
-3.768256e-36
-2.141588e-36
-2.974461e-36
-3.243578e-36
-3.164931e-36
-3.246856e-36
-3.308955e-36
-3.348838e-36
-3.375011e-36
-3.390465e-36
-3.393518e-36
-3.383023e-36
-3.361112e-36
-3.328792e-36
-3.277339e-36
-3.200536e-36
-3.139068e-36
-3.098767e-36
-3.352739e-36
-3.952394e-36
-3.645431e-36
-2.77308e-36
-3.695726e-36
-2.877618e-36
-3.784371e-36
-2.62766e-36
-3.215491e-36
-3.074976e-36
-3.180652e-36
-3.266463e-36
-3.32617e-36
-3.36283e-36
-3.390174e-36
-3.401237e-36
-3.404506e-36
-3.395735e-36
-3.37579e-36
-3.343101e-36
-3.295786e-36
-3.221227e-36
-3.145545e-36
-3.1293e-36
-3.654817e-36
-3.917264e-36
-3.599569e-36
-2.821066e-36
-3.701474e-36
-2.872107e-36
-3.750099e-36
-2.732387e-36
-3.07537e-36
-3.095934e-36
-3.183523e-36
-3.270517e-36
-3.329525e-36
-3.365309e-36
-3.393117e-36
-3.403576e-36
-3.407338e-36
-3.397907e-36
-3.378555e-36
-3.345357e-36
-3.29865e-36
-3.225407e-36
-3.127292e-36
-3.067023e-36
-3.70802e-36
-3.883968e-36
-3.609504e-36
-2.828782e-36
-3.688698e-36
-2.861076e-36
-3.841452e-36
-2.953354e-36
-3.086028e-36
-3.169085e-36
-3.173368e-36
-3.257946e-36
-3.31863e-36
-3.356022e-36
-3.382825e-36
-3.395348e-36
-3.397836e-36
-3.388996e-36
-3.368039e-36
-3.335147e-36
-3.286659e-36
-3.216416e-36
-3.159281e-36
-3.420367e-36
-4.012125e-36
-3.974592e-36
-3.643483e-36
-2.81309e-36
-3.633812e-36
-2.792889e-36
-3.787764e-36
-3.877441e-36
-2.860542e-36
-3.166642e-36
-3.171951e-36
-3.228871e-36
-3.293901e-36
-3.335414e-36
-3.360974e-36
-3.375616e-36
-3.378645e-36
-3.36799e-36
-3.346251e-36
-3.312585e-36
-3.260063e-36
-3.191873e-36
-3.181988e-36
-3.656109e-36
-3.950349e-36
-3.801726e-36
-3.654009e-36
-2.725657e-36
-3.459194e-36
-2.617277e-36
-3.674062e-36
-3.933722e-36
-3.059249e-36
-3.16363e-36
-3.204004e-36
-3.183207e-36
-3.251269e-36
-3.300015e-36
-3.328787e-36
-3.342822e-36
-3.345243e-36
-3.335086e-36
-3.3125e-36
-3.273436e-36
-3.217506e-36
-3.183246e-36
-3.476097e-36
-4.028847e-36
-3.921359e-36
-3.896991e-36
-3.481587e-36
-2.436611e-36
-2.004681e-36
-2.10329e-36
-3.359347e-36
-3.884597e-36
-3.910133e-36
-2.866147e-36
-3.150186e-36
-3.13782e-36
-3.187366e-36
-3.243224e-36
-3.277207e-36
-3.295067e-36
-3.29692e-36
-3.286394e-36
-3.259897e-36
-3.21748e-36
-3.154976e-36
-3.153971e-36
-3.659884e-36
-3.963392e-36
-3.830464e-36
-3.824363e-36
-3.443665e-36
3.73833e-37
-3.659184e-36
-2.929117e-36
-3.737563e-36
-3.944876e-36
-3.079756e-36
-3.081044e-36
-3.153499e-36
-3.144955e-36
-3.191843e-36
-3.200607e-36
-3.219979e-36
-3.222562e-36
-3.216163e-36
-3.191804e-36
-3.183091e-36
-3.154153e-36
-3.396204e-36
-4.029701e-36
-3.919545e-36
-3.908784e-36
-3.60118e-36
-2.382898e-36
-2.134572e-36
-2.097264e-36
-3.310325e-36
-3.865933e-36
-3.983541e-36
-3.343866e-36
-3.548765e-36
-3.139819e-36
-3.206365e-36
-3.139214e-36
-3.145371e-36
-3.125202e-36
-3.159225e-36
-3.182104e-36
-3.475796e-36
-3.65999e-36
-4.029088e-36
-4.051222e-36
-3.833059e-36
-3.772325e-36
-3.396022e-36
1.317041e-38
-2.482182e-36
-2.693193e-36
-3.43069e-36
-3.873056e-36
-3.953337e-36
-3.913394e-36
-3.364582e-36
-3.590493e-36
-3.099192e-36
-3.128297e-36
-3.063779e-36
-3.420701e-36
-3.65654e-36
-4.029368e-36
-3.963197e-36
-3.919382e-36
-3.833082e-36
-3.866931e-36
-3.520222e-36
-1.03475e-37
-2.594761e-36
-2.764352e-36
-3.420488e-36
-3.807536e-36
-3.867824e-36
-3.97144e-36
-3.911209e-36
-3.353738e-36
-3.655225e-36
-3.706895e-36
-4.01221e-36
-3.94994e-36
-3.922141e-36
-3.830997e-36
-3.909075e-36
-3.773202e-36
-3.521456e-36
-3.286656e-37
-2.497703e-36
-2.623853e-36
-3.248919e-36
-3.711758e-36
-3.826956e-36
-3.841713e-36
-3.952469e-36
-3.91567e-36
-3.883693e-36
-3.974525e-36
-3.802546e-36
-3.89734e-36
-3.822637e-36
-3.599162e-36
-3.393717e-36
-1.047146e-37
-2.012913e-36
-1.551027e-36
-3.302872e-36
-3.217558e-36
-3.563744e-36
-3.645295e-36
-3.600428e-36
-3.610387e-36
-3.641042e-36
-3.653487e-36
-3.481481e-36
-3.444221e-36
-2.381218e-36
1.560121e-38
-1.947229e-36
-1.531308e-36
-2.595306e-36
-2.772617e-36
-2.817565e-36
-2.828301e-36
-2.812023e-36
-2.723348e-36
-2.434126e-36
3.892426e-37
-5.34166e-36
-2.55965e-36
-3.613354e-36
-3.713345e-36
-3.730511e-36
-3.697474e-36
-3.531163e-36
-2.141835e-36
-5.341675e-36
-2.70229e-36
-3.672267e-36
-1.618262e-36
-2.529961e-36
-2.771404e-36
-2.852015e-36
-2.864752e-36
-2.825263e-36
-2.710835e-36
-2.383177e-36
-3.943588e-36
-3.656879e-36
-2.183862e-36
-5.341788e-36
-9.198437e-37
-2.853869e-36
-3.240581e-36
-3.516923e-36
-3.685434e-36
-3.75761e-36
-3.781102e-36
-3.786049e-36
-3.774672e-36
-3.752507e-36
-3.530282e-36
-3.403229e-36
-3.057056e-36
-2.413875e-36
-2.852782e-36
-5.341688e-36
-2.791902e-36
-2.547544e-36
-3.305725e-36
-3.503958e-36
-2.132752e-36
-2.709769e-36
-2.904344e-36
-2.981677e-36
-3.009433e-36
-3.015076e-36
-3.001848e-36
-2.960175e-36
-2.876823e-36
-2.949844e-36
-3.752548e-36
-3.551348e-36
-3.300037e-36
-3.954861e-36
-2.388952e-36
-5.341686e-36
-8.933516e-37
-3.030801e-36
-3.369597e-36
-2.198178e-36
-2.83094e-36
-3.070053e-36
-3.34133e-36
-3.247203e-36
-3.285416e-36
-3.287484e-36
-3.290882e-36
-3.297005e-36
-3.279455e-36
-3.23714e-36
-3.20678e-36
-2.918982e-36
-3.004669e-36
-3.711969e-36
-3.273118e-36
-2.520277e-36
-2.567119e-36
-5.341687e-36
-8.854055e-37
-3.262297e-36
-3.516452e-36
-2.479342e-36
-2.945048e-36
-3.300818e-36
-3.354243e-36
-3.228761e-36
-3.228409e-36
-3.317807e-36
-3.293949e-36
-3.298192e-36
-3.292631e-36
-3.286672e-36
-3.272682e-36
-3.307176e-36
-3.251138e-36
-3.20062e-36
-3.184706e-36
-3.840221e-36
-3.491044e-36
-2.844026e-36
-2.283039e-36
-2.789728e-36
-3.031908e-36
-3.513403e-36
-2.505011e-36
-2.966309e-36
-3.462391e-36
-3.230287e-36
-3.257848e-36
-3.34511e-36
-3.373813e-36
-3.402562e-36
-3.438765e-36
-3.457586e-36
-3.411237e-36
-3.341036e-36
-3.330456e-36
-3.319959e-36
-3.283558e-36
-3.30161e-36
-3.232182e-36
-3.246517e-36
-3.860614e-36
-3.467558e-36
-2.099567e-36
-5.341787e-36
-2.544668e-36
-3.367571e-36
-2.48068e-36
-2.967693e-36
-3.48832e-36
-3.245606e-36
-3.335238e-36
-3.383378e-36
-3.42112e-36
-3.431615e-36
-3.526752e-36
-3.304663e-36
-3.310859e-36
-3.406614e-36
-3.450805e-36
-3.450537e-36
-3.364307e-36
-3.331609e-36
-3.336224e-36
-3.333321e-36
-3.246665e-36
-3.253062e-36
-3.836885e-36
-3.7155e-36
-3.033093e-36
-5.341674e-36
-9.138815e-37
-3.306643e-36
-2.19762e-36
-2.9431e-36
-3.462329e-36
-3.245992e-36
-3.390709e-36
-3.402245e-36
-3.43028e-36
-3.54598e-36
-3.33671e-36
-3.311059e-36
-3.274389e-36
-3.264914e-36
-3.284207e-36
-3.338281e-36
-3.435852e-36
-3.460408e-36
-3.444774e-36
-3.342186e-36
-3.355425e-36
-3.319479e-36
-3.196944e-36
-3.364886e-36
-3.670615e-36
-3.053223e-36
-2.138644e-36
-2.702168e-36
-2.851299e-36
-3.501303e-36
-2.831149e-36
-3.300442e-36
-3.229678e-36
-3.335454e-36
-3.40219e-36
-3.506276e-36
-3.323625e-36
-3.321471e-36
-3.305363e-36
-3.302496e-36
-3.298968e-36
-3.297933e-36
-3.298072e-36
-3.299055e-36
-3.307095e-36
-3.339864e-36
-3.422315e-36
-3.387098e-36
-3.384475e-36
-3.321628e-36
-3.274616e-36
-3.591777e-36
-3.839575e-36
-3.375837e-36
-1.969511e-36
-3.669862e-36
-3.237739e-36
-2.134697e-36
-3.069889e-36
-3.35397e-36
-3.257265e-36
-3.383457e-36
-3.42992e-36
-3.323335e-36
-3.292687e-36
-3.302816e-36
-3.320553e-36
-3.337237e-36
-3.346925e-36
-3.348711e-36
-3.342376e-36
-3.32872e-36
-3.310418e-36
-3.296458e-36
-3.329443e-36
-3.359259e-36
-3.316106e-36
-3.361026e-36
-3.282004e-36
-3.225164e-36
-3.367029e-36
-3.797566e-36
-2.989949e-36
-5.341659e-36
-1.610048e-36
-3.512971e-36
-2.710332e-36
-3.339505e-36
-3.228452e-36
-3.344614e-36
-3.420389e-36
-3.545278e-36
-3.321031e-36
-3.302654e-36
-3.32664e-36
-3.356548e-36
-3.379662e-36
-3.392769e-36
-3.395299e-36
-3.387096e-36
-3.368881e-36
-3.34218e-36
-3.313929e-36
-3.32993e-36
-3.432088e-36
-3.407058e-36
-3.397077e-36
-3.328622e-36
-3.276645e-36
-3.711401e-36
-3.872657e-36
-3.593551e-36
-2.039445e-36
-2.554749e-36
-2.525251e-36
-3.68504e-36
-2.903586e-36
-3.245236e-36
-3.227576e-36
-3.3738e-36
-3.430913e-36
-3.336103e-36
-3.305102e-36
-3.320449e-36
-3.356533e-36
-3.390283e-36
-3.41417e-36
-3.427383e-36
-3.429909e-36
-3.421606e-36
-3.402927e-36
-3.374428e-36
-3.33882e-36
-3.311291e-36
-3.338587e-36
-3.363233e-36
-3.308692e-36
-3.345569e-36
-3.248383e-36
-3.756015e-36
-3.891615e-36
-3.348604e-36
-1.711084e-36
-3.612136e-36
-2.773137e-36
-3.758365e-36
-2.98094e-36
-3.283864e-36
-3.316274e-36
-3.401988e-36
-3.526169e-36
-3.310581e-36
-3.302311e-36
-3.337102e-36
-3.379555e-36
-3.414071e-36
-3.438353e-36
-3.452148e-36
-3.454875e-36
-3.446117e-36
-3.426783e-36
-3.397662e-36
-3.359335e-36
-3.319384e-36
-3.325097e-36
-3.415292e-36
-3.387726e-36
-3.383654e-36
-3.289602e-36
-3.797558e-36
-3.91634e-36
-3.565859e-36
-2.664243e-36
-3.713458e-36
-2.85438e-36
-3.781764e-36
-3.009365e-36
-3.287163e-36
-3.293518e-36
-3.438496e-36
-3.304429e-36
-3.274342e-36
-3.298907e-36
-3.346779e-36
-3.392636e-36
-3.427233e-36
-3.452009e-36
-3.464631e-36
-3.467398e-36
-3.459053e-36
-3.440169e-36
-3.410471e-36
-3.371014e-36
-3.324298e-36
-3.288001e-36
-3.306689e-36
-3.327279e-36
-3.333522e-36
-3.301046e-36
-3.81401e-36
-3.926863e-36
-3.602709e-36
-2.803131e-36
-3.731367e-36
-2.865586e-36
-3.786487e-36
-3.016169e-36
-3.291843e-36
-3.29915e-36
-3.45827e-36
-3.311233e-36
-3.265078e-36
-3.297994e-36
-3.348678e-36
-3.395216e-36
-3.429774e-36
-3.454652e-36
-3.467075e-36
-3.469927e-36
-3.461458e-36
-3.442761e-36
-3.41297e-36
-3.373633e-36
-3.326962e-36
-3.288351e-36
-3.317577e-36
-3.331792e-36
-3.334656e-36
-3.301253e-36
-3.818272e-36
-3.93002e-36
-3.610922e-36
-2.828281e-36
-3.697687e-36
-2.82448e-36
-3.775087e-36
-3.003914e-36
-3.29881e-36
-3.293482e-36
-3.41152e-36
-3.40709e-36
-3.2844e-36
-3.29814e-36
-3.342322e-36
-3.38704e-36
-3.42152e-36
-3.445957e-36
-3.458833e-36
-3.461387e-36
-3.453176e-36
-3.434172e-36
-3.405039e-36
-3.367153e-36
-3.326069e-36
-3.318922e-36
-3.280731e-36
-3.387806e-36
-3.359342e-36
-3.294148e-36
-3.812326e-36
-3.924076e-36
-3.590067e-36
-2.772923e-36
-3.532978e-36
-2.707054e-36
-3.752249e-36
-2.962517e-36
-3.281397e-36
-3.286614e-36
-3.340837e-36
-3.450995e-36
-3.338468e-36
-3.299105e-36
-3.32866e-36
-3.368853e-36
-3.402894e-36
-3.426651e-36
-3.439996e-36
-3.442681e-36
-3.434108e-36
-3.415304e-36
-3.387343e-36
-3.352339e-36
-3.321405e-36
-3.354511e-36
-3.361964e-36
-3.291033e-36
-3.384086e-36
-3.273521e-36
-3.791667e-36
-3.907157e-36
-3.517226e-36
-2.537119e-36
-2.159167e-36
-2.382353e-36
-3.529688e-36
-2.878379e-36
-3.23913e-36
-3.271916e-36
-3.330484e-36
-3.450388e-36
-3.435805e-36
-3.307057e-36
-3.310393e-36
-3.342181e-36
-3.374366e-36
-3.397538e-36
-3.410198e-36
-3.412712e-36
-3.404879e-36
-3.387259e-36
-3.36098e-36
-3.331986e-36
-3.336422e-36
-3.312588e-36
-3.429863e-36
-3.385125e-36
-3.314815e-36
-3.252259e-36
-3.787255e-36
-3.870882e-36
-3.5683e-36
8.326047e-38
-3.940584e-36
-3.403637e-36
-2.950075e-36
-3.208915e-36
-3.306649e-36
-3.320875e-36
-3.364344e-36
-3.46022e-36
-3.339775e-36
-3.296461e-36
-3.31393e-36
-3.338753e-36
-3.359126e-36
-3.370549e-36
-3.372768e-36
-3.366788e-36
-3.352173e-36
-3.331932e-36
-3.312302e-36
-3.350571e-36
-3.366928e-36
-3.312039e-36
-3.411468e-36
-3.313163e-36
-3.523542e-36
-4.014868e-36
-3.891511e-36
-2.925461e-36
-3.659675e-36
-3.05664e-36
-3.750991e-36
-2.920121e-36
-3.249893e-36
-3.284922e-36
-3.332011e-36
-3.444431e-36
-3.421924e-36
-3.32926e-36
-3.329931e-36
-3.311256e-36
-3.319176e-36
-3.32355e-36
-3.325627e-36
-3.325615e-36
-3.32125e-36
-3.336323e-36
-3.350485e-36
-3.305303e-36
-3.414747e-36
-3.379834e-36
-3.323704e-36
-3.287312e-36
-3.69254e-36
-3.909467e-36
-3.554637e-36
-2.979706e-36
-2.173513e-36
-2.416793e-36
-3.551813e-36
-3.004371e-36
-3.199256e-36
-3.303014e-36
-3.336651e-36
-3.342071e-36
-3.386467e-36
-3.359011e-36
-3.432052e-36
-3.3385e-36
-3.32487e-36
-3.287514e-36
-3.287218e-36
-3.318544e-36
-3.354509e-36
-3.312588e-36
-3.366657e-36
-3.414358e-36
-3.30603e-36
-3.395345e-36
-3.31714e-36
-3.51732e-36
-4.014155e-36
-3.7829e-36
-3.594627e-36
-1.98078e-37
-2.85655e-36
-3.299573e-36
-3.713028e-36
-3.184921e-36
-3.23325e-36
-3.333319e-36
-3.354983e-36
-3.384097e-36
-3.316115e-36
-3.407114e-36
-3.36297e-36
-3.415055e-36
-3.306103e-36
-3.316296e-36
-3.28045e-36
-3.362168e-36
-3.430139e-36
-3.31187e-36
-3.379563e-36
-3.395355e-36
-3.3309e-36
-3.582919e-36
-3.937391e-36
-3.980428e-36
-3.714522e-36
-1.063615e-36
-3.949578e-36
-3.27304e-36
-3.839223e-36
-3.246795e-36
-3.24617e-36
-3.319453e-36
-3.321223e-36
-3.361002e-36
-3.39717e-36
-3.308366e-36
-3.387647e-36
-3.326798e-36
-3.330852e-36
-3.387455e-36
-3.291263e-36
-3.385434e-36
-3.411212e-36
-3.32358e-36
-3.317251e-36
-3.583638e-36
-3.945917e-36
-3.995244e-36
-3.567737e-36
-2.999467e-36
-2.387705e-36
-2.514873e-36
-3.492792e-36
-3.86047e-36
-3.252389e-36
-3.196998e-36
-3.274454e-36
-3.281993e-36
-3.328664e-36
-3.34561e-36
-3.383263e-36
-3.333141e-36
-3.333552e-36
-3.358868e-36
-3.384036e-36
-3.314707e-36
-3.313026e-36
-3.28705e-36
-3.516819e-36
-3.937231e-36
-3.995735e-36
-3.599347e-36
-3.642385e-36
-6.280995e-37
-2.562292e-36
-2.84473e-36
-3.463761e-36
-3.836942e-36
-3.364505e-36
-3.591888e-36
-3.225137e-36
-3.276771e-36
-3.248378e-36
-3.289532e-36
-3.300314e-36
-3.298792e-36
-3.293028e-36
-3.272949e-36
-3.252003e-36
-3.5236e-36
-3.691555e-36
-4.014188e-36
-3.980166e-36
-3.564162e-36
-3.644755e-36
-2.898368e-37
-2.267708e-36
-2.099795e-36
-3.71454e-36
-3.670116e-36
-3.839643e-36
-3.367985e-36
-3.712256e-36
-3.756678e-36
-3.798505e-36
-3.813531e-36
-3.818516e-36
-3.811434e-36
-3.790298e-36
-3.785937e-36
-4.012012e-36
-3.907724e-36
-3.782203e-36
-3.716907e-36
-2.992853e-36
-6.141155e-37
-3.031519e-36
-3.052954e-36
-3.375176e-36
-3.797335e-36
-3.872945e-36
-3.892289e-36
-3.917452e-36
-3.9266e-36
-3.931346e-36
-3.924831e-36
-3.907573e-36
-3.87116e-36
-3.892471e-36
-3.55723e-36
-3.594987e-36
-1.061341e-36
-2.138168e-36
-1.966766e-36
-2.989679e-36
-3.59157e-36
-3.348241e-36
-3.566721e-36
-3.602372e-36
-3.61268e-36
-3.589872e-36
-3.518115e-36
-3.566995e-36
-2.925746e-36
-2.978599e-36
-1.943513e-37
-2.032082e-36
-1.706012e-36
-2.664732e-36
-2.803495e-36
-2.828175e-36
-2.774215e-36
-2.538208e-36
9.354991e-38
-5.341708e-36
-2.735347e-36
-3.700263e-36
-3.746199e-36
-3.620166e-36
-2.363177e-36
-5.341714e-36
-2.909862e-36
-3.936035e-36
-3.920693e-36
-2.179022e-36
-2.87367e-36
-3.032248e-36
-3.062241e-36
-3.001932e-36
-2.859225e-36
-4.214574e-36
-3.979572e-36
-3.760957e-36
-2.358398e-36
-5.341695e-36
-3.165712e-36
-2.090617e-36
-2.886903e-36
-2.920038e-36
-1.660617e-36
-2.431313e-36
-2.730143e-36
-2.835758e-36
-2.851328e-36
-2.816281e-36
-2.590241e-36
-2.462773e-36
-3.201167e-36
-3.021593e-36
-2.989924e-36
-3.895981e-36
-2.793954e-36
-5.341773e-36
-1.563754e-36
-2.809134e-36
-1.886992e-36
-2.588133e-36
-2.956049e-36
-3.09066e-36
-3.321987e-36
-3.223727e-36
-3.255442e-36
-3.261417e-36
-3.242211e-36
-3.215658e-36
-3.199267e-36
-2.949582e-36
-2.801394e-36
-2.709398e-36
-3.344986e-36
-2.725979e-36
-2.995782e-36
-5.34182e-36
-1.978603e-36
-3.15739e-36
-2.374168e-36
-2.938604e-36
-3.28951e-36
-3.305319e-36
-3.438824e-36
-3.302865e-36
-3.323231e-36
-3.3411e-36
-3.34499e-36
-3.333044e-36
-3.331344e-36
-3.370303e-36
-3.320905e-36
-3.284592e-36
-3.191034e-36
-3.150422e-36
-3.458193e-36
-3.357112e-36
-3.147361e-36
-5.341821e-36
-1.819117e-36
-1.839559e-36
-2.745661e-36
-3.096816e-36
-3.566754e-36
-3.311397e-36
-3.372316e-36
-3.458843e-36
-3.504214e-36
-3.533404e-36
-3.551094e-36
-3.555602e-36
-3.545966e-36
-3.522993e-36
-3.496999e-36
-3.406965e-36
-3.309872e-36
-3.334365e-36
-3.342797e-36
-2.998821e-36
-2.784713e-36
-3.503618e-36
-3.137943e-36
-5.34182e-36
-1.81646e-36
-2.02793e-36
-2.842793e-36
-3.294158e-36
-3.499228e-36
-3.377526e-36
-3.407225e-36
-3.534323e-36
-3.368229e-36
-3.377146e-36
-3.39616e-36
-3.410285e-36
-3.413759e-36
-3.40646e-36
-3.389895e-36
-3.392208e-36
-3.446345e-36
-3.446439e-36
-3.435844e-36
-3.374519e-36
-3.328311e-36
-3.202968e-36
-2.944554e-36
-3.469718e-36
-3.066042e-36
-5.341773e-36
-1.971254e-36
-1.840583e-36
-2.84217e-36
-3.397978e-36
-3.313643e-36
-3.360424e-36
-3.513288e-36
-3.3587e-36
-3.369736e-36
-3.366383e-36
-3.373014e-36
-3.381482e-36
-3.385624e-36
-3.387596e-36
-3.386239e-36
-3.379378e-36
-3.370849e-36
-3.365492e-36
-3.381016e-36
-3.444404e-36
-3.39246e-36
-3.313829e-36
-3.322482e-36
-3.180398e-36
-3.128416e-36
-3.437845e-36
-2.994848e-36
-5.341694e-36
-1.55241e-36
-3.159369e-36
-2.74124e-36
-3.293371e-36
-3.313574e-36
-3.362549e-36
-3.526985e-36
-3.382233e-36
-3.368175e-36
-3.377325e-36
-3.382883e-36
-3.382759e-36
-3.37762e-36
-3.373663e-36
-3.374112e-36
-3.377705e-36
-3.382033e-36
-3.386899e-36
-3.382047e-36
-3.373661e-36
-3.39067e-36
-3.458775e-36
-3.403132e-36
-3.316174e-36
-3.32286e-36
-3.571626e-36
-3.614454e-36
-3.162487e-36
-2.529611e-36
-3.168191e-36
-2.809405e-36
-2.369498e-36
-3.097492e-36
-3.499178e-36
-3.360197e-36
-3.52759e-36
-3.391605e-36
-3.378521e-36
-3.380745e-36
-3.38852e-36
-3.39143e-36
-3.386111e-36
-3.377998e-36
-3.351818e-36
-3.345179e-36
-3.360026e-36
-3.38198e-36
-3.392748e-36
-3.392773e-36
-3.389118e-36
-3.380766e-36
-3.399771e-36
-3.462451e-36
-3.400788e-36
-3.331159e-36
-3.37102e-36
-3.258374e-36
-3.534678e-36
-2.324938e-36
-5.341713e-36
-2.08984e-36
-1.886932e-36
-2.940632e-36
-3.565019e-36
-3.377193e-36
-3.512612e-36
-3.382053e-36
-3.378529e-36
-3.380872e-36
-3.383489e-36
-3.386862e-36
-3.38925e-36
-3.366971e-36
-3.349936e-36
-3.33211e-36
-3.327428e-36
-3.336902e-36
-3.354682e-36
-3.374841e-36
-3.390035e-36
-3.391857e-36
-3.385604e-36
-3.380148e-36
-3.396648e-36
-3.448802e-36
-3.39741e-36
-3.421231e-36
-3.269834e-36
-3.289564e-36
-3.743342e-36
-2.458053e-36
-2.913157e-36
-2.886847e-36
-2.589513e-36
-3.288459e-36
-3.311444e-36
-3.406921e-36
-3.358173e-36
-3.367813e-36
-3.380712e-36
-3.383454e-36
-3.380973e-36
-3.363675e-36
-3.357004e-36
-3.347518e-36
-3.342158e-36
-3.337511e-36
-3.336117e-36
-3.33815e-36
-3.342924e-36
-3.349897e-36
-3.359551e-36
-3.37407e-36
-3.384264e-36
-3.384286e-36
-3.377738e-36
-3.384883e-36
-3.363584e-36
-3.278243e-36
-3.326576e-36
-3.659773e-36
-3.531654e-36
-2.192473e-36
-3.93378e-36
-2.923912e-36
-2.957862e-36
-3.304832e-36
-3.373293e-36
-3.53375e-36
-3.369123e-36
-3.376915e-36
-3.388452e-36
-3.386641e-36
-3.363535e-36
-3.345101e-36
-3.344842e-36
-3.350797e-36
-3.357885e-36
-3.362177e-36
-3.362887e-36
-3.35994e-36
-3.354006e-36
-3.347298e-36
-3.344833e-36
-3.355051e-36
-3.373453e-36
-3.386244e-36
-3.385511e-36
-3.395892e-36
-3.451265e-36
-3.38345e-36
-3.354881e-36
-3.655425e-36
-3.672007e-36
-3.082873e-36
-3.923744e-36
-1.653783e-36
-3.085854e-36
-3.438774e-36
-3.459599e-36
-3.367719e-36
-3.365984e-36
-3.382517e-36
-3.391055e-36
-3.388859e-36
-3.356779e-36
-3.344759e-36
-3.353803e-36
-3.369647e-36
-3.383696e-36
-3.392175e-36
-3.393854e-36
-3.388565e-36
-3.377177e-36
-3.362084e-36
-3.349065e-36
-3.349191e-36
-3.369728e-36
-3.387943e-36
-3.389303e-36
-3.380978e-36
-3.387632e-36
-3.376018e-36
-3.359992e-36
-3.317747e-36
-3.299332e-36
-3.432274e-36
-5.341706e-36
-2.173397e-36
-2.428366e-36
-3.320282e-36
-3.303044e-36
-3.504498e-36
-3.376651e-36
-3.372542e-36
-3.382566e-36
-3.385713e-36
-3.366641e-36
-3.347344e-36
-3.350721e-36
-3.369624e-36
-3.391244e-36
-3.408534e-36
-3.41869e-36
-3.420735e-36
-3.41449e-36
-3.400697e-36
-3.381239e-36
-3.360776e-36
-3.348707e-36
-3.355834e-36
-3.373014e-36
-3.384174e-36
-3.385228e-36
-3.401947e-36
-3.408963e-36
-3.388495e-36
-3.319061e-36
-3.678439e-36
-3.874801e-36
-2.146268e-36
-2.739256e-36
-2.872196e-36
-2.730874e-36
-3.22467e-36
-3.324114e-36
-3.533654e-36
-3.395771e-36
-3.380871e-36
-3.377283e-36
-3.377659e-36
-3.349697e-36
-3.342041e-36
-3.357809e-36
-3.38364e-36
-3.408489e-36
-3.427483e-36
-3.438523e-36
-3.440768e-36
-3.433984e-36
-3.418902e-36
-3.39704e-36
-3.371684e-36
-3.350084e-36
-3.344467e-36
-3.360855e-36
-3.377488e-36
-3.385655e-36
-3.41686e-36
-3.43432e-36
-3.388556e-36
-3.270511e-36
-3.734236e-36
-3.536121e-36
-2.035407e-36
-3.695803e-36
-3.034202e-36
-2.839431e-36
-3.257617e-36
-3.342208e-36
-3.551547e-36
-3.41042e-36
-3.385541e-36
-3.373563e-36
-3.351732e-36
-3.332071e-36
-3.337479e-36
-3.362116e-36
-3.392105e-36
-3.418611e-36
-3.438457e-36
-3.449578e-36
-3.45189e-36
-3.445016e-36
-3.42953e-36
-3.406469e-36
-3.378584e-36
-3.351484e-36
-3.335972e-36
-3.342067e-36
-3.361416e-36
-3.381668e-36
-3.425014e-36
-3.449691e-36
-3.404017e-36
-3.292842e-36
-3.76452e-36
-3.692199e-36
-2.815845e-36
-3.744824e-36
-3.062754e-36
-2.852579e-36
-3.262262e-36
-3.345745e-36
-3.556306e-36
-3.414475e-36
-3.388167e-36
-3.374519e-36
-3.345425e-36
-3.327553e-36
-3.336163e-36
-3.362871e-36
-3.393798e-36
-3.420647e-36
-3.440649e-36
-3.451773e-36
-3.454109e-36
-3.447226e-36
-3.431744e-36
-3.408563e-36
-3.380413e-36
-3.352437e-36
-3.33431e-36
-3.339058e-36
-3.357234e-36
-3.38033e-36
-3.426526e-36
-3.452425e-36
-3.406838e-36
-3.297443e-36
-3.769765e-36
-3.701173e-36
-2.859678e-36
-3.623757e-36
-2.999532e-36
-2.813793e-36
-3.241477e-36
-3.333308e-36
-3.546799e-36
-3.407506e-36
-3.386941e-36
-3.378068e-36
-3.360363e-36
-3.337077e-36
-3.33822e-36
-3.359932e-36
-3.38852e-36
-3.414413e-36
-3.433867e-36
-3.444886e-36
-3.447165e-36
-3.440494e-36
-3.425373e-36
-3.403185e-36
-3.377014e-36
-3.352867e-36
-3.34208e-36
-3.34673e-36
-3.367996e-36
-3.381073e-36
-3.420749e-36
-3.442093e-36
-3.397118e-36
-3.284525e-36
-3.748677e-36
-3.658515e-36
-2.695628e-36
-2.384295e-36
-2.861801e-36
-2.58899e-36
-3.212957e-36
-3.330628e-36
-3.523673e-36
-3.390897e-36
-3.379744e-36
-3.38215e-36
-3.382194e-36
-3.354831e-36
-3.342982e-36
-3.353997e-36
-3.377143e-36
-3.400629e-36
-3.418783e-36
-3.429381e-36
-3.431629e-36
-3.425307e-36
-3.411213e-36
-3.391163e-36
-3.369052e-36
-3.352281e-36
-3.35366e-36
-3.366998e-36
-3.376841e-36
-3.382092e-36
-3.408237e-36
-3.419782e-36
-3.379167e-36
-3.281454e-36
-3.734474e-36
-3.753592e-36
-4.051782e-37
-4.212321e-36
-2.468041e-36
-3.196974e-36
-3.368653e-36
-3.497307e-36
-3.39306e-36
-3.370953e-36
-3.387113e-36
-3.392848e-36
-3.374906e-36
-3.349914e-36
-3.347288e-36
-3.362054e-36
-3.381158e-36
-3.396892e-36
-3.406242e-36
-3.408322e-36
-3.403022e-36
-3.391085e-36
-3.374637e-36
-3.358606e-36
-3.353389e-36
-3.361191e-36
-3.382095e-36
-3.385727e-36
-3.384399e-36
-3.409772e-36
-3.399274e-36
-3.376534e-36
-3.566825e-36
-3.945381e-36
-3.326426e-36
-3.979585e-36
-3.205483e-36
-2.952505e-36
-3.318533e-36
-3.406683e-36
-3.447075e-36
-3.365693e-36
-3.38252e-36
-3.392919e-36
-3.390018e-36
-3.359514e-36
-3.344808e-36
-3.349026e-36
-3.360678e-36
-3.37148e-36
-3.378235e-36
-3.379933e-36
-3.376715e-36
-3.3689e-36
-3.358546e-36
-3.350404e-36
-3.356454e-36
-3.373172e-36
-3.385376e-36
-3.387216e-36
-3.398014e-36
-3.342714e-36
-3.409232e-36
-3.371097e-36
-3.692568e-36
-3.80471e-36
-3.210821e-36
-3.764016e-36
-3.019607e-36
-2.801251e-36
-3.285336e-36
-3.309593e-36
-3.44679e-36
-3.38104e-36
-3.374271e-36
-3.38945e-36
-3.391818e-36
-3.373916e-36
-3.354954e-36
-3.34914e-36
-3.348604e-36
-3.349849e-36
-3.351014e-36
-3.351774e-36
-3.352491e-36
-3.352104e-36
-3.353291e-36
-3.356381e-36
-3.362032e-36
-3.380469e-36
-3.385735e-36
-3.38606e-36
-3.407483e-36
-3.382414e-36
-3.261422e-36
-3.360445e-36
-3.753464e-36
-3.56225e-36
-2.965356e-36
-2.372248e-36
-2.986196e-36
-2.706545e-36
-3.193824e-36
-3.334757e-36
-3.436991e-36
-3.444574e-36
-3.391249e-36
-3.381108e-36
-3.385599e-36
-3.384013e-36
-3.373327e-36
-3.369676e-36
-3.355724e-36
-3.344232e-36
-3.335543e-36
-3.333669e-36
-3.341729e-36
-3.353542e-36
-3.361134e-36
-3.373028e-36
-3.380301e-36
-3.380412e-36
-3.383552e-36