/*--------------------------------*- C++ -*----------------------------------*\
  =========                 |
  \\      /  F ield         | OpenFOAM: The Open Source CFD Toolbox
   \\    /   O peration     | Website:  https://openfoam.org
    \\  /    A nd           | Version:  6
     \\/     M anipulation  |
\*---------------------------------------------------------------------------*/
FoamFile
{
    version     2.0;
    format      ascii;
    class       volScalarField;
    location    "50/region0/neutronTransport";
    object      discFlux4;
}
// * * * * * * * * * * * * * * * * * * * * * * * * * * * * * * * * * * * * * //

dimensions      [0 -2 -1 0 0 0 0];

internalField   nonuniform List<scalar> 
203709
(
4.893693e+10
5.576591e+10
5.576054e+10
4.895866e+10
5.140935e+10
5.965438e+10
8.053921e+10
7.872484e+10
7.871623e+10
8.054479e+10
5.966063e+10
5.142311e+10
5.013016e+10
5.994837e+10
8.139758e+10
7.992017e+10
8.232979e+10
8.286569e+10
8.28643e+10
8.23297e+10
7.991849e+10
8.139991e+10
5.994909e+10
5.01312e+10
5.013729e+10
7.919532e+10
7.967863e+10
8.277515e+10
8.432154e+10
8.578855e+10
8.642373e+10
8.642763e+10
8.578276e+10
8.431085e+10
8.276704e+10
7.966989e+10
7.919106e+10
5.013262e+10
5.995145e+10
7.967891e+10
8.322856e+10
8.575462e+10
8.772375e+10
8.91679e+10
8.988353e+10
8.988481e+10
8.915652e+10
8.770879e+10
8.574008e+10
8.321e+10
7.966021e+10
5.993542e+10
5.141478e+10
8.139876e+10
8.278011e+10
8.575578e+10
8.84423e+10
9.058259e+10
9.207444e+10
9.280861e+10
9.280612e+10
9.206609e+10
9.057292e+10
8.84234e+10
8.573382e+10
8.276026e+10
8.138245e+10
5.139835e+10
5.964831e+10
7.991429e+10
8.43199e+10
8.771835e+10
9.05803e+10
9.281168e+10
9.42913e+10
9.4975e+10
9.497365e+10
9.4291e+10
9.280229e+10
9.056169e+10
8.770183e+10
8.430176e+10
7.989245e+10
5.963251e+10
4.894355e+10
8.053923e+10
8.233315e+10
8.579319e+10
8.917259e+10
9.207261e+10
9.429034e+10
9.563087e+10
9.629819e+10
9.630005e+10
9.563561e+10
9.428478e+10
9.206267e+10
8.915588e+10
8.576995e+10
8.230714e+10
8.052197e+10
4.891269e+10
5.574513e+10
7.870611e+10
8.285922e+10
8.643224e+10
8.989118e+10
9.280793e+10
9.497647e+10
9.630056e+10
9.704971e+10
9.702328e+10
9.630252e+10
9.498086e+10
9.280965e+10
8.987875e+10
8.640806e+10
8.283756e+10
7.868132e+10
5.572098e+10
5.575311e+10
7.872538e+10
8.286576e+10
8.642822e+10
8.988917e+10
9.281064e+10
9.497658e+10
9.630333e+10
9.70767e+10
9.704799e+10
9.630673e+10
9.498156e+10
9.280753e+10
8.988102e+10
8.640997e+10
8.283815e+10
7.869309e+10
5.573317e+10
4.892781e+10
8.055213e+10
8.233599e+10
8.579397e+10
8.917495e+10
9.207945e+10
9.430018e+10
9.56463e+10
9.631852e+10
9.630995e+10
9.564361e+10
9.429742e+10
9.206947e+10
8.915903e+10
8.576945e+10
8.230329e+10
8.05063e+10
4.891378e+10
5.964416e+10
7.991759e+10
8.432859e+10
8.773416e+10
9.059465e+10
9.283015e+10
9.431135e+10
9.500215e+10
9.498801e+10
9.430384e+10
9.28117e+10
9.056952e+10
8.770009e+10
8.428838e+10
7.98795e+10
5.962035e+10
5.141516e+10
8.14094e+10
8.278839e+10
8.577166e+10
8.845967e+10
9.060762e+10
9.209357e+10
9.283603e+10
9.282187e+10
9.207915e+10
9.057566e+10
8.842112e+10
8.572664e+10
8.274152e+10
8.136034e+10
5.138336e+10
5.996084e+10
7.969455e+10
8.325188e+10
8.57828e+10
8.775176e+10
8.919528e+10
8.995656e+10
8.994241e+10
8.916305e+10
8.770526e+10
8.572612e+10
8.319205e+10
7.964356e+10
5.992e+10
5.015428e+10
7.923059e+10
7.970411e+10
8.280269e+10
8.433881e+10
8.580027e+10
8.647171e+10
8.645994e+10
8.576687e+10
8.428906e+10
8.273677e+10
7.963001e+10
7.915622e+10
5.009669e+10
5.015009e+10
5.996202e+10
8.141212e+10
7.991105e+10
8.232106e+10
8.286966e+10
8.2869e+10
8.229469e+10
7.987654e+10
8.135302e+10
5.989912e+10
5.009376e+10
5.140196e+10
5.962943e+10
8.051765e+10
7.872813e+10
7.873702e+10
8.049874e+10
5.960614e+10
5.137071e+10
4.890805e+10
5.571591e+10
5.571917e+10
4.89026e+10
4.067722e+10
4.793093e+10
5.00152e+10
5.144818e+10
5.235721e+10
5.236175e+10
5.146243e+10
5.003837e+10
4.796363e+10
4.071775e+10
4.166596e+10
5.042867e+10
7.014384e+10
7.173893e+10
7.445612e+10
7.797949e+10
8.081644e+10
8.082317e+10
7.80055e+10
7.447826e+10
7.175019e+10
7.01511e+10
5.043714e+10
4.168207e+10
4.254196e+10
6.878714e+10
7.185509e+10
7.780246e+10
8.406538e+10
8.946747e+10
9.868774e+10
1.056845e+11
1.0569e+11
9.870893e+10
8.94718e+10
8.40648e+10
7.781925e+10
7.187672e+10
6.882713e+10
4.257769e+10
4.295156e+10
6.996491e+10
7.587972e+10
8.361331e+10
9.203771e+10
1.072134e+11
1.272454e+11
1.567769e+11
1.65004e+11
1.650068e+11
1.567662e+11
1.272507e+11
1.072348e+11
9.207057e+10
8.364854e+10
7.591717e+10
6.99925e+10
4.2987e+10
4.253564e+10
6.995177e+10
7.667677e+10
8.581385e+10
1.047751e+11
1.292367e+11
1.658692e+11
1.872972e+11
2.033451e+11
2.284749e+11
2.284738e+11
2.033568e+11
1.873079e+11
1.658707e+11
1.292671e+11
1.047967e+11
8.584984e+10
7.670435e+10
6.997542e+10
4.256517e+10
4.166159e+10
6.879668e+10
7.587707e+10
8.582137e+10
1.134318e+11
1.600853e+11
1.870847e+11
2.094564e+11
2.450851e+11
2.608138e+11
2.7015e+11
2.701469e+11
2.608067e+11
2.450741e+11
2.094505e+11
1.870753e+11
1.600598e+11
1.134274e+11
8.581691e+10
7.588475e+10
6.88115e+10
4.168277e+10
5.039868e+10
7.183726e+10
8.360556e+10
1.047789e+11
1.600845e+11
1.986672e+11
2.409671e+11
2.639254e+11
2.81862e+11
2.928403e+11
2.984391e+11
2.98433e+11
2.928206e+11
2.818367e+11
2.638937e+11
2.409235e+11
1.986213e+11
1.600426e+11
1.047498e+11
8.360303e+10
7.184768e+10
5.041531e+10
4.06768e+10
7.011159e+10
7.777329e+10
9.203105e+10
1.292325e+11
1.871153e+11
2.409809e+11
2.722732e+11
2.920891e+11
3.056819e+11
3.142545e+11
3.184761e+11
3.184679e+11
3.142274e+11
3.056454e+11
2.920423e+11
2.722149e+11
2.409214e+11
1.870714e+11
1.292196e+11
9.203269e+10
7.777426e+10
7.011252e+10
4.067397e+10
4.792306e+10
7.172912e+10
8.403513e+10
1.072209e+11
1.659158e+11
2.095098e+11
2.639609e+11
2.921072e+11
3.099011e+11
3.217607e+11
3.292021e+11
3.328155e+11
3.328066e+11
3.291757e+11
3.217211e+11
3.098455e+11
2.920387e+11
2.638873e+11
2.094478e+11
1.6587e+11
1.071795e+11
8.402635e+10
7.171825e+10
4.791464e+10
5.0001e+10
7.445319e+10
8.94372e+10
1.272196e+11
1.873557e+11
2.45144e+11
2.819111e+11
3.057166e+11
3.217812e+11
3.326804e+11
3.395512e+11
3.429014e+11
3.428928e+11
3.395277e+11
3.326387e+11
3.217219e+11
3.056463e+11
2.818307e+11
2.450537e+11
1.872507e+11
1.271989e+11
8.943596e+10
7.442924e+10
4.9989e+10
5.142563e+10
7.797607e+10
9.869081e+10
1.568036e+11
2.034115e+11
2.608877e+11
2.929058e+11
3.14311e+11
3.292471e+11
3.395781e+11
3.461078e+11
3.493011e+11
3.492892e+11
3.460813e+11
3.39533e+11
3.29189e+11
3.142449e+11
2.928302e+11
2.608015e+11
2.033248e+11
1.567619e+11
9.865318e+10
7.794788e+10
5.141911e+10
5.232266e+10
8.078509e+10
1.056598e+11
1.650313e+11
2.285365e+11
2.702269e+11
2.985205e+11
3.185546e+11
3.328841e+11
3.429558e+11
3.493332e+11
3.524695e+11
3.524421e+11
3.493e+11
3.42914e+11
3.328332e+11
3.18494e+11
2.984512e+11
2.701533e+11
2.28465e+11
1.649892e+11
1.056391e+11
8.077367e+10
5.231984e+10
5.23147e+10
8.076594e+10
1.056353e+11
1.650109e+11
2.285348e+11
2.702337e+11
2.985301e+11
3.185668e+11
3.328992e+11
3.429719e+11
3.493549e+11
3.525053e+11
3.524763e+11
3.493226e+11
3.429319e+11
3.328482e+11
3.185074e+11
2.984642e+11
2.701682e+11
2.284772e+11
1.649736e+11
1.056171e+11
8.075611e+10
5.230932e+10
5.140685e+10
7.795468e+10
9.868739e+10
1.568127e+11
2.033951e+11
2.609009e+11
2.929358e+11
3.143508e+11
3.292946e+11
3.396326e+11
3.461722e+11
3.493767e+11
3.493571e+11
3.461397e+11
3.395873e+11
3.292371e+11
3.142864e+11
2.928688e+11
2.60841e+11
2.033575e+11
1.567725e+11
9.866315e+10
7.794359e+10
5.13991e+10
4.999187e+10
7.445397e+10
8.946554e+10
1.272485e+11
1.873592e+11
2.451775e+11
2.819666e+11
3.057891e+11
3.218652e+11
3.327763e+11
3.39657e+11
3.430174e+11
3.429971e+11
3.39621e+11
3.327199e+11
3.217933e+11
3.057106e+11
2.818894e+11
2.451098e+11
1.873182e+11
1.271865e+11
8.941669e+10
7.443715e+10
4.998124e+10
4.792722e+10
7.175045e+10
8.407332e+10
1.072335e+11
1.659691e+11
2.095762e+11
2.640484e+11
2.922104e+11
3.100172e+11
3.218923e+11
3.293421e+11
3.329591e+11
3.329375e+11
3.292994e+11
3.218255e+11
3.099324e+11
2.921167e+11
2.639524e+11
2.094769e+11
1.658799e+11
1.071844e+11
8.401581e+10
7.172021e+10
4.791025e+10
4.068621e+10
7.01525e+10
7.781728e+10
9.206051e+10
1.293006e+11
1.872028e+11
2.410959e+11
2.724044e+11
2.922354e+11
3.058395e+11
3.144191e+11
3.186235e+11
3.186017e+11
3.143657e+11
3.057603e+11
2.92136e+11
2.722953e+11
2.409824e+11
1.87085e+11
1.291981e+11
9.199958e+10
7.77535e+10
7.01055e+10
4.066868e+10
5.044467e+10
7.187716e+10
8.364051e+10
1.048265e+11
1.601822e+11
1.987827e+11
2.411088e+11
2.640856e+11
2.820272e+11
2.930081e+11
2.985695e+11
2.985501e+11
2.929519e+11
2.819431e+11
2.639792e+11
2.40996e+11
1.986697e+11
1.600614e+11
1.047318e+11
8.357987e+10
7.181383e+10
5.038414e+10
4.169813e+10
6.882318e+10
7.591143e+10
8.58575e+10
1.134895e+11
1.601779e+11
1.872127e+11
2.096086e+11
2.452358e+11
2.609699e+11
2.70271e+11
2.702613e+11
2.609219e+11
2.451591e+11
2.095057e+11
1.871163e+11
1.600847e+11
1.13393e+11
8.5776e+10
7.585292e+10
6.876889e+10
4.163592e+10
4.256735e+10
7.000911e+10
7.672056e+10
8.583837e+10
1.047955e+11
1.292775e+11
1.659824e+11
1.874056e+11
2.034453e+11
2.285463e+11
2.285469e+11
2.034148e+11
1.873414e+11
1.658883e+11
1.292055e+11
1.047302e+11
8.577239e+10
7.665475e+10
6.995164e+10
4.251922e+10
4.29778e+10
6.999095e+10
7.589063e+10
8.362378e+10
9.204167e+10
1.071878e+11
1.272222e+11
1.568239e+11
1.650279e+11
1.650238e+11
1.567828e+11
1.271803e+11
1.071603e+11
9.198704e+10
8.356499e+10
7.583655e+10
6.994315e+10
4.294388e+10
4.253467e+10
6.879765e+10
7.184326e+10
7.776594e+10
8.401041e+10
8.94287e+10
9.866372e+10
1.056336e+11
1.05629e+11
9.864676e+10
8.939314e+10
8.399387e+10
7.775262e+10
7.181606e+10
6.876087e+10
4.251178e+10
4.166613e+10
5.040343e+10
7.010978e+10
7.171633e+10
7.443485e+10
7.794761e+10
8.077496e+10
8.077546e+10
7.794337e+10
7.441877e+10
7.16954e+10
7.011273e+10
5.04029e+10
4.165705e+10
4.065184e+10
4.789396e+10
4.996689e+10
5.139086e+10
5.22985e+10
5.229897e+10
5.140485e+10
4.998299e+10
4.790581e+10
4.065431e+10
3.424997e+10
4.031049e+10
4.156356e+10
4.2023e+10
4.20167e+10
4.154414e+10
4.027102e+10
3.423352e+10
3.421723e+10
4.289201e+10
4.758617e+10
6.573212e+10
6.787763e+10
6.928566e+10
6.992433e+10
6.99183e+10
6.926481e+10
6.784377e+10
6.573684e+10
4.761305e+10
4.292876e+10
3.427453e+10
3.796975e+10
6.340473e+10
6.971044e+10
7.977632e+10
8.998441e+10
9.428783e+10
9.69005e+10
9.810214e+10
9.809699e+10
9.688523e+10
9.426468e+10
8.996579e+10
7.978745e+10
6.973447e+10
6.344139e+10
3.803027e+10
3.554184e+10
4.615748e+10
6.833295e+10
8.558992e+10
1.061306e+11
1.377526e+11
1.501755e+11
1.566301e+11
1.607994e+11
1.629301e+11
1.629178e+11
1.607645e+11
1.565776e+11
1.501133e+11
1.376993e+11
1.061275e+11
8.562576e+10
6.834898e+10
4.61896e+10
3.556347e+10
3.58212e+10
6.164895e+10
7.264906e+10
9.839603e+10
1.406462e+11
1.660116e+11
1.872615e+11
2.202908e+11
2.353138e+11
2.440901e+11
2.483799e+11
2.483673e+11
2.440583e+11
2.352734e+11
2.202574e+11
1.87266e+11
1.660238e+11
1.406447e+11
9.839893e+10
7.268496e+10
6.165634e+10
3.583405e+10
3.554235e+10
6.166519e+10
7.538014e+10
1.029859e+11
1.528787e+11
1.85205e+11
2.27637e+11
2.546213e+11
2.781277e+11
2.956856e+11
3.080272e+11
3.140511e+11
3.140389e+11
3.080016e+11
2.956377e+11
2.780672e+11
2.54569e+11
2.275828e+11
1.851615e+11
1.528541e+11
1.030121e+11
7.538541e+10
6.166036e+10
3.55545e+10
4.617377e+10
7.266011e+10
1.029951e+11
1.555387e+11
1.921529e+11
2.42167e+11
2.783757e+11
3.078651e+11
3.336276e+11
3.548141e+11
3.714993e+11
3.780892e+11
3.780754e+11
3.714572e+11
3.547551e+11
3.33569e+11
3.078156e+11
2.783219e+11
2.421173e+11
1.921085e+11
1.554803e+11
1.029925e+11
7.267359e+10
4.618722e+10
3.800836e+10
6.832401e+10
9.83759e+10
1.529071e+11
1.921443e+11
2.465207e+11
2.896087e+11
3.277376e+11
3.609057e+11
3.905075e+11
4.119968e+11
4.274504e+11
4.362647e+11
4.362523e+11
4.274147e+11
4.11943e+11
3.904444e+11
3.608409e+11
3.276685e+11
2.895557e+11
2.46468e+11
1.921099e+11
1.528718e+11
9.838437e+10
6.833576e+10
3.80065e+10
3.422127e+10
6.340948e+10
8.55809e+10
1.406343e+11
1.852545e+11
2.422126e+11
2.896344e+11
3.351954e+11
3.779696e+11
4.119481e+11
4.400382e+11
4.633017e+11
4.796471e+11
4.884829e+11
4.884696e+11
4.796087e+11
4.632445e+11
4.399681e+11
4.118609e+11
3.77873e+11
3.351109e+11
2.895502e+11
2.421377e+11
1.85197e+11
1.405718e+11
8.559738e+10
6.341381e+10
3.421436e+10
4.290281e+10
6.970721e+10
1.060961e+11
1.660511e+11
2.276779e+11
2.78431e+11
3.277655e+11
3.779772e+11
4.200149e+11
4.564675e+11
4.857685e+11
5.084709e+11
5.236971e+11
5.314705e+11
5.314544e+11
5.236518e+11
5.084048e+11
4.856842e+11
4.563642e+11
4.199021e+11
3.778654e+11
3.276582e+11
2.783419e+11
2.276031e+11
1.659615e+11
1.061067e+11
6.972171e+10
4.28985e+10
4.757751e+10
7.973892e+10
1.376729e+11
1.87328e+11
2.54671e+11
3.079243e+11
3.609389e+11
4.119811e+11
4.564888e+11
4.940815e+11
5.230629e+11
5.443629e+11
5.583558e+11
5.653287e+11
5.653109e+11
5.583052e+11
5.442879e+11
5.229673e+11
4.939682e+11
4.563672e+11
4.118627e+11
3.608338e+11
3.078343e+11
2.546002e+11
1.872538e+11
1.377183e+11
7.97727e+10
4.758528e+10
3.423973e+10
6.571442e+10
8.991241e+10
1.501072e+11
2.203358e+11
2.781855e+11
3.336941e+11
3.905832e+11
4.401134e+11
4.858248e+11
5.230941e+11
5.512339e+11
5.714476e+11
5.845582e+11
5.910206e+11
5.91003e+11
5.845073e+11
5.713693e+11
5.511324e+11
5.229735e+11
4.856927e+11
4.399816e+11
3.904638e+11
3.335896e+11
2.78108e+11
2.202741e+11
1.501521e+11
8.995792e+10
6.570993e+10
3.423851e+10
4.025992e+10
6.782397e+10
9.423482e+10
1.565993e+11
2.353591e+11
2.957552e+11
3.548792e+11
4.120932e+11
4.634039e+11
5.0856e+11
5.444297e+11
5.714855e+11
5.908638e+11
6.033987e+11
6.095681e+11
6.095509e+11
6.033494e+11
5.907859e+11
5.713844e+11
5.443101e+11
5.084265e+11
4.632645e+11
4.11964e+11
3.547922e+11
2.956773e+11
2.35302e+11
1.566138e+11
9.425376e+10
6.784136e+10
4.027763e+10
4.152824e+10
6.924192e+10
9.685909e+10
1.608041e+11
2.441539e+11
3.081245e+11
3.716041e+11
4.275738e+11
4.797786e+11
5.238203e+11
5.584627e+11
5.846414e+11
6.034462e+11
6.156173e+11
6.216043e+11
6.215848e+11
6.155656e+11
6.033672e+11
5.845424e+11
5.5835e+11
5.23696e+11
4.796479e+11
4.274535e+11
3.715112e+11
3.080366e+11
2.44094e+11
1.607907e+11
9.686578e+10
6.92508e+10
4.153351e+10
4.200735e+10
6.990782e+10
9.808363e+10
1.629686e+11
2.484662e+11
3.141583e+11
3.78217e+11
4.364116e+11
4.886429e+11
5.316312e+11
5.654801e+11
5.911518e+11
6.096674e+11
6.2166e+11
6.27559e+11
6.275344e+11
6.216046e+11
6.095892e+11
5.91057e+11
5.653733e+11
5.315157e+11
4.885244e+11
4.363011e+11
3.781261e+11
3.140794e+11
2.484022e+11
1.629339e+11
9.806952e+10
6.989458e+10
4.200129e+10
4.201293e+10
6.9916e+10
9.809311e+10
1.629864e+11
2.484784e+11
3.141647e+11
3.782251e+11
4.364237e+11
4.886617e+11
5.316563e+11
5.655104e+11
5.911864e+11
6.097052e+11
6.217017e+11
6.276055e+11
6.275795e+11
6.216445e+11
6.096253e+11
5.9109e+11
5.654037e+11
5.315444e+11
4.885518e+11
4.363219e+11
3.781345e+11
3.140861e+11
2.484084e+11
1.629331e+11
9.806506e+10
6.989131e+10
4.200097e+10
4.15522e+10
6.927671e+10
9.689386e+10
1.608583e+11
2.441923e+11
3.081668e+11
3.716606e+11
4.276224e+11
4.798386e+11
5.238978e+11
5.585555e+11
5.847463e+11
6.035615e+11
6.157416e+11
6.217346e+11
6.217096e+11
6.156807e+11
6.034737e+11
5.84641e+11
5.584419e+11
5.237831e+11
4.797297e+11
4.275212e+11
3.715602e+11
3.080814e+11
2.441109e+11
1.607736e+11
9.684992e+10
6.924186e+10
4.153358e+10
4.030687e+10
6.788093e+10
9.429126e+10
1.566949e+11
2.354273e+11
2.958404e+11
3.5499e+11
4.121991e+11
4.635191e+11
5.086963e+11
5.445886e+11
5.716641e+11
5.910581e+11
6.036037e+11
6.097769e+11
6.097503e+11
6.03536e+11
5.909577e+11
5.715433e+11
5.444601e+11
5.08569e+11
4.633973e+11
4.120828e+11
3.548699e+11
2.957388e+11
2.353293e+11
1.565661e+11
9.422724e+10
6.783606e+10
4.028178e+10
3.428798e+10
6.576644e+10
9.000963e+10
1.502608e+11
2.204309e+11
2.783123e+11
3.338275e+11
3.907434e+11
4.402914e+11
4.860258e+11
5.233187e+11
5.514807e+11
5.717127e+11
5.848321e+11
5.912905e+11
5.912614e+11
5.847561e+11
5.715997e+11
5.513438e+11
5.231717e+11
4.858771e+11
4.401457e+11
3.906115e+11
3.337167e+11
2.78198e+11
2.20328e+11
1.500918e+11
8.993007e+10
6.572808e+10
3.426101e+10
4.762406e+10
7.983411e+10
1.378581e+11
1.874175e+11
2.548296e+11
3.080784e+11
3.611376e+11
4.1221e+11
4.567419e+11
4.94359e+11
5.233642e+11
5.446803e+11
5.586755e+11
5.656265e+11
5.655959e+11
5.585922e+11
5.445565e+11
5.232146e+11
4.941981e+11
4.565773e+11
4.120475e+11
3.610015e+11
3.079639e+11
2.546978e+11
1.873383e+11
1.376699e+11
7.974366e+10
4.758472e+10
4.292411e+10
6.977579e+10
1.062247e+11
1.661746e+11
2.278568e+11
2.785954e+11
3.279642e+11
3.782237e+11
4.202884e+11
4.56771e+11
4.861006e+11
5.08815e+11
5.240363e+11
5.317736e+11
5.317442e+11
5.239522e+11
5.086884e+11
4.859486e+11
4.566125e+11
4.201292e+11
3.780665e+11
3.278336e+11
2.784713e+11
2.277108e+11
1.660969e+11
1.060973e+11
6.970714e+10
4.290503e+10
3.422323e+10
6.34849e+10
8.56852e+10
1.407658e+11
1.854087e+11
2.423716e+11
2.898222e+11
3.354276e+11
3.782344e+11
4.122498e+11
4.403753e+11
4.636444e+11
4.799825e+11
4.887843e+11
4.887612e+11
4.799079e+11
4.635267e+11
4.40233e+11
4.121106e+11
3.780989e+11
3.352973e+11
2.897066e+11
2.422534e+11
1.852604e+11
1.406945e+11
8.5581e+10
6.340789e+10
3.422776e+10
3.800668e+10
6.839137e+10
9.846744e+10
1.529997e+11
1.92297e+11
2.466978e+11
2.898224e+11
3.279721e+11
3.611695e+11
3.908117e+11
4.123061e+11
4.27751e+11
4.365361e+11
4.365212e+11
4.276945e+11
4.122093e+11
3.906943e+11
3.610608e+11
3.278667e+11
2.897213e+11
2.466093e+11
1.9222e+11
1.529365e+11
9.840156e+10
6.832775e+10
3.798748e+10
4.619375e+10
7.271488e+10
1.03067e+11
1.556502e+11
1.922755e+11
2.423671e+11
2.78604e+11
3.081065e+11
3.338646e+11
3.550587e+11
3.717631e+11
3.783429e+11
3.783297e+11
3.717191e+11
3.549936e+11
3.337941e+11
3.080222e+11
2.785203e+11
2.422919e+11
1.922193e+11
1.55591e+11
1.030059e+11
7.265975e+10
4.615909e+10
3.557316e+10
6.17084e+10
7.542661e+10
1.030507e+11
1.530217e+11
1.853877e+11
2.278132e+11
2.548162e+11
2.783271e+11
2.958904e+11
3.082408e+11
3.142519e+11
3.142426e+11
3.082239e+11
2.958547e+11
2.782826e+11
2.547764e+11
2.277916e+11
1.853566e+11
1.529814e+11
1.030163e+11
7.539063e+10
6.167024e+10
3.554697e+10
3.583365e+10
6.170537e+10
7.270939e+10
9.842365e+10
1.406908e+11
1.660805e+11
1.873897e+11
2.204137e+11
2.354268e+11
2.442103e+11
2.484967e+11
2.484892e+11
2.442227e+11
2.35448e+11
2.204265e+11
1.873823e+11
1.661141e+11
1.407251e+11
9.843017e+10
7.269267e+10
6.168546e+10
3.582239e+10
3.556445e+10
4.619327e+10
6.834354e+10
8.561647e+10
1.061171e+11
1.377506e+11
1.501475e+11
1.565911e+11
1.607855e+11
1.630161e+11
1.629933e+11
1.608371e+11
1.566699e+11
1.502254e+11
1.378172e+11
1.061643e+11
8.563183e+10
6.835689e+10
4.618123e+10
3.556305e+10
3.798493e+10
6.341676e+10
6.971241e+10
7.97566e+10
8.992337e+10
9.420941e+10
9.682765e+10
9.806529e+10
9.804017e+10
9.684987e+10
9.42382e+10
8.995176e+10
7.977107e+10
6.971168e+10
6.344137e+10
3.798637e+10
3.419614e+10
4.289562e+10
4.757479e+10
6.571281e+10
6.781554e+10
6.922182e+10
6.992381e+10
6.991535e+10
6.922385e+10
6.781433e+10
6.572389e+10
4.757448e+10
4.288297e+10
3.42159e+10
3.42492e+10
4.026107e+10
4.151073e+10
4.199918e+10
4.19954e+10
4.150579e+10
4.024935e+10
3.422016e+10
3.047791e+10
3.561291e+10
3.662186e+10
3.661344e+10
3.55836e+10
3.047182e+10
2.899751e+10
3.802271e+10
4.337563e+10
5.098885e+10
6.987169e+10
7.319029e+10
7.440754e+10
7.438166e+10
7.312617e+10
6.980027e+10
5.101395e+10
4.342344e+10
3.806315e+10
2.905342e+10
2.9239e+10
4.029411e+10
6.407277e+10
7.754645e+10
9.088385e+10
1.17406e+11
1.290753e+11
1.333532e+11
1.353882e+11
1.353458e+11
1.332487e+11
1.289904e+11
1.174102e+11
9.090231e+10
7.754916e+10
6.411074e+10
4.035744e+10
2.931233e+10
3.310544e+10
5.999849e+10
8.139908e+10
1.191945e+11
1.376417e+11
1.559025e+11
1.730574e+11
2.012159e+11
2.117937e+11
2.159499e+11
2.159096e+11
2.116888e+11
2.010941e+11
1.729649e+11
1.558052e+11
1.375719e+11
1.190929e+11
8.144807e+10
6.003755e+10
3.317231e+10
3.598978e+10
6.932816e+10
9.678969e+10
1.396927e+11
1.698747e+11
2.101152e+11
2.362644e+11
2.561177e+11
2.726974e+11
2.827871e+11
2.874099e+11
2.873719e+11
2.826834e+11
2.725586e+11
2.55984e+11
2.361595e+11
2.100431e+11
1.69822e+11
1.396082e+11
9.681478e+10
6.933474e+10
3.602154e+10
3.773755e+10
7.789095e+10
1.240226e+11
1.55685e+11
1.878355e+11
2.410942e+11
2.792167e+11
3.104703e+11
3.318144e+11
3.477129e+11
3.579365e+11
3.628671e+11
3.628307e+11
3.578352e+11
3.475686e+11
3.316544e+11
3.103147e+11
2.790906e+11
2.410222e+11
1.877869e+11
1.55591e+11
1.239411e+11
7.785624e+10
3.773905e+10
3.600389e+10
7.79045e+10
1.309706e+11
1.684818e+11
2.213522e+11
2.658092e+11
3.115404e+11
3.488295e+11
3.797938e+11
4.056077e+11
4.244683e+11
4.364782e+11
4.422959e+11
4.422628e+11
4.363877e+11
4.24342e+11
4.054708e+11
3.796623e+11
3.487012e+11
3.114211e+11
2.656805e+11
2.212257e+11
1.683645e+11
1.308103e+11
7.785948e+10
3.600287e+10
3.313058e+10
6.934054e+10
1.240788e+11
1.684856e+11
2.278343e+11
2.805182e+11
3.308061e+11
3.745706e+11
4.14996e+11
4.491855e+11
4.772576e+11
4.980606e+11
5.116562e+11
5.182777e+11
5.182485e+11
5.115771e+11
4.979438e+11
4.771217e+11
4.490449e+11
4.148481e+11
3.744195e+11
3.30647e+11
2.803646e+11
2.276841e+11
1.68368e+11
1.239739e+11
6.932189e+10
3.312937e+10
2.926534e+10
6.00156e+10
9.685716e+10
1.557119e+11
2.213879e+11
2.805482e+11
3.373769e+11
3.872176e+11
4.350094e+11
4.782787e+11
5.147803e+11
5.445761e+11
5.67192e+11
5.822987e+11
5.894466e+11
5.894185e+11
5.822201e+11
5.670777e+11
5.444459e+11
5.146438e+11
4.781309e+11
4.348523e+11
3.870446e+11
3.371859e+11
2.803721e+11
2.212374e+11
1.556113e+11
9.683119e+10
6.000796e+10
2.926021e+10
4.032393e+10
8.146304e+10
1.396798e+11
1.87949e+11
2.658772e+11
3.308711e+11
3.872549e+11
4.41469e+11
4.921513e+11
5.373486e+11
5.758519e+11
6.072828e+11
6.310569e+11
6.471296e+11
6.553209e+11
6.552947e+11
6.470551e+11
6.309476e+11
6.071553e+11
5.757123e+11
5.371976e+11
4.91995e+11
4.412996e+11
3.870734e+11
3.306834e+11
2.657117e+11
1.878258e+11
1.396288e+11
8.144569e+10
4.033031e+10
2.90313e+10
6.40779e+10
1.191673e+11
1.69927e+11
2.412261e+11
3.116405e+11
3.746713e+11
4.350873e+11
4.921896e+11
5.447769e+11
5.916571e+11
6.314988e+11
6.640813e+11
6.894298e+11
7.068399e+11
7.157965e+11
7.157707e+11
7.067671e+11
6.893221e+11
6.639515e+11
6.313498e+11
5.914941e+11
5.446076e+11
4.92009e+11
4.348988e+11
3.744787e+11
3.114503e+11
2.410693e+11
1.697761e+11
1.191437e+11
6.407191e+10
2.905405e+10
3.80081e+10
7.753479e+10
1.376241e+11
2.10226e+11
2.793293e+11
3.489478e+11
4.151083e+11
4.783756e+11
5.374067e+11
5.916802e+11
6.396492e+11
6.812348e+11
7.154328e+11
7.418017e+11
7.596856e+11
7.687512e+11
7.687247e+11
7.596111e+11
7.416909e+11
7.152963e+11
6.810766e+11
6.394751e+11
5.914977e+11
5.372184e+11
4.781878e+11
4.149189e+11
3.487517e+11
2.791671e+11
2.100468e+11
1.375358e+11
7.751665e+10
3.802543e+10
4.338432e+10
9.089953e+10
1.55958e+11
2.364101e+11
3.105688e+11
3.799283e+11
4.493104e+11
5.148877e+11
5.75926e+11
6.315485e+11
6.812624e+11
7.24415e+11
7.595287e+11
7.861208e+11
8.039313e+11
8.128624e+11
8.128357e+11
8.038557e+11
7.860067e+11
7.593871e+11
7.242524e+11
6.810851e+11
6.313648e+11
5.757431e+11
5.147104e+11
4.491356e+11
3.797473e+11
3.104181e+11
2.362156e+11
1.558087e+11
9.082862e+10
4.335793e+10
5.100952e+10
1.175313e+11
1.732182e+11
2.562839e+11
3.319338e+11
4.05746e+11
4.773925e+11
5.446953e+11
6.073861e+11
6.641697e+11
7.154999e+11
7.595672e+11
7.949779e+11
8.21448e+11
8.390158e+11
8.477689e+11
8.477433e+11
8.389427e+11
8.213359e+11
7.948371e+11
7.594045e+11
7.153216e+11
6.639857e+11
6.072083e+11
5.44528e+11
4.772324e+11
4.055876e+11
3.317891e+11
2.560886e+11
1.730104e+11
1.173165e+11
5.09476e+10
3.049538e+10
6.986808e+10
1.292145e+11
2.014061e+11
2.728787e+11
3.478633e+11
4.246212e+11
4.982127e+11
5.673284e+11
6.311901e+11
6.895579e+11
7.419144e+11
7.862077e+11
8.214978e+11
8.4771e+11
8.650312e+11
8.736392e+11
8.736148e+11
8.649616e+11
8.476026e+11
8.213631e+11
7.860522e+11
7.417436e+11
6.893818e+11
6.310238e+11
5.671802e+11
4.980672e+11
4.244778e+11
3.477141e+11
2.726765e+11
2.011637e+11
1.289902e+11
6.978794e+10
3.04572e+10
3.55896e+10
7.32021e+10
1.334747e+11
2.119864e+11
2.829863e+11
3.58129e+11
4.366678e+11
5.118442e+11
5.82476e+11
6.473053e+11
7.070149e+11
7.598511e+11
8.040764e+11
8.391285e+11
8.650955e+11
8.822249e+11
8.907269e+11
8.907018e+11
8.821546e+11
8.649887e+11
8.389976e+11
8.039302e+11
7.596929e+11
7.068523e+11
6.471516e+11
5.823362e+11
5.117054e+11
4.365296e+11
3.579771e+11
2.827981e+11
2.117669e+11
1.332847e+11
7.312259e+10
3.558331e+10
3.662203e+10
7.444543e+10
1.3551e+11
2.161697e+11
2.876567e+11
3.631188e+11
4.425411e+11
5.185132e+11
5.896737e+11
6.555478e+11
7.160263e+11
7.689782e+11
8.130752e+11
8.479523e+11
8.737769e+11
8.908033e+11
8.992494e+11
8.992221e+11
8.907297e+11
8.736689e+11
8.478231e+11
8.129333e+11
7.688282e+11
7.15874e+11
6.55402e+11
5.895377e+11
5.183785e+11
4.424014e+11
3.629649e+11
2.874824e+11
2.159897e+11
1.353861e+11
7.439103e+10
3.661756e+10
3.662643e+10
7.44603e+10
1.355506e+11
2.161969e+11
2.876872e+11
3.631518e+11
4.425737e+11
5.185443e+11
5.89706e+11
6.555813e+11
7.160637e+11
7.690219e+11
8.131257e+11
8.480085e+11
8.73837e+11
8.908656e+11
8.993121e+11
8.992823e+11
8.907857e+11
8.737209e+11
8.478718e+11
8.129793e+11
7.688717e+11
7.159144e+11
6.554373e+11
5.895673e+11
5.184067e+11
4.424283e+11
3.629932e+11
2.875217e+11
2.160358e+11
1.35431e+11
7.441469e+10
3.662809e+10
3.562472e+10
7.323731e+10
1.335152e+11
2.120384e+11
2.830662e+11
3.582239e+11
4.367621e+11
5.119413e+11
5.825823e+11
6.474135e+11
7.071322e+11
7.599855e+11
8.042302e+11
8.392981e+11
8.652767e+11
8.824121e+11
8.909136e+11
8.908804e+11
8.823219e+11
8.651449e+11
8.391446e+11
8.040698e+11
7.598257e+11
7.069763e+11
6.472618e+11
5.824322e+11
5.117935e+11
4.366043e+11
3.580519e+11
2.829076e+11
2.118951e+11
1.334104e+11
7.319424e+10
3.561919e+10
3.05402e+10
6.986993e+10
1.292159e+11
2.014615e+11
2.729877e+11
3.480139e+11
4.247727e+11
4.983769e+11
5.675132e+11
6.313845e+11
6.897657e+11
7.421468e+11
7.864689e+11
8.217843e+11
8.480131e+11
8.65341e+11
8.739451e+11
8.739078e+11
8.652382e+11
8.478622e+11
8.216085e+11
7.86287e+11
7.419683e+11
6.89593e+11
6.312164e+11
5.673468e+11
4.982136e+11
4.245982e+11
3.478215e+11
2.728368e+11
2.013421e+11
1.291474e+11
6.984412e+10
3.053191e+10
5.103587e+10
1.174919e+11
1.732859e+11
2.564175e+11
3.32138e+11
4.059494e+11
4.776221e+11
5.449468e+11
6.076622e+11
6.644709e+11
7.158327e+11
7.599328e+11
7.953721e+11
8.218611e+11
8.39434e+11
8.481781e+11
8.481369e+11
8.3932e+11
8.216933e+11
7.951758e+11
7.597288e+11
7.156318e+11
6.642785e+11
6.074814e+11
5.447743e+11
4.774459e+11
4.057666e+11
3.319294e+11
2.562794e+11
1.731913e+11
1.174736e+11
5.10059e+10
4.340603e+10
9.095271e+10
1.560529e+11
2.365384e+11
3.108019e+11
3.801648e+11
4.495916e+11
5.151915e+11
5.762658e+11
6.319254e+11
6.816749e+11
7.248628e+11
7.600066e+11
7.866166e+11
8.044276e+11
8.133409e+11
8.132977e+11
8.043067e+11
7.864386e+11
7.597986e+11
7.246464e+11
6.814616e+11
6.317212e+11
5.760794e+11
5.150128e+11
4.494059e+11
3.799896e+11
3.105928e+11
2.36423e+11
1.5596e+11
9.088893e+10
4.336706e+10
3.806506e+10
7.762229e+10
1.37767e+11
2.103455e+11
2.795399e+11
3.49208e+11
4.154194e+11
4.787074e+11
5.37776e+11
5.920953e+11
6.401034e+11
6.81728e+11
7.159582e+11
7.423421e+11
7.602213e+11
7.692628e+11
7.692203e+11
7.601013e+11
7.421649e+11
7.157521e+11
6.815168e+11
6.39898e+11
5.918992e+11
5.375956e+11
4.785285e+11
4.152339e+11
3.490498e+11
2.793764e+11
2.102636e+11
1.376458e+11
7.753983e+10
3.800998e+10
2.907268e+10
6.414547e+10
1.193522e+11
1.700201e+11
2.413696e+11
3.118788e+11
3.749692e+11
4.3542e+11
4.925654e+11
5.452016e+11
5.921229e+11
6.320036e+11
6.646176e+11
6.899766e+11
7.073795e+11
7.163135e+11
7.162759e+11
7.07271e+11
6.898143e+11
6.644295e+11
6.318147e+11
5.919411e+11
5.450294e+11
4.924047e+11
4.3526e+11
3.748104e+11
3.117659e+11
2.412772e+11
1.69986e+11
1.19175e+11
6.409016e+10
2.903611e+10
4.035172e+10
8.150817e+10
1.398299e+11
1.880057e+11
2.660805e+11
3.311308e+11
3.875694e+11
4.41837e+11
4.925708e+11
5.378061e+11
5.763412e+11
6.077977e+11
6.315786e+11
6.47645e+11
6.5582e+11
6.557904e+11
6.475575e+11
6.314458e+11
6.076442e+11
5.761892e+11
5.376605e+11
4.924338e+11
4.417118e+11
3.874537e+11
3.310322e+11
2.660069e+11
1.87989e+11
1.397534e+11
8.145499e+10
4.031942e+10
2.926727e+10
6.006751e+10
9.692657e+10
1.558955e+11
2.216026e+11
2.807883e+11
3.37671e+11
3.875711e+11
4.354197e+11
4.787236e+11
5.152477e+11
5.450521e+11
5.676714e+11
5.827807e+11
5.899238e+11
5.899014e+11
5.827168e+11
5.675765e+11
5.449439e+11
5.151375e+11
4.786195e+11
4.353212e+11
3.874807e+11
3.375841e+11
2.807005e+11
2.215105e+11
1.558061e+11
9.686578e+10
6.003279e+10
2.927344e+10
3.313521e+10
6.941874e+10
1.242204e+11
1.686243e+11
2.28014e+11
2.807728e+11
3.311336e+11
3.74953e+11
4.153946e+11
4.496059e+11
4.776868e+11
4.984914e+11
5.120915e+11
5.187127e+11
5.186973e+11
5.120553e+11
4.984377e+11
4.776251e+11
4.495499e+11
4.153495e+11
3.748978e+11
3.31074e+11
2.807262e+11
2.279714e+11
1.685924e+11
1.24121e+11
6.937084e+10
3.313597e+10
3.601365e+10
7.79517e+10
1.311319e+11
1.685889e+11
2.21574e+11
2.660688e+11
3.118441e+11
3.491465e+11
3.80139e+11
4.05959e+11
4.248199e+11
4.368435e+11
4.42676e+11
4.426639e+11
4.368338e+11
4.248142e+11
4.059538e+11
3.801377e+11
3.491536e+11
3.118239e+11
2.660307e+11
2.215546e+11
1.685761e+11
1.310939e+11
7.793113e+10
3.600526e+10
3.774005e+10
7.793904e+10
1.242212e+11
1.558744e+11
1.880551e+11
2.413616e+11
2.794784e+11
3.107317e+11
3.320883e+11
3.479963e+11
3.582497e+11
3.632305e+11
3.632112e+11
3.582512e+11
3.480123e+11
3.321132e+11
3.107707e+11
2.794996e+11
2.413377e+11
1.879884e+11
1.558659e+11
1.242145e+11
7.794221e+10
3.774129e+10
3.598619e+10
6.936914e+10
9.692348e+10
1.398094e+11
1.699681e+11
2.102914e+11
2.364891e+11
2.563865e+11
2.7298e+11
2.830848e+11
2.877159e+11
2.876884e+11
2.830572e+11
2.729523e+11
2.563663e+11