/*--------------------------------*- C++ -*----------------------------------*\
  =========                 |
  \\      /  F ield         | OpenFOAM: The Open Source CFD Toolbox
   \\    /   O peration     | Website:  https://openfoam.org
    \\  /    A nd           | Version:  6
     \\/     M anipulation  |
\*---------------------------------------------------------------------------*/
FoamFile
{
    version     2.0;
    format      ascii;
    class       volScalarField;
    location    "50/region0/neutronTransport";
    object      discFlux3;
}
// * * * * * * * * * * * * * * * * * * * * * * * * * * * * * * * * * * * * * //

dimensions      [0 -2 -1 0 0 0 0];

internalField   nonuniform List<scalar> 
203709
(
5.608423e+13
6.454719e+13
6.454084e+13
5.61109e+13
5.894121e+13
6.906348e+13
9.464891e+13
9.259217e+13
9.25852e+13
9.466584e+13
6.908369e+13
5.897336e+13
5.742861e+13
6.936571e+13
9.561477e+13
9.397452e+13
9.693401e+13
9.762855e+13
9.763409e+13
9.695457e+13
9.400556e+13
9.566107e+13
6.941036e+13
5.747185e+13
5.742225e+13
9.293727e+13
9.362887e+13
9.741562e+13
9.932861e+13
1.011196e+14
1.01903e+14
1.019175e+14
1.011417e+14
9.936209e+13
9.746468e+13
9.368625e+13
9.300634e+13
5.746879e+13
6.933676e+13
9.361035e+13
9.796518e+13
1.010333e+14
1.034086e+14
1.051468e+14
1.06014e+14
1.060261e+14
1.051639e+14
1.034386e+14
1.010758e+14
9.801096e+13
9.365866e+13
6.937319e+13
5.888851e+13
9.555167e+13
9.7382e+13
1.010159e+14
1.042464e+14
1.068044e+14
1.085843e+14
1.094636e+14
1.094693e+14
1.085995e+14
1.06832e+14
1.042738e+14
1.010467e+14
9.741919e+13
9.559695e+13
5.891111e+13
6.89768e+13
9.388568e+13
9.926765e+13
1.033665e+14
1.067873e+14
1.094415e+14
1.111977e+14
1.120117e+14
1.120148e+14
1.112117e+14
1.094552e+14
1.06803e+14
1.033988e+14
9.93111e+13
9.393399e+13
6.9021e+13
5.601337e+13
9.452974e+13
9.683199e+13
1.010425e+14
1.050971e+14
1.085546e+14
1.111883e+14
1.12777e+14
1.13568e+14
1.135718e+14
1.127894e+14
1.111994e+14
1.085787e+14
1.051357e+14
1.010926e+14
9.689162e+13
9.460602e+13
5.604072e+13
6.442723e+13
9.243721e+13
9.749255e+13
1.018045e+14
1.059427e+14
1.094147e+14
1.119908e+14
1.135588e+14
1.144414e+14
1.144071e+14
1.135575e+14
1.120005e+14
1.094412e+14
1.059793e+14
1.018512e+14
9.755813e+13
9.250399e+13
6.447133e+13
6.443164e+13
9.245263e+13
9.748961e+13
1.017855e+14
1.059263e+14
1.094066e+14
1.119825e+14
1.135541e+14
1.144635e+14
1.144228e+14
1.135447e+14
1.119807e+14
1.094168e+14
1.059606e+14
1.018342e+14
9.75424e+13
9.250445e+13
6.447713e+13
5.598037e+13
9.452065e+13
9.680665e+13
1.010102e+14
1.050655e+14
1.085303e+14
1.111723e+14
1.127708e+14
1.135654e+14
1.135489e+14
1.127545e+14
1.111622e+14
1.085313e+14
1.050855e+14
1.010438e+14
9.684601e+13
9.455316e+13
5.60237e+13
6.894352e+13
9.384859e+13
9.923335e+13
1.033408e+14
1.067621e+14
1.094248e+14
1.11186e+14
1.12008e+14
1.119902e+14
1.111771e+14
1.094099e+14
1.067536e+14
1.033408e+14
9.924544e+13
9.387673e+13
6.898109e+13
5.885809e+13
9.551371e+13
9.734107e+13
1.009837e+14
1.042165e+14
1.067847e+14
1.085576e+14
1.094447e+14
1.094321e+14
1.085542e+14
1.067704e+14
1.042059e+14
1.009783e+14
9.734667e+13
9.553013e+13
5.887761e+13
6.930699e+13
9.35739e+13
9.793577e+13
1.010083e+14
1.033825e+14
1.051178e+14
1.060331e+14
1.060231e+14
1.050997e+14
1.033598e+14
1.009847e+14
9.791844e+13
9.357566e+13
6.931572e+13
5.740813e+13
9.292069e+13
9.360047e+13
9.738571e+13
9.92836e+13
1.010639e+14
1.018832e+14
1.018752e+14
1.010422e+14
9.92539e+13
9.734753e+13
9.356147e+13
9.289047e+13
5.738539e+13
5.741893e+13
6.933706e+13
9.556052e+13
9.389068e+13
9.684358e+13
9.754555e+13
9.754896e+13
9.682424e+13
9.386915e+13
9.551826e+13
6.929169e+13
5.738201e+13
5.88833e+13
6.897237e+13
9.453045e+13
9.250126e+13
9.251424e+13
9.451377e+13
6.895347e+13
5.885833e+13
5.599276e+13
6.4419e+13
6.442355e+13
5.598844e+13
4.65831e+13
5.547982e+13
5.797363e+13
5.966759e+13
6.073546e+13
6.073806e+13
5.967559e+13
5.798515e+13
5.549575e+13
4.660501e+13
4.772873e+13
5.838337e+13
8.248305e+13
8.44905e+13
8.777743e+13
9.200402e+13
9.539715e+13
9.540205e+13
9.202536e+13
8.7787e+13
8.448004e+13
8.24649e+13
5.836259e+13
4.771841e+13
4.872601e+13
8.08168e+13
8.460562e+13
9.180188e+13
9.936065e+13
1.058377e+14
1.169786e+14
1.253989e+14
1.254032e+14
1.169974e+14
1.058306e+14
9.934211e+13
9.179945e+13
8.460623e+13
8.084156e+13
4.874121e+13
4.919564e+13
8.221357e+13
8.945095e+13
9.879646e+13
1.089044e+14
1.272063e+14
1.514238e+14
1.885207e+14
1.984798e+14
1.984866e+14
1.885165e+14
1.514332e+14
1.272313e+14
1.089379e+14
9.882903e+13
8.94856e+13
8.223966e+13
4.922505e+13
4.870046e+13
8.218334e+13
9.040292e+13
1.014061e+14
1.242437e+14
1.537688e+14
1.994215e+14
2.252704e+14
2.446681e+14
2.748656e+14
2.748752e+14
2.447103e+14
2.253232e+14
1.994697e+14
1.538421e+14
1.24301e+14
1.014739e+14
9.045631e+13
8.223076e+13
4.874217e+13
4.769201e+13
8.078308e+13
8.940875e+13
1.013903e+14
1.347259e+14
1.924055e+14
2.249447e+14
2.519476e+14
2.947485e+14
3.136495e+14
3.248716e+14
3.248871e+14
3.136961e+14
2.94819e+14
2.520366e+14
2.25036e+14
1.924774e+14
1.348014e+14
1.014452e+14
8.946848e+13
8.084423e+13
4.77372e+13
5.829999e+13
8.451923e+13
9.871817e+13
1.241862e+14
1.92361e+14
2.389094e+14
2.897097e+14
3.172898e+14
3.388385e+14
3.520405e+14
3.58787e+14
3.588056e+14
3.520924e+14
3.389267e+14
3.174025e+14
2.89825e+14
2.390136e+14
1.924522e+14
1.242534e+14
9.879508e+13
8.459316e+13
5.835705e+13
4.653935e+13
8.236806e+13
9.168277e+13
1.088008e+14
1.536586e+14
2.248878e+14
2.896718e+14
3.272347e+14
3.510352e+14
3.673741e+14
3.776926e+14
3.827901e+14
3.828088e+14
3.777439e+14
3.674629e+14
3.511497e+14
3.273592e+14
2.897985e+14
2.250041e+14
1.537667e+14
1.088901e+14
9.17504e+13
8.242664e+13
4.656118e+13
5.541387e+13
8.439246e+13
9.922346e+13
1.270909e+14
1.993278e+14
2.518697e+14
3.1722e+14
3.509971e+14
3.723686e+14
3.866267e+14
3.955858e+14
3.999511e+14
3.999666e+14
3.956317e+14
3.867035e+14
3.724651e+14
3.511056e+14
3.173324e+14
2.519743e+14
1.994237e+14
1.271376e+14
9.928349e+13
8.443836e+13
5.543757e+13
5.789264e+13
8.767879e+13
1.056852e+14
1.512308e+14
2.251396e+14
2.946051e+14
3.387156e+14
3.672876e+14
3.865845e+14
3.996884e+14
4.0796e+14
4.120059e+14
4.120175e+14
4.079975e+14
3.997458e+14
3.8666e+14
3.67384e+14
3.38824e+14
2.947057e+14
2.251925e+14
1.513373e+14
1.057757e+14
8.772646e+13
5.792791e+13
5.956854e+13
9.189266e+13
1.168463e+14
1.883471e+14
2.444983e+14
3.134581e+14
3.518645e+14
3.775586e+14
3.955022e+14
4.079241e+14
4.157845e+14
4.196391e+14
4.196444e+14
4.158122e+14
4.079708e+14
3.955761e+14
3.776634e+14
3.519888e+14
3.135809e+14
2.445944e+14
1.884625e+14
1.169158e+14
9.195524e+13
5.962896e+13
6.061466e+13
9.523947e+13
1.252126e+14
1.982754e+14
2.746228e+14
3.246191e+14
3.585573e+14
3.826069e+14
3.998248e+14
4.119375e+14
4.196135e+14
4.233947e+14
4.233768e+14
4.196209e+14
4.119732e+14
3.998951e+14
3.82711e+14
3.586856e+14
3.247577e+14
2.747524e+14
1.983963e+14
1.253149e+14
9.533486e+13
6.069239e+13
6.059831e+13
9.520563e+13
1.251697e+14
1.982334e+14
2.74598e+14
3.245975e+14
3.585309e+14
3.825799e+14
3.998037e+14
4.119222e+14
4.196078e+14
4.234049e+14
4.233805e+14
4.196051e+14
4.119475e+14
3.998638e+14
3.826785e+14
3.586558e+14
3.247358e+14
2.747351e+14
1.983552e+14
1.252742e+14
9.530388e+13
6.067486e+13
5.952671e+13
9.183665e+13
1.168053e+14
1.883096e+14
2.444151e+14
3.133891e+14
3.517972e+14
3.774927e+14
3.954465e+14
4.078843e+14
4.15763e+14
4.196305e+14
4.196186e+14
4.157637e+14
4.079075e+14
3.955002e+14
3.775809e+14
3.519115e+14
3.135213e+14
2.445536e+14
1.884195e+14
1.168943e+14
9.192634e+13
5.959358e+13
5.785294e+13
8.763615e+13
1.056682e+14
1.512023e+14
2.250538e+14
2.945205e+14
3.386297e+14
3.672072e+14
3.865149e+14
3.99637e+14
4.079247e+14
4.119827e+14
4.119749e+14
4.079328e+14
3.996588e+14
3.865574e+14
3.67277e+14
3.387245e+14
2.946317e+14
2.251776e+14
1.512705e+14
1.057226e+14
8.771343e+13
5.790948e+13
5.538601e+13
8.436969e+13
9.92119e+13
1.270387e+14
1.992884e+14
2.518112e+14
3.17144e+14
3.50919e+14
3.722965e+14
3.865691e+14
3.95535e+14
3.998994e+14
3.998927e+14
3.955409e+14
3.865833e+14
3.723236e+14
3.509643e+14
3.17204e+14
2.51861e+14
1.993393e+14
1.271087e+14
9.925434e+13
8.442818e+13
5.543045e+13
4.652054e+13
8.236886e+13
9.167937e+13
1.087732e+14
1.536485e+14
2.248533e+14
2.896221e+14
3.271749e+14
3.509744e+14
3.673115e+14
3.776245e+14
3.826881e+14
3.826797e+14
3.776129e+14
3.673016e+14
3.509692e+14
3.271817e+14
2.896376e+14
2.248596e+14
1.536596e+14
1.088133e+14
9.17063e+13
8.240189e+13
4.65538e+13
5.831724e+13
8.451387e+13
9.870054e+13
1.241645e+14
1.923492e+14
2.388774e+14
2.896618e+14
3.172328e+14
3.387572e+14
3.51938e+14
3.586197e+14
3.586102e+14
3.519111e+14
3.387212e+14
3.171914e+14
2.896297e+14
2.388522e+14
1.923189e+14
1.241552e+14
9.872212e+13
8.452569e+13
5.830882e+13
4.770627e+13
8.076538e+13
8.939511e+13
1.013688e+14
1.347035e+14
1.923636e+14
2.249037e+14
2.518986e+14
2.946403e+14
3.135136e+14
3.246672e+14
3.246647e+14
3.134822e+14
2.945898e+14
2.518273e+14
2.248512e+14
1.92324e+14
1.346598e+14
1.013403e+14
8.939166e+13
8.076488e+13
4.767463e+13
4.870886e+13
8.219769e+13
9.039398e+13
1.013639e+14
1.241688e+14
1.536778e+14
1.993507e+14
2.251492e+14
2.445008e+14
2.746142e+14
2.746196e+14
2.444765e+14
2.250923e+14
1.992661e+14
1.536234e+14
1.241266e+14
1.013233e+14
9.035522e+13
8.216827e+13
4.868126e+13
4.919243e+13
8.218265e+13
8.939197e+13
9.872104e+13
1.088053e+14
1.270427e+14
1.512227e+14
1.883382e+14
1.982469e+14
1.982428e+14
1.882919e+14
1.511765e+14
1.270169e+14
1.087507e+14
9.866571e+13
8.934462e+13
8.214341e+13
4.916725e+13
4.86757e+13
8.075266e+13
8.450686e+13
9.16625e+13
9.918489e+13
1.056684e+14
1.168065e+14
1.251771e+14
1.2517e+14
1.167823e+14
1.056207e+14
9.915984e+13
9.164264e+13
8.447351e+13
8.070869e+13
4.865134e+13
4.768259e+13
5.829318e+13
8.234837e+13
8.436172e+13
8.764145e+13
9.184647e+13
9.522015e+13
9.521765e+13
9.183267e+13
8.760962e+13
8.432133e+13
8.233422e+13
5.827881e+13
4.76605e+13
4.650019e+13
5.536712e+13
5.784048e+13
5.951818e+13
6.057976e+13
6.057677e+13
5.952458e+13
5.784388e+13
5.536197e+13
4.648394e+13
3.919486e+13
4.663698e+13
4.815009e+13
4.869965e+13
4.869121e+13
4.812353e+13
4.658109e+13
3.915742e+13
3.917761e+13
4.970848e+13
5.526954e+13
7.745462e+13
8.009435e+13
8.179699e+13
8.256447e+13
8.255576e+13
8.176699e+13
8.00438e+13
7.744143e+13
5.527498e+13
4.972657e+13
3.922393e+13
4.355386e+13
7.465973e+13
8.227664e+13
9.442248e+13
1.0671e+14
1.118896e+14
1.150306e+14
1.164715e+14
1.164633e+14
1.150058e+14
1.118499e+14
1.0667e+14
9.441313e+13
8.227996e+13
7.468857e+13
4.361064e+13
4.070435e+13
5.3519e+13
8.053582e+13
1.013931e+14
1.262203e+14
1.656538e+14
1.80667e+14
1.88443e+14
1.934667e+14
1.960344e+14
1.960205e+14
1.934277e+14
1.883857e+14
1.806021e+14
1.65602e+14
1.262035e+14
1.014221e+14
8.054685e+13
5.355087e+13
4.07327e+13
4.101618e+13
7.25129e+13
8.575454e+13
1.168502e+14
1.690993e+14
1.996864e+14
2.253356e+14
2.650252e+14
2.830749e+14
2.936202e+14
2.987771e+14
2.987646e+14
2.935908e+14
2.83043e+14
2.65011e+14
2.253721e+14
1.997387e+14
1.691375e+14
1.168545e+14
8.579132e+13
7.253252e+13
4.103846e+13
4.068857e+13
7.251918e+13
8.903126e+13
1.223486e+14
1.837953e+14
2.228132e+14
2.73791e+14
3.062109e+14
3.344394e+14
3.555162e+14
3.703267e+14
3.775564e+14
3.775468e+14
3.703119e+14
3.554868e+14
3.34409e+14
3.062056e+14
2.737966e+14
2.228313e+14
1.838282e+14
1.223901e+14
8.904354e+13
7.253562e+13
4.071614e+13
5.350981e+13
8.57387e+13
1.223409e+14
1.869681e+14
2.311271e+14
2.911913e+14
3.346592e+14
3.700595e+14
4.00978e+14
4.263983e+14
4.464849e+14
4.543897e+14
4.543842e+14
4.464681e+14
4.263828e+14
4.009844e+14
3.700963e+14
3.347061e+14
2.912501e+14
2.311773e+14
1.869835e+14
1.223673e+14
8.577568e+13
5.354274e+13
4.356239e+13
8.047382e+13
1.167734e+14
1.83773e+14
2.310801e+14
2.963652e+14
3.480609e+14
3.938056e+14
4.335998e+14
4.691817e+14
4.949532e+14
5.134914e+14
5.240706e+14
5.240769e+14
5.135115e+14
4.949901e+14
4.692421e+14
4.336842e+14
3.939013e+14
3.481815e+14
2.964765e+14
2.311802e+14
1.838472e+14
1.168373e+14
8.052708e+13
4.358511e+13
3.913655e+13
7.459525e+13
1.013051e+14
1.689827e+14
2.227668e+14
2.91148e+14
3.480289e+14
4.026598e+14
4.540187e+14
4.94756e+14
5.284446e+14
5.56349e+14
5.759671e+14
5.865883e+14
5.866058e+14
5.7602e+14
5.564385e+14
5.285683e+14
4.948951e+14
4.541672e+14
4.028258e+14
3.481802e+14
2.912814e+14
2.228721e+14
1.690411e+14
1.013899e+14
7.46638e+13
3.916842e+13
4.96607e+13
8.218721e+13
1.260684e+14
1.995808e+14
2.736623e+14
3.345502e+14
3.9369e+14
4.539366e+14
5.043069e+14
5.479931e+14
5.831296e+14
6.103724e+14
6.286642e+14
6.380268e+14
6.380523e+14
6.287416e+14
6.105027e+14
5.833015e+14
5.481865e+14
5.045114e+14
4.541438e+14
3.938808e+14
3.347276e+14
2.738121e+14
1.996491e+14
1.261817e+14
8.22759e+13
4.971077e+13
5.518886e+13
9.427418e+13
1.653911e+14
2.252109e+14
3.060246e+14
3.698732e+14
4.333961e+14
4.946015e+14
5.479121e+14
5.929597e+14
6.277149e+14
6.532818e+14
6.701013e+14
6.785105e+14
6.785392e+14
6.701874e+14
6.534251e+14
6.279035e+14
5.931759e+14
5.481433e+14
4.948376e+14
4.336266e+14
3.700847e+14
3.062142e+14
2.253314e+14
1.656065e+14
9.439898e+13
5.525879e+13
3.912658e+13
7.733226e+13
1.065001e+14
1.803824e+14
2.648049e+14
3.341963e+14
4.007218e+14
4.689357e+14
5.282378e+14
5.829797e+14
6.276389e+14
6.613844e+14
6.856478e+14
7.014078e+14
7.092028e+14
7.092284e+14
7.014855e+14
6.85776e+14
6.615539e+14
6.278369e+14
5.831943e+14
5.284615e+14
4.691631e+14
4.009349e+14
3.344039e+14
2.649879e+14
1.806214e+14
1.066544e+14
7.741496e+13
3.91759e+13
4.651252e+13
7.992591e+13
1.116889e+14
1.881784e+14
2.828096e+14
3.552301e+14
4.260664e+14
4.946402e+14
5.560646e+14
6.101406e+14
6.53124e+14
6.855696e+14
7.088281e+14
7.238931e+14
7.31331e+14
7.313514e+14
7.239561e+14
7.089322e+14
6.857134e+14
6.533048e+14
6.103506e+14
5.562909e+14
4.948763e+14
4.263276e+14
3.554667e+14
2.830308e+14
1.884034e+14
1.118306e+14
8.004007e+13
4.65924e+13
4.804109e+13
8.163358e+13
1.148295e+14
1.932229e+14
2.933384e+14
3.700212e+14
4.461292e+14
5.131204e+14
5.756048e+14
6.283454e+14
6.698579e+14
7.01251e+14
7.238211e+14
7.384463e+14
7.456608e+14
7.456756e+14
7.384989e+14
7.239168e+14
7.013963e+14
6.700523e+14
6.28577e+14
5.758562e+14
5.133833e+14
4.464035e+14
3.702681e+14
2.935809e+14
1.934367e+14
1.149836e+14
8.17538e+13
4.811301e+13
4.861063e+13
8.242672e+13
1.162865e+14
1.958127e+14
2.984889e+14
3.772147e+14
4.539997e+14
5.236433e+14
5.861517e+14
6.376256e+14
6.781851e+14
7.089731e+14
7.311982e+14
7.456069e+14
7.527102e+14
7.527129e+14
7.456393e+14
7.312758e+14
7.091079e+14
6.783772e+14
6.378614e+14
5.864119e+14
5.239119e+14
4.542726e+14
3.77476e+14
2.987331e+14
1.960111e+14
1.16435e+14
8.253655e+13
4.867943e+13
4.861492e+13
8.243217e+13
1.162903e+14
1.958219e+14
2.984807e+14
3.771888e+14
4.539689e+14
5.236122e+14
5.861196e+14
6.375883e+14
6.781466e+14
7.089432e+14
7.311795e+14
7.455979e+14
7.52706e+14
7.527009e+14
7.456129e+14
7.312377e+14
7.090623e+14
6.783288e+14
6.378152e+14
5.863719e+14
5.238734e+14
4.542284e+14
3.774388e+14
2.987055e+14
1.959898e+14
1.164223e+14
8.253114e+13
4.868152e+13
4.806368e+13
8.166287e+13
1.148494e+14
1.932534e+14
2.933199e+14
3.699772e+14
4.460809e+14
5.13044e+14
5.75518e+14
6.282511e+14
6.697633e+14
7.011705e+14
7.237635e+14
7.384101e+14
7.456331e+14
7.456317e+14
7.384273e+14
7.238194e+14
7.012799e+14
6.699276e+14
6.284576e+14
5.757522e+14
5.132901e+14
4.463157e+14
3.702023e+14
2.935096e+14
1.933635e+14
1.149451e+14
8.173535e+13
4.811327e+13
4.656139e+13
7.997654e+13
1.117237e+14
1.88241e+14
2.827959e+14
3.551938e+14
4.260259e+14
4.945604e+14
5.559584e+14
6.100211e+14
6.530053e+14
6.854661e+14
7.087478e+14
7.238318e+14
7.312751e+14
7.312776e+14
7.238546e+14
7.088011e+14
6.855603e+14
6.531443e+14
6.10198e+14
5.561603e+14
4.947731e+14
4.262205e+14
3.553811e+14
2.829435e+14
1.882779e+14
1.117761e+14
8.001999e+13
4.659144e+13
3.917881e+13
7.73762e+13
1.065783e+14
1.805035e+14
2.648075e+14
3.341868e+14
4.006753e+14
4.688746e+14
5.281499e+14
5.828732e+14
6.275278e+14
6.612815e+14
6.855572e+14
7.013198e+14
7.091001e+14
7.091e+14
7.01332e+14
6.855899e+14
6.613437e+14
6.27625e+14
5.830011e+14
5.282982e+14
4.690427e+14
4.008537e+14
3.343316e+14
2.649218e+14
1.804736e+14
1.065974e+14
7.741449e+13
3.91913e+13
5.523008e+13
9.435061e+13
1.655456e+14
2.252091e+14
3.060468e+14
3.698399e+14
4.333633e+14
4.945486e+14
5.478366e+14
5.928703e+14
6.276198e+14
6.531768e+14
6.699723e+14
6.783306e+14
6.78323e+14
6.699584e+14
6.531679e+14
6.276282e+14
5.929057e+14
5.478981e+14
4.946317e+14
4.334802e+14
3.69969e+14
3.061276e+14
2.253023e+14
1.654675e+14
9.433784e+13
5.52409e+13
4.967293e+13
8.223771e+13
1.261605e+14
1.996241e+14
2.737148e+14
3.345312e+14
3.936557e+14
4.53897e+14
5.042393e+14
5.479038e+14
5.830211e+14
6.102285e+14
6.284713e+14
6.37756e+14
6.377417e+14
6.284326e+14
6.101777e+14
5.829749e+14
5.478807e+14
5.042409e+14
4.539196e+14
3.937143e+14
3.345881e+14
2.737239e+14
1.996781e+14
1.261174e+14
8.223048e+13
4.969807e+13
3.912807e+13
7.465795e+13
1.013807e+14
1.690478e+14
2.228136e+14
2.911373e+14
3.479903e+14
4.026056e+14
4.539265e+14
4.946363e+14
5.283001e+14
5.561487e+14
5.757062e+14
5.862488e+14
5.862349e+14
5.756575e+14
5.560739e+14
5.282197e+14
4.945814e+14
4.538948e+14
4.02591e+14
3.479957e+14
2.911323e+14
2.227521e+14
1.690628e+14
1.013284e+14
7.462079e+13
3.916739e+13
4.354431e+13
8.051735e+13
1.168156e+14
1.837638e+14
2.310915e+14
2.963299e+14
3.479934e+14
3.936821e+14
4.334309e+14
4.689815e+14
4.946929e+14
5.131684e+14
5.236778e+14
5.236679e+14
5.131245e+14
4.946162e+14
4.688957e+14
4.33369e+14
3.936347e+14
3.479565e+14
2.96307e+14
2.310714e+14
1.837547e+14
1.167887e+14
8.048032e+13
4.354775e+13
5.350696e+13
8.5754e+13
1.223436e+14
1.869524e+14
2.310646e+14
2.911315e+14
3.345489e+14
3.698854e+14
4.007224e+14
4.260857e+14
4.461412e+14
4.540055e+14
4.539932e+14
4.460992e+14
4.260258e+14
4.006633e+14
3.69816e+14
3.34485e+14
2.910781e+14
2.310285e+14
1.869123e+14
1.222927e+14
8.570937e+13
5.348256e+13
4.070213e+13
7.252559e+13
8.90221e+13
1.223256e+14
1.837892e+14
2.227859e+14
2.736601e+14
3.060258e+14
3.341874e+14
3.552133e+14
3.699921e+14
3.771825e+14
3.771717e+14
3.699729e+14
3.551723e+14
3.341366e+14
3.059808e+14
2.736364e+14
2.227475e+14
1.837402e+14
1.222811e+14
8.897817e+13
7.248308e+13
4.067677e+13
4.100253e+13
7.252532e+13
8.575148e+13
1.167692e+14
1.689559e+14
1.995054e+14
2.251624e+14
2.647565e+14
2.827452e+14
2.932671e+14
2.984014e+14
2.983906e+14
2.932767e+14
2.827618e+14
2.64759e+14
2.251354e+14
1.995248e+14
1.689758e+14
1.167513e+14
8.571243e+13
7.24888e+13
4.098302e+13
4.069658e+13
5.351188e+13
8.046704e+13
1.013078e+14
1.260393e+14
1.654011e+14
1.803389e+14
1.880748e+14
1.931093e+14
1.957844e+14
1.957537e+14
1.931618e+14
1.881538e+14
1.804118e+14
1.654558e+14
1.260599e+14
1.012918e+14
8.04552e+13
5.347707e+13
4.068133e+13
4.352582e+13
7.45816e+13
8.216558e+13
9.425864e+13
1.06468e+14
1.116101e+14
1.147439e+14
1.162154e+14
1.161805e+14
1.147571e+14
1.116232e+14
1.064755e+14
9.424831e+13
8.213776e+13
7.458416e+13
4.350687e+13
3.909894e+13
4.963818e+13
5.516744e+13
7.729515e+13
7.987611e+13
8.156818e+13
8.240401e+13
8.239137e+13
8.156304e+13
7.986228e+13
7.729259e+13
5.515036e+13
4.960904e+13
3.910908e+13
3.911971e+13
4.648754e+13
4.799069e+13
4.857068e+13
4.856542e+13
4.798219e+13
4.646897e+13
3.907873e+13
3.489083e+13
4.123258e+13
4.245116e+13
4.244218e+13
4.119692e+13
3.487731e+13
3.318442e+13
4.408247e+13
5.043755e+13
5.952736e+13
8.267209e+13
8.67138e+13
8.818214e+13
8.815264e+13
8.663882e+13
8.258282e+13
5.95413e+13
5.047077e+13
4.410436e+13
3.322505e+13
3.345157e+13
4.675159e+13
7.571055e+13
9.193442e+13
1.080295e+14
1.411309e+14
1.552659e+14
1.604253e+14
1.628823e+14
1.628357e+14
1.603119e+14
1.551815e+14
1.411523e+14
1.080423e+14
9.192607e+13
7.574437e+13
4.680754e+13
3.352616e+13
3.795191e+13
7.070242e+13
9.659423e+13
1.433202e+14
1.655717e+14
1.875406e+14
2.08245e+14
2.420723e+14
2.54778e+14
2.597765e+14
2.597354e+14
2.546741e+14
2.419614e+14
2.081736e+14
1.874676e+14
1.655385e+14
1.432547e+14
9.667175e+13
7.076177e+13
3.803581e+13
4.131817e+13
8.191151e+13
1.150695e+14
1.679653e+14
2.043952e+14
2.527254e+14
2.841144e+14
3.0795e+14
3.278508e+14
3.399656e+14
3.45522e+14
3.454852e+14
3.398687e+14
3.277317e+14
3.078575e+14
2.840772e+14
2.52745e+14
2.0444e+14
1.679659e+14
1.151568e+14
8.196684e+13
4.137907e+13
4.33491e+13
9.22436e+13
1.490579e+14
1.872133e+14
2.259395e+14
2.898684e+14
3.356087e+14
3.731721e+14
3.987793e+14
4.178543e+14
4.301254e+14
4.360489e+14
4.360144e+14
4.300334e+14
4.177354e+14
3.986717e+14
3.731042e+14
3.356036e+14
2.899466e+14
2.260334e+14
1.872439e+14
1.49086e+14
9.227383e+13
4.338103e+13
4.131842e+13
9.224461e+13
1.573897e+14
2.026323e+14
2.66112e+14
3.194568e+14
3.743742e+14
4.190948e+14
4.562401e+14
4.872081e+14
5.098356e+14
5.242462e+14
5.31231e+14
5.311995e+14
5.241645e+14
5.097366e+14
4.871312e+14
4.562137e+14
4.191157e+14
3.74438e+14
3.195147e+14
2.661632e+14
2.026611e+14
1.573378e+14
9.22672e+13
4.134916e+13
3.795203e+13
8.188472e+13
1.49082e+14
2.026073e+14
2.738485e+14
3.37034e+14
3.973939e+14
4.498677e+14
4.98347e+14
5.393633e+14
5.730463e+14
5.980064e+14
6.14316e+14
6.222626e+14
6.22236e+14
6.14249e+14
5.979223e+14
5.729791e+14
5.393408e+14
4.983664e+14
4.499229e+14
3.9746e+14
3.371003e+14
2.738976e+14
2.02653e+14
1.491045e+14
8.193948e+13
3.798787e+13
3.344616e+13
7.066299e+13
1.150768e+14
1.871622e+14
2.66075e+14
3.370173e+14
4.051997e+14
4.649373e+14
5.222288e+14
5.741199e+14
6.179122e+14
6.536652e+14
6.808024e+14
6.989285e+14
7.075096e+14
7.074906e+14
6.988801e+14
6.807493e+14
6.53641e+14
6.179358e+14
5.741828e+14
5.223217e+14
4.650355e+14
4.052816e+14
3.37097e+14
2.661489e+14
1.872363e+14
1.15164e+14
7.073352e+13
3.347979e+13
4.673191e+13
9.658076e+13
1.67828e+14
2.259416e+14
3.1939e+14
3.973424e+14
4.649023e+14
5.298676e+14
5.906184e+14
6.448145e+14
6.910014e+14
7.28717e+14
7.572521e+14
7.765511e+14
7.863999e+14
7.863961e+14
7.765458e+14
7.572648e+14
7.287708e+14
6.911028e+14
6.449554e+14
5.907913e+14
5.300447e+14
4.650653e+14
3.974797e+14
3.195069e+14
2.260353e+14
1.679643e+14
9.667829e+13
4.680289e+13
3.317928e+13
7.562741e+13
1.43149e+14
2.042811e+14
2.898055e+14
3.742534e+14
4.497597e+14
5.221352e+14
5.905516e+14
6.535696e+14
7.097687e+14
7.575513e+14
7.966491e+14
8.270858e+14
8.480091e+14
8.587968e+14
8.588121e+14
8.480597e+14
8.271834e+14
7.968028e+14
7.577533e+14
7.100076e+14
6.538343e+14
5.908134e+14
5.223756e+14
4.499634e+14
3.744126e+14
2.899392e+14
2.0435e+14
1.433134e+14
7.573022e+13
3.326055e+13
4.400571e+13
9.180945e+13
1.653688e+14
2.526014e+14
3.354319e+14
4.188921e+14
4.98136e+14
5.739194e+14
6.446303e+14
7.096483e+14
7.671323e+14
8.169963e+14
8.580312e+14
8.896991e+14
9.112053e+14
9.221418e+14
9.221746e+14
9.113066e+14
8.89873e+14
8.582744e+14
8.172919e+14
7.674615e+14
7.099934e+14
6.449676e+14
5.742333e+14
4.984076e+14
4.191031e+14
3.356192e+14
2.527011e+14
1.654906e+14
9.192419e+13
4.410038e+13
5.038089e+13
1.07911e+14
1.873822e+14
2.839647e+14
3.72889e+14
4.559536e+14
5.390465e+14
6.175874e+14
6.906835e+14
7.572983e+14
8.168601e+14
8.685922e+14
9.107184e+14
9.426521e+14
9.640731e+14
9.74855e+14
9.748968e+14
9.641991e+14
9.428613e+14
9.110016e+14
8.689298e+14
8.1723e+14
7.57682e+14
6.910644e+14
6.179514e+14
5.393775e+14
4.562275e+14
3.731405e+14
2.840871e+14
1.874605e+14
1.079876e+14
5.043196e+13
5.947182e+13
1.410979e+14
2.081732e+14
3.077675e+14
3.984469e+14
4.868321e+14
5.72631e+14
6.532265e+14
7.282869e+14
7.962784e+14
8.577679e+14
9.105874e+14
9.530603e+14
9.848387e+14
1.005962e+15
1.016525e+15
1.016565e+15
1.006081e+15
9.850352e+14
9.533254e+14
9.109051e+14
8.581201e+14
7.966536e+14
7.286765e+14
6.536169e+14
5.730061e+14
4.871684e+14
3.987405e+14
3.079212e+14
2.082078e+14
1.410456e+14
5.948942e+13
3.486228e+13
8.255264e+13
1.552225e+14
2.419752e+14
3.276348e+14
4.17498e+14
5.094004e+14
5.975205e+14
6.802721e+14
7.567189e+14
8.26598e+14
8.893087e+14
9.423915e+14
9.847117e+14
1.016171e+15
1.036987e+15
1.047366e+15
1.047398e+15
1.037086e+15
1.016336e+15
9.849433e+14
9.426868e+14
8.896578e+14
8.269867e+14
7.571366e+14
6.807078e+14
5.979437e+14
5.097923e+14
4.178212e+14
3.278141e+14
2.420178e+14
1.551791e+14
8.258137e+13
3.486969e+13
4.114501e+13
8.660451e+13
1.603434e+14
2.546488e+14
3.397295e+14
4.297695e+14
5.237914e+14
6.137941e+14
6.983464e+14
7.759367e+14
8.474129e+14
9.106894e+14
9.63683e+14
1.00571e+15
1.036869e+15
1.057448e+15
1.067692e+15
1.067718e+15
1.057534e+15
1.037024e+15
1.005943e+15
9.639929e+14
9.110619e+14
8.478285e+14
7.763804e+14
6.988052e+14
6.142457e+14
5.242172e+14
4.301188e+14
3.39954e+14
2.547438e+14
1.603517e+14
8.663874e+13
4.119943e+13
4.238786e+13
8.809728e+13
1.627852e+14
2.596535e+14
3.453098e+14
4.357228e+14
5.307892e+14
6.217276e+14
7.068965e+14
7.85727e+14
8.581109e+14
9.215138e+14
9.743459e+14
1.016163e+15
1.047153e+15
1.067605e+15
1.077775e+15
1.077792e+15
1.067668e+15
1.047283e+15
1.016379e+15
9.74648e+14
9.218846e+14
8.585259e+14
7.861651e+14
7.073472e+14
6.221773e+14
5.312116e+14
4.360734e+14
3.455595e+14
2.598057e+14
1.628804e+14
8.816765e+13
4.244764e+13
4.238861e+13
8.810878e+13
1.628258e+14
2.596745e+14
3.453305e+14
4.357395e+14
5.307935e+14
6.217149e+14
7.068727e+14
7.856962e+14
8.580733e+14
9.214672e+14
9.742957e+14
1.016124e+15
1.04713e+15
1.067592e+15
1.077763e+15
1.07777e+15
1.067631e+15
1.04723e+15
1.016316e+15
9.745796e+14
9.218175e+14
8.584644e+14
7.861085e+14
7.072941e+14
6.221319e+14
5.311756e+14
4.360522e+14
3.455648e+14
2.598306e+14
1.629171e+14
8.819027e+13
4.245513e+13
4.117734e+13
8.663223e+13
1.603691e+14
2.546774e+14
3.397791e+14
4.29817e+14
5.238047e+14
6.13768e+14
6.982943e+14
7.758587e+14
8.473133e+14
9.105729e+14
9.63562e+14
1.005605e+15
1.036793e+15
1.057395e+15
1.067645e+15
1.067653e+15
1.057435e+15
1.036889e+15
1.00578e+15
9.638158e+14
9.10887e+14
8.476684e+14
7.76237e+14
6.98677e+14
6.141383e+14
5.241265e+14
4.300645e+14
3.399755e+14
2.548172e+14
1.604554e+14
8.67046e+13
4.123041e+13
3.490581e+13
8.253781e+13
1.551905e+14
2.419908e+14
3.276938e+14
4.175763e+14
5.094305e+14
5.975036e+14
6.802213e+14
7.566292e+14
8.264738e+14
8.891626e+14
9.422413e+14
9.845766e+14
1.01606e+15
1.036893e+15
1.047271e+15
1.047282e+15
1.036934e+15
1.016148e+15
9.847275e+14
9.424577e+14
8.89433e+14
8.267837e+14
7.569634e+14
6.805577e+14
5.978204e+14
5.096884e+14
4.177525e+14
3.278541e+14
2.421186e+14
1.552964e+14
8.261494e+13
3.494506e+13
5.948842e+13
1.410126e+14
2.081973e+14
3.078386e+14
3.985637e+14
4.868899e+14
5.72648e+14
6.531956e+14
7.282162e+14
7.961707e+14
8.576353e+14
9.104473e+14
9.529259e+14
9.847106e+14
1.005827e+15
1.016364e+15
1.016368e+15
1.005846e+15
9.847617e+14
9.530263e+14
9.106049e+14
8.578442e+14
7.964199e+14
7.284951e+14
6.534803e+14
5.729011e+14
4.870879e+14
3.986735e+14
3.079696e+14
2.083002e+14
1.411497e+14
5.95265e+13
5.039006e+13
1.079451e+14
1.874382e+14
2.840219e+14
3.730265e+14
4.56034e+14
5.391035e+14
6.175886e+14
6.906468e+14
7.572266e+14
8.167587e+14
8.684719e+14
9.105827e+14
9.424923e+14
9.63872e+14
9.745948e+14
9.745848e+14
9.638508e+14
9.4248e+14
9.10604e+14
8.685428e+14
8.168809e+14
7.573929e+14
6.908491e+14
6.177943e+14
5.392741e+14
4.561753e+14
3.730798e+14
2.841323e+14
1.875064e+14
1.079844e+14
5.040573e+13
4.405866e+13
9.188511e+13
1.654854e+14
2.526509e+14
3.355425e+14
4.189992e+14
4.982255e+14
5.739463e+14
6.446122e+14
7.095937e+14
7.670351e+14
8.168597e+14
8.578517e+14
8.894626e+14
9.108977e+14
9.217531e+14
9.217312e+14
9.108398e+14
8.893911e+14
8.577969e+14
8.168455e+14
7.670685e+14
7.096696e+14
6.447227e+14
5.740556e+14
4.983067e+14
4.190823e+14
3.355813e+14
2.527451e+14
1.654808e+14
9.187911e+13
4.404401e+13
3.321803e+13
7.568672e+13
1.433222e+14
2.04314e+14
2.898479e+14
3.743435e+14
4.498428e+14
5.221683e+14
5.905354e+14
6.535031e+14
7.09638e+14
7.573556e+14
7.96386e+14
8.267424e+14
8.475825e+14
8.582911e+14
8.582652e+14
8.475097e+14
8.266423e+14
7.962906e+14
7.572923e+14
7.096124e+14
6.535105e+14
5.905674e+14
5.221991e+14
4.498619e+14
3.743982e+14
2.898986e+14
2.043991e+14
1.432106e+14
7.56848e+13
3.320885e+13
4.675394e+13
9.660408e+13
1.679426e+14
2.259053e+14
3.194581e+14
3.973956e+14
4.649258e+14
5.298444e+14
5.905329e+14
6.446441e+14
6.90741e+14
7.283689e+14
7.568141e+14
7.760335e+14
7.858189e+14
7.857958e+14
7.759656e+14
7.567163e+14
7.282698e+14
6.906645e+14
6.445931e+14
5.905035e+14
5.298333e+14
4.649235e+14
3.974064e+14
3.194843e+14
2.259751e+14
1.679293e+14
9.659677e+13
4.674905e+13
3.343971e+13
7.070388e+13
1.151135e+14
1.87293e+14
2.661789e+14
3.370724e+14
4.052202e+14
4.649154e+14
5.221444e+14
5.739383e+14
6.176231e+14
6.53266e+14
6.803123e+14
6.98376e+14
7.069164e+14
7.068966e+14
6.983207e+14
6.802334e+14
6.531836e+14
6.175487e+14
5.738795e+14
5.220964e+14
4.648789e+14
4.051877e+14
3.370347e+14
2.661293e+14
1.872362e+14
1.150794e+14
7.069129e+13
3.34672e+13
3.794522e+13
8.194504e+13
1.49178e+14
2.026526e+14
2.738651e+14
3.370461e+14
3.973779e+14
4.497885e+14
4.981487e+14
5.390578e+14
5.72635e+14
5.975094e+14
6.137664e+14
6.216826e+14
6.216671e+14
6.137318e+14
5.974586e+14
5.725781e+14
5.390097e+14
4.981162e+14
4.497455e+14
3.973323e+14
3.370171e+14
2.738404e+14
2.026368e+14
1.490807e+14
8.19017e+13
3.795662e+13
4.131221e+13
9.225382e+13
1.574852e+14
2.026067e+14
2.661331e+14
3.194193e+14
3.742603e+14
4.188654e+14
4.559203e+14
4.867885e+14
5.093375e+14
5.237125e+14
5.306867e+14
5.306724e+14
5.237014e+14
5.093307e+14
4.867809e+14
4.559154e+14
4.188715e+14
3.74236e+14
3.193761e+14
2.661143e+14
2.025958e+14
1.574446e+14
9.222853e+13
4.13023e+13
4.333028e+13
9.224243e+13
1.491768e+14
1.87258e+14
2.259431e+14
2.897969e+14
3.354067e+14
3.728527e+14
3.983842e+14
4.174023e+14
4.296627e+14
4.356193e+14
4.355953e+14
4.296623e+14
4.174171e+14
3.984076e+14
3.728915e+14
3.354252e+14
2.897636e+14
2.258589e+14
1.872444e+14
1.491661e+14
9.223601e+13
4.332267e+13
4.128881e+13
8.189455e+13
1.151124e+14
1.678998e+14
2.042169e+14
2.525285e+14
2.838818e+14
3.076936e+14
3.275466e+14
3.396359e+14
3.451764e+14
3.451432e+14
3.39602e+14