/*--------------------------------*- C++ -*----------------------------------*\
  =========                 |
  \\      /  F ield         | OpenFOAM: The Open Source CFD Toolbox
   \\    /   O peration     | Website:  https://openfoam.org
    \\  /    A nd           | Version:  6
     \\/     M anipulation  |
\*---------------------------------------------------------------------------*/
FoamFile
{
    version     2.0;
    format      ascii;
    class       volScalarField;
    location    "50/region0/neutronTransport";
    object      discFlux0;
}
// * * * * * * * * * * * * * * * * * * * * * * * * * * * * * * * * * * * * * //

dimensions      [0 -2 -1 0 0 0 0];

internalField   nonuniform List<scalar> 
203709
(
4.352388e+16
4.718364e+16
4.718078e+16
4.353652e+16
4.537874e+16
5.002378e+16
5.987949e+16
5.944426e+16
5.943947e+16
5.988e+16
5.0025e+16
4.538448e+16
4.437897e+16
5.017774e+16
6.069205e+16
6.077001e+16
6.240123e+16
6.282364e+16
6.282193e+16
6.239876e+16
6.076578e+16
6.068955e+16
5.017338e+16
4.437535e+16
4.438386e+16
5.902093e+16
6.048536e+16
6.278976e+16
6.401479e+16
6.506821e+16
6.553855e+16
6.553932e+16
6.506288e+16
6.400562e+16
6.278125e+16
6.047551e+16
5.901229e+16
4.437615e+16
5.018071e+16
6.048644e+16
6.314672e+16
6.50548e+16
6.649512e+16
6.753157e+16
6.804719e+16
6.804695e+16
6.752374e+16
6.648403e+16
6.504313e+16
6.313246e+16
6.047187e+16
5.016739e+16
4.53849e+16
6.069586e+16
6.279379e+16
6.50563e+16
6.701517e+16
6.856069e+16
6.96327e+16
7.016497e+16
7.016304e+16
6.962646e+16
6.855231e+16
6.700173e+16
6.504108e+16
6.277938e+16
6.068265e+16
4.537117e+16
5.00243e+16
6.07705e+16
6.40163e+16
6.649445e+16
6.856042e+16
7.016891e+16
7.124493e+16
7.175766e+16
7.175626e+16
7.124247e+16
7.016099e+16
6.85475e+16
6.648204e+16
6.400312e+16
6.075517e+16
5.00111e+16
4.353334e+16
5.988431e+16
6.240742e+16
6.507426e+16
6.753711e+16
6.963428e+16
7.124587e+16
7.225919e+16
7.276232e+16
7.276206e+16
7.225909e+16
7.124009e+16
6.96256e+16
6.752469e+16
6.505865e+16
6.23903e+16
5.987111e+16
4.35097e+16
4.717843e+16
5.944264e+16
6.282677e+16
6.554812e+16
6.805612e+16
7.016906e+16
7.176156e+16
7.276539e+16
7.33076e+16
7.329483e+16
7.276372e+16
7.17603e+16
7.016571e+16
6.804557e+16
6.553194e+16
6.281137e+16
5.942481e+16
4.715985e+16
4.718289e+16
5.945277e+16
6.283148e+16
6.55477e+16
6.805641e+16
7.017154e+16
7.176314e+16
7.276853e+16
7.332145e+16
7.330752e+16
7.27672e+16
7.176191e+16
7.016592e+16
6.804768e+16
6.553366e+16
6.281272e+16
5.943143e+16
4.716715e+16
4.352469e+16
5.989368e+16
6.241274e+16
6.50785e+16
6.754219e+16
6.964149e+16
7.125463e+16
7.227089e+16
7.27766e+16
7.277134e+16
7.226691e+16
7.124956e+16
6.963204e+16
6.752917e+16
6.506074e+16
6.239094e+16
5.986535e+16
4.35127e+16
5.002584e+16
6.077756e+16
6.402652e+16
6.650816e+16
6.857382e+16
7.018427e+16
7.12614e+16
7.177763e+16
7.177017e+16
7.125497e+16
7.017157e+16
6.855672e+16
6.648596e+16
6.400092e+16
6.075316e+16
5.000781e+16
4.538959e+16
6.070747e+16
6.280518e+16
6.507194e+16
6.703224e+16
6.858142e+16
6.965172e+16
7.018926e+16
7.018177e+16
6.964183e+16
6.8562e+16
6.700838e+16
6.504436e+16
6.277681e+16
6.067857e+16
4.536657e+16
5.019378e+16
6.050372e+16
6.316819e+16
6.507907e+16
6.651975e+16
6.755776e+16
6.809808e+16
6.809036e+16
6.753941e+16
6.649292e+16
6.504606e+16
6.313301e+16
6.047224e+16
5.016501e+16
4.440184e+16
5.904942e+16
6.050975e+16
6.281511e+16
6.403538e+16
6.508781e+16
6.557799e+16
6.55716e+16
6.506929e+16
6.400706e+16
6.277715e+16
6.046689e+16
5.900624e+16
4.436192e+16
4.439979e+16
5.019601e+16
6.071217e+16
6.077835e+16
6.241183e+16
6.284461e+16
6.284334e+16
6.239675e+16
6.075758e+16
6.067759e+16
5.015545e+16
4.436056e+16
4.538395e+16
5.002109e+16
5.988209e+16
5.946094e+16
5.946424e+16
5.987217e+16
5.000499e+16
4.536164e+16
4.351695e+16
4.716819e+16
4.716949e+16
4.351255e+16
3.657699e+16
4.093635e+16
4.253305e+16
4.363462e+16
4.432071e+16
4.432272e+16
4.364106e+16
4.254347e+16
4.095151e+16
3.659835e+16
3.72341e+16
4.267244e+16
5.251507e+16
5.432389e+16
5.621369e+16
5.817558e+16
5.971642e+16
5.971928e+16
5.818616e+16
5.622242e+16
5.432743e+16
5.251507e+16
4.267293e+16
3.724054e+16
3.812128e+16
5.171099e+16
5.470058e+16
5.869239e+16
6.235256e+16
6.535315e+16
6.879235e+16
7.174694e+16
7.174913e+16
6.87999e+16
6.535092e+16
6.234532e+16
5.869179e+16
5.470239e+16
5.172504e+16
3.813811e+16
3.849401e+16
5.268179e+16
5.732725e+16
6.216298e+16
6.708165e+16
7.345158e+16
8.110905e+16
8.704042e+16
8.962978e+16
8.963005e+16
8.703537e+16
8.110544e+16
7.345387e+16
6.708972e+16
6.217276e+16
5.7339e+16
5.268848e+16
3.851145e+16
3.811805e+16
5.267475e+16
5.788121e+16
6.351466e+16
7.212373e+16
8.221177e+16
9.127419e+16
9.898297e+16
1.046891e+17
1.141717e+17
1.141697e+17
1.046903e+17
9.898202e+16
9.12697e+16
8.221444e+16
7.21239e+16
6.352191e+16
5.788492e+16
5.267968e+16
3.8131e+16
3.723438e+16
5.172117e+16
5.732909e+16
6.35177e+16
7.496846e+16
8.859356e+16
9.894608e+16
1.074276e+17
1.211901e+17
1.273994e+17
1.310596e+17
1.310567e+17
1.273923e+17
1.211794e+17
1.074183e+17
9.893399e+16
8.857526e+16
7.495556e+16
6.35066e+16
5.732377e+16
5.172086e+16
3.724183e+16
4.266025e+16
5.469571e+16
6.216425e+16
7.21263e+16
8.859455e+16
1.028824e+17
1.194911e+17
1.287829e+17
1.360511e+17
1.405593e+17
1.428549e+17
1.428512e+17
1.405474e+17
1.360346e+17
1.28763e+17
1.194657e+17
1.028557e+17
8.856876e+16
7.210489e+16
6.215353e+16
5.469354e+16
4.266235e+16
3.658095e+16
5.250843e+16
5.868396e+16
6.708492e+16
8.221474e+16
9.89602e+16
1.194979e+17
1.320868e+17
1.402905e+17
1.459904e+17
1.496228e+17
1.514165e+17
1.514122e+17
1.496087e+17
1.459707e+17
1.402658e+17
1.32057e+17
1.194673e+17
9.893509e+16
8.220026e+16
6.7075e+16
5.867653e+16
5.249629e+16
3.657374e+16
4.093703e+16
5.433047e+16
6.23477e+16
7.346219e+16
9.129838e+16
1.074523e+17
1.287995e+17
1.402991e+17
1.477867e+17
1.528706e+17
1.560977e+17
1.576728e+17
1.576683e+17
1.560843e+17
1.528505e+17
1.477598e+17
1.402671e+17
1.287656e+17
1.074221e+17
9.12728e+16
7.343525e+16
6.233449e+16
5.431189e+16
4.092633e+16
4.253149e+16
5.622467e+16
6.535276e+16
8.111045e+16
9.901303e+16
1.212188e+17
1.360745e+17
1.460072e+17
1.528804e+17
1.576277e+17
1.606525e+17
1.621326e+17
1.621281e+17
1.606401e+17
1.576067e+17
1.528522e+17
1.459752e+17
1.360391e+17
1.21179e+17
9.89661e+16
8.109187e+16
6.534041e+16
5.620107e+16
4.251839e+16
4.362959e+16
5.818656e+16
6.880813e+16
8.706273e+16
1.047245e+17
1.274369e+17
1.40592e+17
1.496509e+17
1.561196e+17
1.606654e+17
1.635644e+17
1.649864e+17
1.649803e+17
1.635503e+17
1.606428e+17
1.560917e+17
1.496203e+17
1.405583e+17
1.273989e+17
1.046848e+17
8.703696e+16
6.878132e+16
5.816363e+16
4.361952e+16
4.430974e+16
5.971489e+16
7.175169e+16
8.965221e+16
1.142088e+17
1.311015e+17
1.428973e+17
1.514564e+17
1.577071e+17
1.621595e+17
1.65002e+17
1.664056e+17
1.663931e+17
1.649846e+17
1.621373e+17
1.576813e+17
1.514273e+17
1.428657e+17
1.310685e+17
1.141751e+17
8.96278e+16
7.17338e+16
5.970123e+16
4.430219e+16
4.430544e+16
5.970563e+16
7.174086e+16
8.964524e+16
1.142102e+17
1.311066e+17
1.429032e+17
1.514631e+17
1.577149e+17
1.621675e+17
1.650123e+17
1.664214e+17
1.664083e+17
1.649951e+17
1.621459e+17
1.576887e+17
1.514344e+17
1.428726e+17
1.310762e+17
1.141818e+17
8.962367e+16
7.172571e+16
5.969413e+16
4.429684e+16
4.36203e+16
5.817487e+16
6.880719e+16
8.706775e+16
1.047232e+17
1.274482e+17
1.406099e+17
1.496724e+17
1.561438e+17
1.60692e+17
1.635947e+17
1.650211e+17
1.65012e+17
1.635784e+17
1.606694e+17
1.561159e+17
1.496421e+17
1.405788e+17
1.274197e+17
1.047018e+17
8.704544e+16
6.878986e+16
5.816407e+16
4.361033e+16
4.252946e+16
5.622465e+16
6.53691e+16
8.112895e+16
9.902152e+16
1.212407e+17
1.361056e+17
1.460447e+17
1.52922e+17
1.576736e+17
1.607024e+17
1.62187e+17
1.621782e+17
1.606862e+17
1.576485e+17
1.528905e+17
1.460104e+17
1.360713e+17
1.212094e+17
9.899904e+16
8.109628e+16
6.534077e+16
5.62119e+16
4.251732e+16
4.09447e+16
5.434238e+16
6.237306e+16
7.347761e+16
9.132839e+16
1.074883e+17
1.288446e+17
1.40351e+17
1.47844e+17
1.529341e+17
1.561654e+17
1.57744e+17
1.577354e+17
1.561482e+17
1.529071e+17
1.478096e+17
1.403129e+17
1.288048e+17
1.074449e+17
9.128688e+16
7.344816e+16
6.233856e+16
5.432374e+16
4.092843e+16
3.659286e+16
5.253142e+16
5.871584e+16
6.710822e+16
8.225814e+16
9.900737e+16
1.195563e+17
1.321527e+17
1.403632e+17
1.460686e+17
1.497061e+17
1.514986e+17
1.514902e+17
1.496856e+17
1.460378e+17
1.403241e+17
1.321091e+17
1.195096e+17
9.89553e+16
8.220715e+16
6.70741e+16
5.86754e+16
5.250523e+16
3.65756e+16
4.269421e+16
5.472868e+16
6.219146e+16
7.216505e+16
8.864835e+16
1.029438e+17
1.19564e+17
1.28864e+17
1.361358e+17
1.406482e+17
1.429357e+17
1.429285e+17
1.406269e+17
1.361031e+17
1.288213e+17
1.195172e+17
1.028937e+17
8.859213e+16
7.21145e+16
6.215631e+16
5.468552e+16
4.265289e+16
3.726442e+16
5.174713e+16
5.735812e+16
6.355271e+16
7.501273e+16
8.864733e+16
9.901441e+16
1.075063e+17
1.212712e+17
1.274867e+17
1.311402e+17
1.311365e+17
1.274678e+17
1.212403e+17
1.074622e+17
9.897056e+16
8.860259e+16
7.496313e+16
6.350626e+16
5.732291e+16
5.170867e+16
3.721997e+16
3.814754e+16
5.271794e+16
5.791883e+16
6.354372e+16
7.215307e+16
8.225303e+16
9.133821e+16
9.904656e+16
1.047523e+17
1.142316e+17
1.142315e+17
1.047389e+17
9.901811e+16
9.129611e+16
8.221623e+16
7.211702e+16
6.350494e+16
5.787902e+16
5.268233e+16
3.811169e+16
3.851883e+16
5.270754e+16
5.734859e+16
6.21863e+16
6.710349e+16
7.346357e+16
8.112696e+16
8.70811e+16
8.966334e+16
8.966131e+16
8.706306e+16
8.11047e+16
7.344565e+16
6.70724e+16
6.215091e+16
5.731454e+16
5.267698e+16
3.849296e+16
3.812687e+16
5.173437e+16
5.471198e+16
5.869337e+16
6.234892e+16
6.535957e+16
6.880732e+16
7.175541e+16
7.17526e+16
6.879647e+16
6.533826e+16
6.233396e+16
5.868089e+16
5.469274e+16
5.170968e+16
3.810799e+16
3.724415e+16
4.267007e+16
5.251348e+16
5.432998e+16
5.622163e+16
5.81792e+16
5.971544e+16
5.971507e+16
5.817576e+16
5.621183e+16
5.431783e+16
5.251208e+16
4.266608e+16
3.72348e+16
3.656963e+16
4.092405e+16
4.25148e+16
4.361241e+16
4.430024e+16
4.430026e+16
4.362017e+16
4.252338e+16
4.092957e+16
3.656946e+16
3.106722e+16
3.466142e+16
3.564274e+16
3.60319e+16
3.602589e+16
3.562561e+16
3.463279e+16
3.105092e+16
3.100046e+16
3.647359e+16
3.970601e+16
4.829012e+16
5.01031e+16
5.115293e+16
5.163577e+16
5.163005e+16
5.113506e+16
5.007615e+16
4.828703e+16
3.971396e+16
3.64897e+16
3.103311e+16
3.404635e+16
4.689742e+16
5.120016e+16
5.576494e+16
6.088144e+16
6.336561e+16
6.490834e+16
6.564073e+16
6.563584e+16
6.489399e+16
6.334386e+16
6.086089e+16
5.575953e+16
5.120487e+16
4.690969e+16
3.407966e+16
3.197016e+16
3.893243e+16
5.031904e+16
5.863987e+16
6.73131e+16
7.555252e+16
8.045449e+16
8.346155e+16
8.548837e+16
8.654568e+16
8.653939e+16
8.547041e+16
8.34343e+16
8.042214e+16
7.552329e+16
6.729789e+16
5.864531e+16
5.032081e+16
3.894564e+16
3.197919e+16
3.227305e+16
4.611437e+16
5.308582e+16
6.409706e+16
7.683041e+16
8.677188e+16
9.50784e+16
1.083068e+17
1.145724e+17
1.182762e+17
1.201318e+17
1.201253e+17
1.18259e+17
1.145484e+17
1.082827e+17
9.506827e+16
8.676381e+16
7.682012e+16
6.408482e+16
5.30944e+16
4.611079e+16
3.2276e+16
3.197059e+16
4.612285e+16
5.467678e+16
6.652276e+16
8.200565e+16
9.429163e+16
1.113321e+17
1.224478e+17
1.320783e+17
1.392149e+17
1.439794e+17
1.463767e+17
1.463699e+17
1.439625e+17
1.391841e+17
1.320386e+17
1.224096e+17
1.112937e+17
9.426176e+16
8.198367e+16
6.651821e+16
5.466514e+16
4.611218e+16
3.19726e+16
3.894514e+16
5.309864e+16
6.652746e+16
8.326337e+16
9.731632e+16
1.173767e+17
1.32194e+17
1.442767e+17
1.544977e+17
1.626965e+17
1.682856e+17
1.706384e+17
1.706301e+17
1.682607e+17
1.626592e+17
1.544567e+17
1.442374e+17
1.321533e+17
1.173396e+17
9.72843e+16
8.322908e+16
6.651174e+16
5.309209e+16
3.894505e+16
3.407446e+16
5.032351e+16
6.409375e+16
8.201873e+16
9.731364e+16
1.192023e+17
1.367212e+17
1.520542e+17
1.652451e+17
1.76135e+17
1.843785e+17
1.902161e+17
1.936045e+17
1.935963e+17
1.901927e+17
1.843428e+17
1.760918e+17
1.651984e+17
1.520051e+17
1.366788e+17
1.191624e+17
9.728559e+16
8.199231e+16
6.408226e+16
5.031708e+16
3.406653e+16
3.100794e+16
4.690675e+16
5.864616e+16
7.683353e+16
9.431789e+16
1.173991e+17
1.36733e+17
1.547811e+17
1.710008e+17
1.843962e+17
1.954319e+17
2.046696e+17
2.111737e+17
2.146935e+17
2.146851e+17
2.111497e+17
2.046336e+17
1.953875e+17
1.843429e+17
1.709425e+17
1.547266e+17
1.366801e+17
1.173522e+17
9.428133e+16
7.679753e+16
5.863961e+16
4.68936e+16
3.099789e+16
3.648388e+16
5.121074e+16
6.73088e+16
8.679537e+16
1.113577e+17
1.322241e+17
1.520703e+17
1.710066e+17
1.873511e+17
2.019151e+17
2.137321e+17
2.229296e+17
2.291173e+17
2.322775e+17
2.322687e+17
2.290925e+17
2.228928e+17
2.136858e+17
2.018599e+17
1.872909e+17
1.709457e+17
1.520107e+17
1.321714e+17
1.113127e+17
8.674764e+16
6.730031e+16
5.120412e+16
3.64737e+16
3.970843e+16
5.575924e+16
7.553265e+16
9.511719e+16
1.224812e+17
1.443128e+17
1.652677e+17
1.844149e+17
2.01926e+17
2.170784e+17
2.288931e+17
2.376251e+17
2.433808e+17
2.462522e+17
2.462435e+17
2.43356e+17
2.375883e+17
2.28847e+17
2.170245e+17
2.018682e+17
1.843569e+17
1.652129e+17
1.442613e+17
1.224374e+17
9.507276e+16
7.553753e+16
5.576335e+16
3.970254e+16
3.106591e+16
4.829852e+16
6.08623e+16
8.044085e+16
1.083443e+17
1.321211e+17
1.545418e+17
1.761783e+17
1.954702e+17
2.137593e+17
2.28908e+17
2.40461e+17
2.488113e+17
2.542478e+17
2.569319e+17
2.569235e+17
2.542238e+17
2.487752e+17
2.404155e+17
2.288556e+17
2.137026e+17
1.954122e+17
1.76122e+17
1.544871e+17
1.320749e+17
1.083029e+17
8.044559e+16
6.087019e+16
4.827949e+16
3.105681e+16
3.4642e+16
5.008974e+16
6.335523e+16
8.346465e+16
1.146152e+17
1.392688e+17
1.627462e+17
1.844348e+17
2.047225e+17
2.229732e+17
2.376574e+17
2.488298e+17
2.568793e+17
2.621049e+17
2.646805e+17
2.646719e+17
2.620809e+17
2.568427e+17
2.487846e+17
2.376067e+17
2.229184e+17
2.046645e+17
1.843773e+17
1.627001e+17
1.392227e+17
1.145757e+17
8.345759e+16
6.33526e+16
5.008525e+16
3.463989e+16
3.563211e+16
5.114577e+16
6.490777e+16
8.550787e+16
1.183297e+17
1.440493e+17
1.683561e+17
1.902886e+17
2.112435e+17
2.291794e+17
2.434335e+17
2.542883e+17
2.621281e+17
2.672184e+17
2.697251e+17
2.697151e+17
2.671919e+17
2.620894e+17
2.542428e+17
2.433849e+17
2.291284e+17
2.111901e+17
1.902364e+17
1.6831e+17
1.440013e+17
1.182913e+17
8.549059e+16
6.48986e+16
5.113799e+16
3.562425e+16
3.603415e+16
5.164599e+16
6.565548e+16
8.658071e+16
1.201957e+17
1.464538e+17
1.707225e+17
1.936922e+17
2.147808e+17
2.323601e+17
2.463276e+17
2.569965e+17
2.647292e+17
2.697523e+17
2.72226e+17
2.722134e+17
2.697229e+17
2.646888e+17
2.569507e+17
2.462802e+17
2.323123e+17
2.147327e+17
1.936452e+17
1.706796e+17
1.464123e+17
1.201588e+17
8.655599e+16
6.56363e+16
5.162752e+16
3.602172e+16
3.603969e+16
5.165258e+16
6.566175e+16
8.658814e+16
1.201999e+17
1.464564e+17
1.707273e+17
1.936997e+17
2.147916e+17
2.323733e+17
2.463426e+17
2.570127e+17
2.647463e+17
2.697709e+17
2.722465e+17
2.722335e+17
2.69741e+17
2.647056e+17
2.569666e+17
2.462954e+17
2.323272e+17
2.147474e+17
1.936573e+17
1.706866e+17
1.464178e+17
1.201632e+17
8.655684e+16
6.563601e+16
5.162826e+16
3.602396e+16
3.565023e+16
5.116957e+16
6.492982e+16
8.553136e+16
1.183443e+17
1.440677e+17
1.683829e+17
1.903153e+17
2.112766e+17
2.292195e+17
2.434789e+17
2.543375e+17
2.621804e+17
2.672739e+17
2.697831e+17
2.697714e+17
2.672451e+17
2.621401e+17
2.542914e+17
2.434318e+17
2.291741e+17
2.112342e+17
1.902748e+17
1.683405e+17
1.440286e+17
1.183054e+17
8.548843e+16
6.489676e+16
5.114059e+16
3.563119e+16
3.467344e+16
5.012677e+16
6.339182e+16
8.350756e+16
1.14644e+17
1.393071e+17
1.627976e+17
1.844877e+17
2.047816e+17
2.230413e+17
2.377336e+17
2.489124e+17
2.569673e+17
2.621973e+17
2.647753e+17
2.647645e+17
2.621702e+17
2.569279e+17
2.488663e+17
2.37686e+17
2.229951e+17
2.047372e+17
1.844437e+17
1.627494e+17
1.392634e+17
1.146003e+17
8.344779e+16
6.334961e+16
5.009405e+16
3.465175e+16
3.110184e+16
4.833107e+16
6.091854e+16
8.050945e+16
1.083867e+17
1.321787e+17
1.546046e+17
1.762551e+17
1.955565e+17
2.138558e+17
2.290139e+17
2.405755e+17
2.489333e+17
2.543748e+17
2.570601e+17
2.5705e+17
2.543489e+17
2.488952e+17
2.405299e+17
2.289654e+17
2.138064e+17
1.955065e+17
1.762075e+17
1.545616e+17
1.321307e+17
1.083417e+17
8.043398e+16
6.086964e+16
4.830351e+16
3.107826e+16
3.974231e+16
5.581622e+16
7.561642e+16
9.516106e+16
1.225539e+17
1.443855e+17
1.653624e+17
1.845234e+17
2.020461e+17
2.172097e+17
2.290354e+17
2.37776e+17
2.435364e+17
2.464045e+17
2.463949e+17
2.435106e+17
2.377378e+17
2.289892e+17
2.171597e+17
2.019935e+17
1.844689e+17
1.653138e+17
1.443422e+17
1.224987e+17
9.512351e+16
7.553222e+16
5.576309e+16
3.971284e+16
3.650526e+16
5.125412e+16
6.738063e+16
8.685798e+16
1.114411e+17
1.323031e+17
1.521682e+17
1.711254e+17
1.874834e+17
2.020625e+17
2.138941e+17
2.231007e+17
2.292923e+17
2.324455e+17
2.324366e+17
2.292666e+17
2.230618e+17
2.13847e+17
2.02013e+17
1.87432e+17
1.710715e+17
1.521204e+17
1.322551e+17
1.113782e+17
8.681657e+16
6.731334e+16
5.121363e+16
3.648681e+16
3.101677e+16
4.695341e+16
5.870848e+16
7.690089e+16
9.439356e+16
1.174787e+17
1.368292e+17
1.548981e+17
1.711341e+17
1.84549e+17
1.956038e+17
2.048497e+17
2.113582e+17
2.148725e+17
2.148654e+17
2.113342e+17
2.048112e+17
1.955566e+17
1.845028e+17
1.71088e+17
1.548509e+17
1.367841e+17
1.1743e+17
9.4327e+16
7.686033e+16
5.865069e+16
4.691087e+16
3.10132e+16
3.408134e+16
5.036495e+16
6.41537e+16
8.207516e+16
9.739348e+16
1.19295e+17
1.36832e+17
1.521791e+17
1.653884e+17
1.762999e+17
1.845524e+17
1.903938e+17
1.937778e+17
1.937727e+17
1.903735e+17
1.845171e+17
1.762568e+17
1.65348e+17
1.521388e+17
1.367911e+17
1.192564e+17
9.735665e+16
8.204014e+16
6.411323e+16
5.032955e+16
3.40642e+16
3.896891e+16
5.314069e+16
6.657965e+16
8.332653e+16
9.738525e+16
1.174812e+17
1.32316e+17
1.444108e+17
1.546376e+17
1.628474e+17
1.6845e+17
1.708041e+17
1.707987e+17
1.684317e+17
1.628199e+17
1.546077e+17
1.443746e+17
1.322787e+17
1.174459e+17
9.735606e+16
8.329529e+16
6.654582e+16
5.31028e+16
3.894146e+16
3.200001e+16
4.615802e+16
5.471906e+16
6.657213e+16
8.208255e+16
9.438798e+16
1.114313e+17
1.225599e+17
1.321997e+17
1.393458e+17
1.441197e+17
1.465174e+17
1.465129e+17
1.441098e+17
1.393267e+17
1.321764e+17
1.225383e+17
1.114159e+17
9.436792e+16
8.205934e+16
6.654986e+16
5.469433e+16
4.613291e+16
3.197883e+16
3.229025e+16
4.615446e+16
5.3139e+16
6.413496e+16
7.687177e+16
8.682322e+16
9.51555e+16
1.083901e+17
1.146572e+17
1.183673e+17
1.202249e+17
1.202213e+17
1.183696e+17
1.14661e+17
1.083896e+17
9.514754e+16
8.683066e+16
7.687831e+16
6.413233e+16
5.312485e+16
4.613917e+16
3.227849e+16
3.199245e+16
3.896813e+16
5.034484e+16
5.867592e+16
6.733499e+16
7.557247e+16
8.046527e+16
8.346901e+16
8.550742e+16
8.660657e+16
8.659784e+16
8.552664e+16
8.349774e+16
8.049253e+16
7.559488e+16
6.735021e+16
5.867884e+16
5.034381e+16
3.895723e+16
3.198812e+16
3.406714e+16
4.691417e+16
5.122244e+16
5.57773e+16
6.087693e+16
6.335276e+16
6.490033e+16
6.56571e+16
6.564728e+16
6.490911e+16
6.336389e+16
6.088677e+16
5.577944e+16
5.121757e+16
4.69285e+16
3.406506e+16
3.099657e+16
3.648429e+16
3.971105e+16
4.830221e+16
5.009179e+16
5.114069e+16
5.165322e+16
5.164906e+16
5.113884e+16
5.008829e+16
4.83057e+16
3.971041e+16
3.647827e+16
3.100692e+16
3.107299e+16
3.464348e+16
3.56232e+16
3.60287e+16
3.602551e+16
3.561884e+16
3.463545e+16
3.105461e+16
2.751985e+16
3.052641e+16
3.124446e+16
3.123743e+16
3.0507e+16
2.751174e+16
2.65319e+16
3.223989e+16
3.577393e+16
3.947167e+16
4.723899e+16
4.910161e+16
4.984214e+16
4.98258e+16
4.906134e+16
4.719799e+16
3.947655e+16
3.579373e+16
3.226118e+16
2.656668e+16
2.674735e+16
3.368641e+16
4.449336e+16
5.134698e+16
5.711102e+16
6.406655e+16
6.845621e+16
7.03967e+16
7.135611e+16
7.133541e+16
7.034514e+16
6.841036e+16
6.405728e+16
5.710868e+16
5.133577e+16
4.450781e+16
3.371718e+16
2.678899e+16
2.972966e+16
4.340905e+16
5.276059e+16
6.467295e+16
7.234165e+16
7.994651e+16
8.661203e+16
9.778061e+16
1.021469e+17
1.039047e+17
1.038849e+17
1.020945e+17
9.771704e+16
8.656137e+16
7.989615e+16
7.230323e+16
6.462789e+16
5.277291e+16
4.34208e+16
2.976587e+16
3.167012e+16
4.757346e+16
6.014986e+16
7.371859e+16
8.522869e+16
1.013642e+17
1.118578e+17
1.199665e+17
1.267647e+17
1.309618e+17
1.329045e+17
1.328857e+17
1.309097e+17
1.266926e+17
1.198928e+17
1.117951e+17
1.013166e+17
8.519504e+16
7.367707e+16
6.014777e+16
4.756736e+16
3.168269e+16
3.271898e+16
5.078165e+16
6.683315e+16
8.000684e+16
9.288844e+16
1.138846e+17
1.290168e+17
1.408058e+17
1.493486e+17
1.558869e+17
1.601451e+17
1.62214e+17
1.621959e+17
1.60094e+17
1.558122e+17
1.492625e+17
1.407186e+17
1.289405e+17
1.138339e+17
9.285407e+16
7.995864e+16
6.679206e+16
5.07546e+16
3.271063e+16
3.168162e+16
5.079e+16
6.949498e+16
8.46322e+16
1.06105e+17
1.237808e+17
1.412996e+17
1.561237e+17
1.684697e+17
1.789452e+17
1.866713e+17
1.916099e+17
1.940145e+17
1.939972e+17
1.915617e+17
1.866012e+17
1.788645e+17
1.683874e+17
1.560418e+17
1.41224e+17
1.237056e+17
1.060373e+17
8.457273e+16
6.942024e+16
5.075615e+16
3.167154e+16
2.974892e+16
4.75833e+16
6.685826e+16
8.463624e+16
1.087078e+17
1.297463e+17
1.491172e+17
1.664282e+17
1.82758e+17
1.966548e+17
2.080913e+17
2.165595e+17
2.220371e+17
2.247133e+17
2.246967e+17
2.219908e+17
2.164893e+17
2.080064e+17
1.965637e+17
1.82663e+17
1.663344e+17
1.49024e+17
1.296598e+17
1.086274e+17
8.457446e+16
6.680355e+16
4.756061e+16
2.97402e+16
2.676546e+16
4.34229e+16
6.018853e+16
8.002439e+16
1.061255e+17
1.297611e+17
1.518208e+17
1.716194e+17
1.90924e+17
2.085236e+17
2.233943e+17
2.354625e+17
2.445605e+17
2.504804e+17
2.532992e+17
2.532824e+17
2.504325e+17
2.444887e+17
2.353768e+17
2.233014e+17
2.084248e+17
1.908229e+17
1.715153e+17
1.517145e+17
1.296656e+17
1.060457e+17
7.996916e+16
6.015932e+16
4.340397e+16
2.67576e+16
3.370779e+16
5.280021e+16
7.372704e+16
9.294265e+16
1.238165e+17
1.491501e+17
1.71638e+17
1.935767e+17
2.141678e+17
2.325192e+17
2.481288e+17
2.607274e+17
2.702828e+17
2.767066e+17
2.799855e+17
2.799692e+17
2.766599e+17
2.702127e+17
2.606428e+17
2.480346e+17
2.324182e+17
2.140649e+17
1.93471e+17
1.715318e+17
1.490461e+17
1.237263e+17
9.287558e+16
7.369007e+16
5.277793e+16
3.370311e+16
2.655728e+16
4.451005e+16
6.467516e+16
8.526235e+16
1.139505e+17
1.413536e+17
1.664815e+17
1.909647e+17
2.141881e+17
2.35476e+17
2.543547e+17
2.704935e+17
2.836917e+17
2.939825e+17
3.0105e+17
3.046856e+17
3.046701e+17
3.010059e+17
2.939162e+17
2.836105e+17
2.704007e+17
2.54254e+17
2.353716e+17
2.140799e+17
1.908554e+17
1.663738e+17
1.41251e+17
1.138659e+17
8.518475e+16
6.465113e+16
4.449464e+16
2.656605e+16
3.224138e+16
5.135192e+16
7.234756e+16
1.014246e+17
1.290804e+17
1.561917e+17
1.828231e+17
2.08579e+17
2.325534e+17
2.543692e+17
2.737389e+17
2.906532e+17
3.04613e+17
3.154001e+17
3.227236e+17
3.264361e+17
3.264217e+17
3.226828e+17
3.15339e+17
3.045375e+17
2.905664e+17
2.736438e+17
2.542688e+17
2.324487e+17
2.084732e+17
1.827174e+17
1.560858e+17
1.289921e+17
1.013345e+17
7.229721e+16
5.13298e+16
3.224136e+16
3.578863e+16
5.713563e+16
7.998567e+16
1.119364e+17
1.408715e+17
1.685533e+17
1.96734e+17
2.234622e+17
2.481762e+17
2.705236e+17
2.906686e+17
3.082863e+17
3.226851e+17
3.336164e+17
3.409477e+17
3.446253e+17
3.446122e+17
3.409106e+17
3.335608e+17
3.226167e+17
3.082084e+17
2.905834e+17
2.704332e+17
2.48082e+17
2.233659e+17
1.966367e+17
1.684535e+17
1.407869e+17
1.118392e+17
7.990703e+16
5.708059e+16
3.576135e+16
3.949518e+16
6.41316e+16
8.669571e+16
1.200587e+17
1.494308e+17
1.790404e+17
2.081849e+17
2.355445e+17
2.60794e+17
2.837428e+17
3.046486e+17
3.227047e+17
3.372718e+17
3.481881e+17
3.554436e+17
3.590605e+17
3.590485e+17
3.554096e+17
3.481371e+17
3.372095e+17
3.226346e+17
3.045724e+17
2.836619e+17
2.607099e+17
2.354579e+17
2.080966e+17
1.789506e+17
1.493485e+17
1.199605e+17
8.659357e+16
6.402639e+16
3.944458e+16
2.753965e+16
4.72593e+16
6.852892e+16
9.787999e+16
1.268696e+17
1.559897e+17
1.867823e+17
2.166706e+17
2.446595e+17
2.703701e+17
2.940566e+17
3.154597e+17
3.336605e+17
3.482133e+17
3.590477e+17
3.662167e+17
3.697809e+17
3.697689e+17
3.661832e+17
3.58998e+17
3.481542e+17
3.335963e+17
3.153912e+17
2.939844e+17
2.70296e+17
2.445851e+17
2.16591e+17
1.867003e+17
1.559063e+17
1.267684e+17
9.776435e+16
6.841875e+16
4.719401e+16
2.750448e+16
3.052605e+16
4.912754e+16
7.046447e+16
1.022523e+17
1.310811e+17
1.60272e+17
1.917438e+17
2.221721e+17
2.506056e+17
2.768206e+17
3.011517e+17
3.228118e+17
3.410215e+17
3.554998e+17
3.662486e+17
3.733476e+17
3.768716e+17
3.768584e+17
3.733113e+17
3.661965e+17
3.554405e+17
3.409604e+17
3.227495e+17
3.010875e+17
2.767552e+17
2.505388e+17
2.220992e+17
1.916674e+17
1.601897e+17
1.309858e+17
1.021462e+17
7.03696e+16
4.906735e+16
3.050999e+16
3.125669e+16
4.988264e+16
7.142866e+16
1.040273e+17
1.330494e+17
1.623703e+17
1.941767e+17
2.248751e+17
2.534536e+17
2.8013e+17
3.048191e+17
3.265575e+17
3.447335e+17
3.591519e+17
3.698492e+17
3.769093e+17
3.804117e+17
3.803968e+17
3.768697e+17
3.697937e+17
3.590907e+17
3.446728e+17
3.264985e+17
3.047605e+17
2.800707e+17
2.533923e+17
2.248084e+17
1.941043e+17
1.622905e+17
1.32961e+17
1.039376e+17
7.136227e+16
4.983939e+16
3.12445e+16
3.126103e+16
4.989279e+16
7.144736e+16
1.040404e+17
1.33063e+17
1.623839e+17
1.941899e+17
2.248884e+17
2.534689e+17
2.801472e+17
3.048387e+17
3.265797e+17
3.447579e+17
3.591779e+17
3.698762e+17
3.76937e+17
3.804397e+17
3.804241e+17
3.768956e+17
3.698185e+17
3.591148e+17
3.446964e+17
3.265218e+17
3.04783e+17
2.800913e+17
2.534104e+17
2.248255e+17
1.941201e+17
1.623062e+17
1.329805e+17
1.039597e+17
7.138449e+16
4.985598e+16
3.125398e+16
3.054919e+16
4.914939e+16
7.048695e+16
1.022795e+17
1.311174e+17
1.603115e+17
1.917824e+17
2.22214e+17
2.506548e+17
2.768743e+17
3.012116e+17
3.22879e+17
3.410952e+17
3.555782e+17
3.663303e+17
3.73431e+17
3.769553e+17
3.769401e+17
3.7339e+17
3.662725e+17
3.555147e+17
3.410335e+17
3.228214e+17
3.011569e+17
2.768193e+17
2.505963e+17
2.221519e+17
1.917125e+17
1.602324e+17
1.310403e+17
1.02208e+17
7.043174e+16
4.911629e+16
3.053873e+16
2.757243e+16
4.726318e+16
6.853688e+16
9.791111e+16
1.269205e+17
1.560532e+17
1.868452e+17
2.167415e+17
2.447432e+17
2.704628e+17
2.941587e+17
3.155727e+17
3.337838e+17
3.483447e+17
3.591846e+17
3.663566e+17
3.69921e+17
3.699066e+17
3.663176e+17
3.591289e+17
3.482826e+17
3.337228e+17
3.155153e+17
2.941035e+17
2.704068e+17
2.446835e+17
2.166783e+17
1.867733e+17
1.559697e+17
1.268489e+17
9.785139e+16
6.849787e+16
4.724134e+16
2.755991e+16
3.951448e+16
6.412651e+16
8.673248e+16
1.201214e+17
1.495173e+17
1.791256e+17
2.082835e+17
2.356566e+17
2.609218e+17
2.838855e+17
3.04806e+17
3.228756e+17
3.374541e+17
3.483787e+17
3.556386e+17
3.59256e+17
3.592427e+17
3.556023e+17
3.483265e+17
3.373951e+17
3.228166e+17
3.04749e+17
2.838299e+17
2.608668e+17
2.355996e+17
2.082196e+17
1.790541e+17
1.494304e+17
1.200569e+17
8.668429e+16
6.410636e+16
3.948894e+16
3.580923e+16
5.716542e+16
8.003289e+16
1.119984e+17
1.409717e+17
1.686538e+17
1.968547e+17
2.235965e+17
2.483313e+17
2.706991e+17
2.908625e+17
3.084975e+17
3.229114e+17
3.338538e+17
3.411909e+17
3.448686e+17
3.448562e+17
3.411566e+17
3.338042e+17
3.22855e+17
3.084403e+17
2.908062e+17
2.706435e+17
2.482778e+17
2.235404e+17
1.967894e+17
1.685871e+17
1.408859e+17
1.119441e+17
7.998641e+16
5.712747e+16
3.57772e+16
3.228086e+16
5.140591e+16
7.241631e+16
1.014839e+17
1.291757e+17
1.56305e+17
1.829583e+17
2.087272e+17
2.327234e+17
2.545642e+17
2.739562e+17
2.908926e+17
3.04872e+17
3.156729e+17
3.230035e+17
3.267163e+17
3.267043e+17
3.229699e+17
3.156239e+17
3.048165e+17
2.90837e+17
2.739022e+17
2.545105e+17
2.32671e+17
2.086699e+17
1.82892e+17
1.562436e+17
1.291063e+17
1.014435e+17
7.235794e+16
5.135472e+16
3.224256e+16
2.659125e+16
4.455123e+16
6.475923e+16
8.531184e+16
1.140216e+17
1.414616e+17
1.666149e+17
1.911168e+17
2.143646e+17
2.356803e+17
2.545847e+17
2.70749e+17
2.839702e+17
2.942763e+17
3.013525e+17
3.049902e+17
3.049788e+17
3.013196e+17
2.942276e+17
2.83915e+17
2.706949e+17
2.545328e+17
2.356294e+17
2.143143e+17
1.910622e+17
1.665552e+17
1.414151e+17
1.139787e+17
8.529009e+16
6.46813e+16
4.451742e+16
2.65609e+16
3.373511e+16
5.283426e+16
7.379848e+16
9.298068e+16
1.239152e+17
1.492729e+17
1.717872e+17
1.937542e+17
2.143753e+17
2.327532e+17
2.483883e+17
2.610099e+17
2.70581e+17
2.770145e+17
2.802974e+17
2.802873e+17
2.769843e+17
2.705353e+17
2.609578e+17
2.483373e+17
2.327044e+17
2.14328e+17
1.937091e+17
1.717428e+17
1.492317e+17
1.238797e+17
9.296591e+16
7.375982e+16
5.280123e+16
3.370853e+16
2.677748e+16
4.346061e+16
6.023625e+16
8.011363e+16
1.062295e+17
1.298793e+17
1.519646e+17
1.717933e+17
1.911304e+17
2.087561e+17
2.236494e+17
2.357352e+17
2.448482e+17
2.507805e+17
2.536065e+17
2.535973e+17
2.507544e+17
2.448094e+17
2.356911e+17
2.236043e+17
2.087129e+17
1.910885e+17
1.717536e+17
1.519251e+17
1.29838e+17
1.061839e+17
8.006881e+16
6.019994e+16
4.343802e+16
2.677175e+16
2.976028e+16
4.763368e+16
6.693128e+16
8.471003e+16
1.088032e+17
1.29876e+17
1.492818e+17
1.666235e+17
1.829708e+17
1.968893e+17
2.083429e+17
2.168243e+17
2.223139e+17
2.249976e+17
2.249901e+17
2.222953e+17
2.167965e+17
2.083105e+17
1.968584e+17
1.829439e+17
1.665924e+17
1.49249e+17
1.298479e+17
1.087765e+17
8.468778e+16
6.688362e+16
4.760552e+16
2.975504e+16
3.169678e+16
5.082564e+16
6.957506e+16
8.469561e+16
1.062219e+17
1.239174e+17
1.4146e+17
1.562986e+17
1.686665e+17
1.791558e+17
1.868925e+17
1.918445e+17
1.942609e+17
1.942544e+17
1.918356e+17
1.868821e+17
1.791435e+17
1.686546e+17
1.5629e+17
1.414412e+17
1.238921e+17
1.062037e+17
8.468152e+16
6.955195e+16
5.080985e+16
3.168684e+16
3.273076e+16
5.081825e+16
6.692814e+16
8.010659e+16
9.300266e+16
1.140242e+17
1.29162e+17
1.409581e+17
1.495137e+17
1.560632e+17
1.603393e+17
1.624335e+17
1.624246e+17
1.603357e+17
1.560625e+17
1.495144e+17
1.409631e+17
1.291601e+17
1.14006e+17
9.296804e+16
8.009499e+16
6.691952e+16
5.081322e+16
3.272705e+16
3.167897e+16
4.760434e+16
6.023458e+16
7.379006e+16
8.529053e+16
1.014658e+17
1.119838e+17
1.201147e+17
1.269232e+17
1.311316e+17
1.330851e+17
1.330735e+17
1.311177e+17