/*--------------------------------*- C++ -*----------------------------------*\
  =========                 |
  \\      /  F ield         | OpenFOAM: The Open Source CFD Toolbox
   \\    /   O peration     | Website:  https://openfoam.org
    \\  /    A nd           | Version:  6
     \\/     M anipulation  |
\*---------------------------------------------------------------------------*/
FoamFile
{
    version     2.0;
    format      ascii;
    class       volScalarField;
    location    "50/region0/neutronTransport";
    object      discFlux0;
}
// * * * * * * * * * * * * * * * * * * * * * * * * * * * * * * * * * * * * * //

dimensions      [0 -2 -1 0 0 0 0];

internalField   nonuniform List<scalar> 
203709
(
4.283915e+16
4.644275e+16
4.644028e+16
4.285279e+16
4.465633e+16
4.92314e+16
5.893639e+16
5.851024e+16
5.850727e+16
5.894227e+16
4.924059e+16
4.467273e+16
4.365633e+16
4.936625e+16
5.97204e+16
5.980137e+16
6.141156e+16
6.183145e+16
6.183311e+16
6.141906e+16
5.981325e+16
5.973974e+16
4.938713e+16
4.367895e+16
4.365278e+16
5.80587e+16
5.95026e+16
6.177491e+16
6.298547e+16
6.402759e+16
6.449566e+16
6.450102e+16
6.403588e+16
6.29982e+16
6.179525e+16
5.952703e+16
5.808808e+16
4.367846e+16
4.935171e+16
5.949386e+16
6.211426e+16
6.399569e+16
6.541757e+16
6.644263e+16
6.695535e+16
6.69602e+16
6.644976e+16
6.543012e+16
6.401474e+16
6.213606e+16
5.95184e+16
4.93742e+16
4.462831e+16
5.969275e+16
6.175828e+16
6.398701e+16
6.591779e+16
6.744233e+16
6.850114e+16
6.902915e+16
6.903185e+16
6.850843e+16
6.745537e+16
6.593254e+16
6.400525e+16
6.178107e+16
5.971967e+16
4.464662e+16
4.918853e+16
5.976095e+16
6.295615e+16
6.53974e+16
6.743356e+16
6.901919e+16
7.008001e+16
7.058666e+16
7.058845e+16
7.008719e+16
6.902782e+16
6.74449e+16
6.541695e+16
6.298185e+16
5.978936e+16
4.921638e+16
4.280211e+16
5.888424e+16
6.136581e+16
6.399157e+16
6.641856e+16
6.848645e+16
7.007488e+16
7.107282e+16
7.156829e+16
7.156964e+16
7.107849e+16
7.008156e+16
6.849963e+16
6.643903e+16
6.401848e+16
6.139793e+16
5.892364e+16
4.282152e+16
4.638478e+16
5.844504e+16
6.177257e+16
6.445137e+16
6.692273e+16
6.900626e+16
7.057604e+16
7.156422e+16
7.209706e+16
7.208465e+16
7.156451e+16
7.058223e+16
6.902027e+16
6.694205e+16
6.447648e+16
6.180635e+16
5.847944e+16
4.641186e+16
4.638655e+16
5.845151e+16
6.177246e+16
6.444484e+16
6.691655e+16
6.900265e+16
7.057216e+16
7.156194e+16
7.210472e+16
7.209016e+16
7.155984e+16
7.057482e+16
6.901105e+16
6.693489e+16
6.44697e+16
6.180037e+16
5.847996e+16
4.641467e+16
4.278605e+16
5.888247e+16
6.13577e+16
6.398006e+16
6.640657e+16
6.847608e+16
7.006681e+16
7.10684e+16
7.15658e+16
7.156006e+16
7.106456e+16
7.006679e+16
6.848089e+16
6.641916e+16
6.399854e+16
6.137963e+16
5.890207e+16
4.281383e+16
4.917471e+16
5.974761e+16
6.294346e+16
6.538676e+16
6.742199e+16
6.900953e+16
7.007183e+16
7.058156e+16
7.057567e+16
7.00706e+16
6.900759e+16
6.74232e+16
6.539168e+16
6.295353e+16
5.976514e+16
4.919746e+16
4.461418e+16
5.967748e+16
6.174089e+16
6.397208e+16
6.590295e+16
6.743011e+16
6.848659e+16
6.901902e+16
6.901515e+16
6.848729e+16
6.742828e+16
6.590348e+16
6.397556e+16
6.174979e+16
5.969162e+16
4.462919e+16
4.933803e+16
5.947738e+16
6.209937e+16
6.398164e+16
6.540253e+16
6.642802e+16
6.696419e+16
6.696109e+16
6.642313e+16
6.539717e+16
6.397702e+16
6.209831e+16
5.948431e+16
4.934667e+16
4.364509e+16
5.805001e+16
5.94881e+16
6.175858e+16
6.296284e+16
6.400246e+16
6.448909e+16
6.448699e+16
6.399656e+16
6.295478e+16
6.174765e+16
5.947769e+16
5.804393e+16
4.363818e+16
4.365079e+16
4.935194e+16
5.969638e+16
5.976471e+16
6.137471e+16
6.180379e+16
6.18057e+16
6.136923e+16
5.975942e+16
5.96831e+16
4.933485e+16
4.363612e+16
4.462776e+16
4.918946e+16
5.888906e+16
5.847716e+16
5.848245e+16
5.888555e+16
4.918294e+16
4.461756e+16
4.279635e+16
4.638785e+16
4.639018e+16
4.279506e+16
3.600286e+16
4.029404e+16
4.186545e+16
4.294958e+16
4.362461e+16
4.362573e+16
4.295304e+16
4.187027e+16
4.030067e+16
3.601297e+16
3.664803e+16
4.200138e+16
5.169126e+16
5.347204e+16
5.533273e+16
5.726439e+16
5.878135e+16
5.87837e+16
5.727316e+16
5.533806e+16
5.34706e+16
5.168586e+16
4.199171e+16
3.664338e+16
3.751696e+16
5.089417e+16
5.383767e+16
5.776815e+16
6.137282e+16
6.43281e+16
6.771515e+16
7.062477e+16
7.062701e+16
6.77225e+16
6.432502e+16
6.136398e+16
5.776516e+16
5.383654e+16
5.090667e+16
3.752581e+16
3.787887e+16
5.184277e+16
5.641555e+16
6.117718e+16
6.602115e+16
7.229486e+16
7.983649e+16
8.567913e+16
8.823086e+16
8.823272e+16
8.567857e+16
7.983813e+16
7.230265e+16
6.603465e+16
6.119254e+16
5.643329e+16
5.185623e+16
3.789641e+16
3.750377e+16
5.182845e+16
5.695148e+16
6.249666e+16
7.097334e+16
8.090764e+16
8.983387e+16
9.742755e+16
1.030491e+17
1.123886e+17
1.123903e+17
1.030601e+17
9.744142e+16
8.984807e+16
8.093036e+16
7.099411e+16
6.252377e+16
5.69746e+16
5.185213e+16
3.752748e+16
3.663026e+16
5.088369e+16
5.639919e+16
6.248818e+16
7.376004e+16
8.717671e+16
9.737204e+16
1.057258e+17
1.192793e+17
1.25398e+17
1.290074e+17
1.290102e+17
1.254074e+17
1.192946e+17
1.057486e+17
9.739679e+16
8.719862e+16
7.37866e+16
6.25133e+16
5.642733e+16
5.091312e+16
3.665581e+16
4.196356e+16
5.380227e+16
6.114777e+16
7.095031e+16
8.71627e+16
1.012297e+17
1.17582e+17
1.267342e+17
1.338962e+17
1.383417e+17
1.406093e+17
1.406129e+17
1.383515e+17
1.339147e+17
1.267608e+17
1.176115e+17
1.012603e+17
8.719407e+16
7.098136e+16
6.118377e+16
5.383991e+16
4.199398e+16
3.598134e+16
5.164884e+16
5.771989e+16
6.598199e+16
8.087014e+16
9.735453e+16
1.17571e+17
1.299666e+17
1.38048e+17
1.436664e+17
1.472504e+17
1.490247e+17
1.490288e+17
1.472615e+17
1.436875e+17
1.380779e+17
1.300022e+17
1.176116e+17
9.739762e+16
8.091762e+16
6.602408e+16
5.775687e+16
5.167463e+16
3.599601e+16
4.026388e+16
5.343724e+16
6.132021e+16
7.225205e+16
8.980484e+16
1.057033e+17
1.267141e+17
1.380367e+17
1.454127e+17
1.504243e+17
1.536092e+17
1.551683e+17
1.551725e+17
1.536218e+17
1.504467e+17
1.45443e+17
1.380739e+17
1.267565e+17
1.057467e+17
8.984719e+16
7.228171e+16
6.135438e+16
5.345842e+16
4.027964e+16
4.1829e+16
5.52974e+16
6.427314e+16
7.977305e+16
9.73893e+16
1.192403e+17
1.338619e+17
1.436416e+17
1.504122e+17
1.550917e+17
1.580768e+17
1.595418e+17
1.595456e+17
1.580893e+17
1.551117e+17
1.504399e+17
1.436783e+17
1.339044e+17
1.192817e+17
9.741746e+16
7.982067e+16
6.431517e+16
5.532029e+16
4.184975e+16
4.290505e+16
5.722339e+16
6.766945e+16
8.562758e+16
1.030028e+17
1.253492e+17
1.382959e+17
1.472148e+17
1.535867e+17
1.580673e+17
1.609275e+17
1.623344e+17
1.62336e+17
1.609363e+17
1.580826e+17
1.536116e+17
1.472507e+17
1.383397e+17
1.253945e+17
1.030419e+17
8.567297e+16
6.770354e+16
5.725425e+16
4.293735e+16
4.356967e+16
5.872195e+16
7.056061e+16
8.817037e+16
1.123266e+17
1.289456e+17
1.405531e+17
1.48979e+17
1.551357e+17
1.595241e+17
1.623287e+17
1.637171e+17
1.637118e+17
1.623328e+17
1.595381e+17
1.551608e+17
1.490145e+17
1.405972e+17
1.289948e+17
1.123747e+17
8.821802e+16
7.060708e+16
5.876653e+16
4.361037e+16
4.356131e+16
5.87078e+16
7.05447e+16
8.81581e+16
1.123213e+17
1.289423e+17
1.405488e+17
1.48974e+17
1.551308e+17
1.595192e+17
1.623261e+17
1.637203e+17
1.637144e+17
1.623306e+17
1.595339e+17
1.551553e+17
1.490088e+17
1.405918e+17
1.289913e+17
1.12372e+17
8.820685e+16
7.059338e+16
5.875497e+16
4.36022e+16
4.288422e+16
5.719764e+16
6.765361e+16
8.561671e+16
1.029821e+17
1.253358e+17
1.382839e+17
1.472021e+17
1.53574e+17
1.580557e+17
1.609196e+17
1.623311e+17
1.623298e+17
1.609265e+17
1.580712e+17
1.535979e+17
1.472353e+17
1.383249e+17
1.253835e+17
1.030334e+17
8.566227e+16
6.769756e+16
5.724344e+16
4.292144e+16
4.180959e+16
5.527629e+16
6.426721e+16
7.976676e+16
9.736825e+16
1.192232e+17
1.338455e+17
1.436252e+17
1.503953e+17
1.550763e+17
1.580638e+17
1.595326e+17
1.595323e+17
1.580723e+17
1.550913e+17
1.504171e+17
1.436548e+17
1.338824e+17
1.192655e+17
9.741581e+16
7.980116e+16
6.429915e+16
5.531852e+16
4.184209e+16
4.025111e+16
5.342398e+16
6.131825e+16
7.223717e+16
8.979673e+16
1.056909e+17
1.266977e+17
1.38018e+17
1.453928e+17
1.50406e+17
1.535922e+17
1.551534e+17
1.551535e+17
1.536004e+17
1.504197e+17
1.454122e+17
1.380433e+17
1.267271e+17
1.057161e+17
8.982238e+16
7.227153e+16
6.134326e+16
5.345916e+16
4.027731e+16
3.597288e+16
5.164459e+16
5.772191e+16
6.597178e+16
8.087075e+16
9.734704e+16
1.175587e+17
1.299501e+17
1.380298e+17
1.436474e+17
1.472325e+17
1.490035e+17
1.490035e+17
1.472364e+17
1.436557e+17
1.38042e+17
1.299667e+17
1.17577e+17
9.735952e+16
8.0884e+16
6.59978e+16
5.773794e+16
5.16696e+16
3.599333e+16
4.197316e+16
5.380441e+16
6.113969e+16
7.094621e+16
8.715979e+16
1.012203e+17
1.175682e+17
1.267182e+17
1.338752e+17
1.383194e+17
1.405763e+17
1.405764e+17
1.383197e+17
1.338767e+17
1.267201e+17
1.175733e+17
1.012251e+17
8.716008e+16
7.095154e+16
6.115815e+16
5.38112e+16
4.197308e+16
3.663922e+16
5.087945e+16
5.639383e+16
6.248358e+16
7.375385e+16
8.716415e+16
9.736117e+16
1.057147e+17
1.192554e+17
1.253726e+17
1.28971e+17
1.28973e+17
1.253705e+17
1.192507e+17
1.057034e+17
9.735527e+16
8.716122e+16
7.374772e+16
6.248044e+16
5.64011e+16
5.088083e+16
3.662601e+16
3.751111e+16
5.183865e+16
5.695132e+16
6.248187e+16
7.094839e+16
8.08815e+16
8.981699e+16
9.739953e+16
1.03013e+17
1.123384e+17
1.123421e+17
1.030104e+17
9.738776e+16
8.979682e+16
8.087011e+16
7.094025e+16
6.247253e+16
5.694173e+16
5.183275e+16
3.750017e+16
3.787945e+16
5.183192e+16
5.639464e+16
6.115134e+16
6.598696e+16
7.224189e+16
7.977864e+16
8.56342e+16
8.817487e+16
8.817468e+16
8.562193e+16
7.976525e+16
7.223568e+16
6.597045e+16
6.113292e+16
5.637903e+16
5.182021e+16
3.787002e+16
3.749526e+16
5.087687e+16
5.380379e+16
5.771856e+16
6.131302e+16
6.427352e+16
6.766368e+16
7.056264e+16
7.056033e+16
6.765438e+16
6.425497e+16
6.130214e+16
5.771189e+16
5.379229e+16
5.086092e+16
3.748494e+16
3.662874e+16
4.196355e+16
5.164226e+16
5.342708e+16
5.528592e+16
5.720961e+16
5.871927e+16
5.871842e+16
5.720485e+16
5.52743e+16
5.341319e+16
5.16395e+16
4.195905e+16
3.661945e+16
3.596325e+16
4.024331e+16
4.180546e+16
4.288267e+16
4.355727e+16
4.355614e+16
4.288693e+16
4.180868e+16
4.024251e+16
3.595693e+16
3.058291e+16
3.412057e+16
3.508623e+16
3.546919e+16
3.546271e+16
3.506725e+16
3.408785e+16
3.055862e+16
3.052193e+16
3.590873e+16
3.908893e+16
4.754022e+16
4.932359e+16
5.03567e+16
5.083203e+16
5.082616e+16
5.033804e+16
4.92945e+16
4.753283e+16
3.908732e+16
3.591431e+16
3.05432e+16
3.351848e+16
4.617136e+16
5.040579e+16
5.489877e+16
5.993525e+16
6.238006e+16
6.389867e+16
6.46199e+16
6.46152e+16
6.388463e+16
6.235813e+16
5.991348e+16
5.489019e+16
5.040638e+16
4.618183e+16
3.354557e+16
3.147092e+16
3.832529e+16
4.953549e+16
5.772734e+16
6.626665e+16
7.438001e+16
7.920673e+16
8.216738e+16
8.416328e+16
8.520519e+16
8.520034e+16
8.414963e+16
8.214718e+16
7.918398e+16
7.436167e+16
6.625716e+16
5.773657e+16
4.954124e+16
3.834014e+16
3.148404e+16
3.17649e+16
4.539088e+16
5.225345e+16
6.309366e+16
7.563069e+16
8.541982e+16
9.359967e+16
1.066255e+17
1.12796e+17
1.164445e+17
1.182738e+17
1.182704e+17
1.164366e+17
1.127874e+17
1.066221e+17
9.361124e+16
8.54349e+16
7.564269e+16
6.309442e+16
5.227057e+16
4.539964e+16
3.177509e+16
3.146286e+16
4.53937e+16
5.381336e+16
6.54741e+16
8.071598e+16
9.281254e+16
1.095903e+17
1.205369e+17
1.300222e+17
1.37052e+17
1.417466e+17
1.44111e+17
1.441086e+17
1.417432e+17
1.370435e+17
1.30013e+17
1.205359e+17
1.095929e+17
9.282022e+16
8.072746e+16
6.548899e+16
5.381653e+16
4.540045e+16
3.147548e+16
3.832357e+16
5.225391e+16
6.547129e+16
8.194437e+16
9.577812e+16
1.155265e+17
1.301162e+17
1.420158e+17
1.520839e+17
1.601616e+17
1.656702e+17
1.679927e+17
1.679907e+17
1.656642e+17
1.601551e+17
1.520846e+17
1.420274e+17
1.301324e+17
1.155471e+17
9.5796e+16
8.195266e+16
6.548279e+16
5.226797e+16
3.833808e+16
3.352482e+16
4.951698e+16
6.306919e+16
8.071072e+16
9.576438e+16
1.173088e+17
1.345555e+17
1.496533e+17
1.626448e+17
1.733728e+17
1.814963e+17
1.872513e+17
1.905954e+17
1.905955e+17
1.872527e+17
1.815006e+17
1.733839e+17
1.626643e+17
1.496784e+17
1.345901e+17
1.173425e+17
9.579744e+16
8.073576e+16
6.30926e+16
4.953788e+16
3.353523e+16
3.05027e+16
4.6149e+16
5.770152e+16
7.560016e+16
9.280665e+16
1.155211e+17
1.345505e+17
1.523179e+17
1.682892e+17
1.814827e+17
1.923548e+17
2.014582e+17
2.07871e+17
2.113464e+17
2.113482e+17
2.078774e+17
2.014713e+17
1.923769e+17
1.815102e+17
1.683223e+17
1.523599e+17
1.345924e+17
1.155608e+17
9.284037e+16
7.562119e+16
5.773448e+16
4.617129e+16
3.051862e+16
3.588732e+16
5.037876e+16
6.621974e+16
8.539565e+16
1.095653e+17
1.300989e+17
1.496313e+17
1.682727e+17
1.843665e+17
1.987102e+17
2.103519e+17
2.194168e+17
2.255197e+17
2.286426e+17
2.286457e+17
2.255303e+17
2.194377e+17
2.103834e+17
1.987495e+17
1.844133e+17
1.683256e+17
1.496849e+17
1.301519e+17
1.096129e+17
8.542047e+16
6.626488e+16
5.041376e+16
3.591068e+16
3.905597e+16
5.484916e+16
7.430604e+16
9.357659e+16
1.20501e+17
1.419825e+17
1.626048e+17
1.814527e+17
1.986939e+17
2.136162e+17
2.252559e+17
2.33863e+17
2.395416e+17
2.423814e+17
2.42386e+17
2.395562e+17
2.338905e+17
2.252965e+17
2.13668e+17
1.987557e+17
1.815224e+17
1.626778e+17
1.420511e+17
1.205635e+17
9.361643e+16
7.437791e+16
5.490069e+16
3.908669e+16
3.055015e+16
4.750371e+16
5.986444e+16
7.912863e+16
1.065823e+17
1.299761e+17
1.520361e+17
1.733282e+17
1.923169e+17
2.103222e+17
2.252398e+17
2.366212e+17
2.448523e+17
2.502169e+17
2.528729e+17
2.528785e+17
2.502344e+17
2.448838e+17
2.36667e+17
2.252987e+17
2.103917e+17
1.923938e+17
1.734079e+17
1.521103e+17
1.30046e+17
1.066403e+17
7.920769e+16
5.992641e+16
4.753156e+16
3.057241e+16
3.406566e+16
4.926142e+16
6.231163e+16
8.20974e+16
1.12744e+17
1.369991e+17
1.600978e+17
1.814395e+17
2.01406e+17
2.193716e+17
2.338306e+17
2.448361e+17
2.527704e+17
2.579271e+17
2.604763e+17
2.604819e+17
2.579451e+17
2.52802e+17
2.448826e+17
2.338915e+17
2.194437e+17
2.014842e+17
1.815205e+17
1.60185e+17
1.370752e+17
1.128113e+17
8.217079e+16
6.237005e+16
4.930774e+16
3.409943e+16
3.503722e+16
5.029639e+16
6.383385e+16
8.410167e+16
1.163909e+17
1.416934e+17
1.656071e+17
1.871867e+17
2.078073e+17
2.254608e+17
2.394948e+17
2.501863e+17
2.579131e+17
2.62936e+17
2.654172e+17
2.654213e+17
2.629512e+17
2.579416e+17
2.502306e+17
2.395553e+17
2.255343e+17
2.078881e+17
1.872717e+17
1.656948e+17
1.417699e+17
1.164628e+17
8.417018e+16
6.389381e+16
5.034587e+16
3.506968e+16
3.543077e+16
5.078515e+16
6.456478e+16
8.515159e+16
1.182194e+17
1.440501e+17
1.679249e+17
1.905229e+17
2.112727e+17
2.285733e+17
2.423232e+17
2.528303e+17
2.60451e+17
2.654074e+17
2.678561e+17
2.678579e+17
2.654201e+17
2.604779e+17
2.528737e+17
2.423831e+17
2.286469e+17
2.113553e+17
1.906096e+17
1.680129e+17
1.441317e+17
1.182927e+17
8.521505e+16
6.462043e+16
5.082964e+16
3.546359e+16
3.543497e+16
5.078924e+16
6.456725e+16
8.515408e+16
1.182169e+17
1.440443e+17
1.679196e+17
1.905184e+17
2.112694e+17
2.285701e+17
2.423195e+17
2.528262e+17
2.604468e+17
2.654044e+17
2.678551e+17
2.678568e+17
2.654174e+17
2.604742e+17
2.528693e+17
2.423783e+17
2.286423e+17
2.113516e+17
1.906051e+17
1.680055e+17
1.44125e+17
1.182873e+17
8.520945e+16
6.461665e+16
5.082905e+16
3.546676e+16
3.505144e+16
5.031293e+16
6.384494e+16
8.411086e+16
1.163858e+17
1.416869e+17
1.65604e+17
1.87178e+17
2.077984e+17
2.254522e+17
2.394851e+17
2.501756e+17
2.579024e+17
2.629267e+17
2.654101e+17
2.654134e+17
2.629413e+17
2.579303e+17
2.502181e+17
2.395422e+17
2.25522e+17
2.078778e+17
1.872614e+17
1.656835e+17
1.417625e+17
1.164497e+17
8.415076e+16
6.388252e+16
5.03438e+16
3.507656e+16
3.409105e+16
4.928733e+16
6.233146e+16
8.211806e+16
1.127417e+17
1.369978e+17
1.601013e+17
1.814355e+17
2.013976e+17
2.193608e+17
2.338177e+17
2.448217e+17
2.527556e+17
2.579129e+17
2.604629e+17
2.604664e+17
2.579276e+17
2.527824e+17
2.448618e+17
2.338713e+17
2.194257e+17
2.014698e+17
1.8151e+17
1.601694e+17
1.370632e+17
1.127958e+17
8.213679e+16
6.235429e+16
4.93088e+16
3.410864e+16
3.057938e+16
4.752274e+16
5.989987e+16
7.916886e+16
1.06585e+17
1.299822e+17
1.520363e+17
1.733295e+17
1.923134e+17
2.103136e+17
2.252271e+17
2.366059e+17
2.448362e+17
2.501999e+17
2.52854e+17
2.528572e+17
2.50213e+17
2.448602e+17
2.366418e+17
2.252746e+17
2.103697e+17
1.923736e+17
1.733933e+17
1.521016e+17
1.300357e+17
1.066303e+17
7.916691e+16
5.991069e+16
4.754421e+16
3.058866e+16
3.90774e+16
5.488407e+16
7.435765e+16
9.357736e+16
1.205143e+17
1.419818e+17
1.626101e+17
1.814544e+17
1.98689e+17
2.136059e+17
2.252426e+17
2.338474e+17
2.395231e+17
2.423553e+17
2.423577e+17
2.395326e+17
2.338657e+17
2.252707e+17
2.136438e+17
1.987332e+17
1.815012e+17
1.626631e+17
1.420364e+17
1.205499e+17
9.361652e+16
7.433961e+16
5.488329e+16
3.908664e+16
3.589734e+16
5.040105e+16
6.62595e+16
8.541372e+16
1.095866e+17
1.300991e+17
1.49632e+17
1.682739e+17
1.843612e+17
1.98701e+17
2.103411e+17
2.19402e+17
2.254996e+17
2.286104e+17
2.28612e+17
2.255049e+17
2.194126e+17
2.103589e+17
1.987279e+17
1.843939e+17
1.683082e+17
1.496721e+17
1.301352e+17
1.096008e+17
8.543755e+16
6.624784e+16
5.040499e+16
3.591163e+16
3.050267e+16
4.617666e+16
5.773527e+16
7.562549e+16
9.282556e+16
1.155239e+17
1.345493e+17
1.523155e+17
1.682804e+17
1.81473e+17
1.923467e+17
2.014438e+17
2.078507e+17
2.113146e+17
2.113162e+17
2.078525e+17
2.014463e+17
1.92353e+17
1.814895e+17
1.683032e+17
1.523396e+17
1.345745e+17
1.155412e+17
9.281672e+16
7.563555e+16
5.77198e+16
4.616929e+16
3.052373e+16
3.351899e+16
4.953429e+16
6.309341e+16
8.071583e+16
9.577685e+16
1.173103e+17
1.345521e+17
1.496412e+17
1.626295e+17
1.733598e+17
1.814774e+17
1.872256e+17
1.905591e+17
1.905607e+17
1.872252e+17
1.814735e+17
1.733577e+17
1.626368e+17
1.496528e+17
1.345643e+17
1.173228e+17
9.57847e+16
8.072138e+16
6.308742e+16
4.952784e+16
3.352347e+16
3.832871e+16
5.226601e+16
6.5481e+16
8.194762e+16
9.576992e+16
1.155275e+17
1.301117e+17
1.420023e+17
1.520573e+17
1.601303e+17
1.656412e+17
1.679593e+17
1.679586e+17
1.656368e+17
1.601246e+17
1.520554e+17
1.419986e+17
1.301092e+17
1.155268e+17
9.57713e+16
8.194479e+16
6.547123e+16
5.224885e+16
3.831749e+16
3.147569e+16
4.540221e+16
5.381979e+16
6.547494e+16
8.07256e+16
9.282314e+16
1.095783e+17
1.205175e+17
1.299934e+17
1.370185e+17
1.417125e+17
1.440715e+17
1.440699e+17
1.41711e+17
1.370125e+17
1.299867e+17
1.205145e+17
1.095821e+17
9.282011e+16
8.071832e+16
6.546573e+16
5.380674e+16
4.538817e+16
3.146332e+16
3.176265e+16
4.540035e+16
5.226715e+16
6.307924e+16
7.560087e+16
8.538257e+16
9.357165e+16
1.065809e+17
1.127402e+17
1.163867e+17
1.18213e+17
1.182109e+17
1.163927e+17
1.127498e+17
1.065874e+17
9.356983e+16
8.539561e+16
7.56125e+16
6.307933e+16
5.225563e+16
4.538854e+16
3.175352e+16
3.147163e+16
3.833196e+16
4.951971e+16
5.770918e+16
6.622002e+16
7.431495e+16
7.912134e+16
8.207101e+16
8.407256e+16
8.51519e+16
8.514328e+16
8.40913e+16
8.209891e+16
7.914763e+16
7.4336e+16
6.62314e+16
5.770779e+16
4.951462e+16
3.831736e+16
3.146483e+16
3.351e+16
4.614238e+16
5.037443e+16
5.48488e+16
5.985829e+16
6.228824e+16
6.380632e+16
6.454809e+16
6.453751e+16
6.381216e+16
6.229468e+16
5.986232e+16
5.484442e+16
5.036326e+16
4.615117e+16
3.350138e+16
3.048584e+16
3.587899e+16
3.904781e+16
4.749085e+16
4.92461e+16
5.027399e+16
5.077572e+16
5.077082e+16
5.026974e+16
4.92389e+16
4.748998e+16
3.90411e+16
3.586805e+16
3.049154e+16
3.054682e+16
3.405429e+16
3.501476e+16
3.541172e+16
3.54081e+16
3.500905e+16
3.404428e+16
3.05263e+16
2.709203e+16
3.005193e+16
3.07588e+16
3.075167e+16
3.003156e+16
2.708033e+16
2.612633e+16
3.174538e+16
3.522286e+16
3.886177e+16
4.651046e+16
4.83439e+16
4.907327e+16
4.905751e+16
4.830471e+16
4.646945e+16
3.886027e+16
3.523173e+16
3.175333e+16
2.614589e+16
2.633758e+16
3.317055e+16
4.38132e+16
5.056056e+16
5.623481e+16
6.308368e+16
6.740565e+16
6.931633e+16
7.026196e+16
7.024315e+16
6.926994e+16
6.736683e+16
6.30806e+16
5.623282e+16
5.054761e+16
4.382427e+16
3.319306e+16
2.637087e+16
2.927147e+16
4.274255e+16
5.195142e+16
6.368238e+16
7.123374e+16
7.872155e+16
8.5284e+16
9.628186e+16
1.005821e+17
1.023153e+17
1.022993e+17
1.005409e+17
9.623513e+16
8.525135e+16
7.868993e+16
7.121435e+16
6.365681e+16
5.197416e+16
4.276231e+16
2.930952e+16
3.117798e+16
4.683837e+16
5.922256e+16
7.258394e+16
8.391871e+16
9.980786e+16
1.101412e+17
1.181255e+17
1.248199e+17
1.289543e+17
1.308707e+17
1.308575e+17
1.289189e+17
1.247746e+17
1.180869e+17
1.101193e+17
9.980368e+16
8.392469e+16
7.257892e+16
5.924721e+16
4.685476e+16
3.120366e+16
3.220586e+16
4.999139e+16
6.579621e+16
7.876763e+16
9.145177e+16
1.121262e+17
1.270278e+17
1.386378e+17
1.47051e+17
1.534906e+17
1.576864e+17
1.597285e+17
1.597178e+17
1.576576e+17
1.534526e+17
1.470148e+17
1.386113e+17
1.270176e+17
1.121414e+17
9.147387e+16
7.877123e+16
6.580054e+16
4.99975e+16
3.221604e+16
3.117981e+16
4.999344e+16
6.84091e+16
8.331206e+16
1.04452e+17
1.218554e+17
1.391059e+17
1.537046e+17
1.658643e+17
1.761821e+17
1.837931e+17
1.886607e+17
1.91035e+17
1.910269e+17
1.886399e+17
1.837686e+17
1.76164e+17
1.65859e+17
1.537098e+17
1.391213e+17
1.218672e+17
1.04463e+17
8.331652e+16
6.838827e+16
4.999641e+16
3.119053e+16
2.927283e+16
4.683038e+16
6.580589e+16
8.330687e+16
1.07002e+17
1.277127e+17
1.467839e+17
1.638293e+17
1.799104e+17
1.935983e+17
2.048646e+17
2.132087e+17
2.186093e+17
2.212534e+17
2.212477e+17
2.185959e+17
2.131928e+17
2.048546e+17
1.936002e+17
1.799218e+17
1.63848e+17
1.468028e+17
1.277297e+17
1.070112e+17
8.33153e+16
6.580757e+16
4.684584e+16
2.928771e+16
2.633336e+16
4.272948e+16
5.923255e+16
7.87584e+16
1.044492e+17
1.277129e+17
1.49427e+17
1.689181e+17
1.879254e+17
2.052569e+17
2.199048e+17
2.317953e+17
2.407623e+17
2.466012e+17
2.49388e+17
2.49384e+17
2.465918e+17
2.407542e+17
2.317974e+17
2.19921e+17
2.052833e+17
1.879577e+17
1.689484e+17
1.494491e+17
1.277313e+17
1.044642e+17
7.877462e+16
5.92563e+16
4.274999e+16
2.635039e+16
3.316248e+16
5.195445e+16
7.255273e+16
9.146518e+16
1.2185e+17
1.467826e+17
1.689166e+17
1.905128e+17
2.107861e+17
2.288582e+17
2.442346e+17
2.566491e+17
2.660689e+17
2.724064e+17
2.756485e+17
2.756472e+17
2.724044e+17
2.660723e+17
2.566652e+17
2.442653e+17
2.289006e+17
2.10837e+17
1.90563e+17
1.689604e+17
1.468157e+17
1.21876e+17
9.148544e+16
7.258704e+16
5.198461e+16
3.319323e+16
2.612349e+16
4.37906e+16
6.363759e+16
8.389846e+16
1.121298e+17
1.390964e+17
1.638248e+17
1.879211e+17
2.107808e+17
2.317397e+17
2.503314e+17
2.662293e+17
2.79235e+17
2.893803e+17
2.963536e+17
2.99949e+17
2.999505e+17
2.963599e+17
2.893967e+17
2.792665e+17
2.662753e+17
2.503899e+17
2.318074e+17
2.108485e+17
1.879825e+17
1.638749e+17
1.391329e+17
1.121594e+17
8.390841e+16
6.368272e+16
4.382591e+16
2.616488e+16
3.171347e+16
5.051836e+16
7.118136e+16
9.979449e+16
1.270076e+17
1.536848e+17
1.798912e+17
2.052388e+17
2.288367e+17
2.503147e+17
2.693894e+17
2.860506e+17
2.998064e+17
3.104412e+17
3.176678e+17
3.213405e+17
3.213447e+17
3.176821e+17
3.104701e+17
2.998531e+17
2.861139e+17
2.694663e+17
2.504008e+17
2.28924e+17
2.053212e+17
1.799616e+17
1.537367e+17
1.270534e+17
9.981296e+16
7.121163e+16
5.055724e+16
3.175506e+16
3.520053e+16
5.620502e+16
7.869078e+16
1.10129e+17
1.385985e+17
1.658352e+17
1.935645e+17
2.198675e+17
2.44192e+17
2.661923e+17
2.860292e+17
3.033822e+17
3.175699e+17
3.283469e+17
3.355819e+17
3.392212e+17
3.392277e+17
3.356031e+17
3.283864e+17
3.176302e+17
3.034621e+17
2.86125e+17
2.662988e+17
2.443018e+17
2.199726e+17
1.936576e+17
1.659078e+17
1.386633e+17
1.101539e+17
7.870278e+16
5.621841e+16
3.521903e+16
3.884454e+16
6.308585e+16
8.528696e+16
1.181116e+17
1.470089e+17
1.761403e+17
2.048163e+17
2.317391e+17
2.565893e+17
2.7918e+17
2.997642e+17
3.175474e+17
3.319e+17
3.426618e+17
3.498223e+17
3.534023e+17
3.534104e+17
3.49848e+17
3.427082e+17
3.319694e+17
3.176388e+17
2.998733e+17
2.79301e+17
2.567152e+17
2.318613e+17
2.049272e+17
1.762327e+17
1.470856e+17
1.181454e+17
8.528366e+16
6.305709e+16
3.8842e+16
2.708194e+16
4.648078e+16
6.740762e+16
9.628405e+16
1.248038e+17
1.534514e+17
1.837446e+17
2.131503e+17
2.406908e+17
2.65993e+17
2.893077e+17
3.103793e+17
3.283032e+17
3.426401e+17
3.533203e+17
3.603954e+17
3.639237e+17
3.639322e+17
3.604223e+17
3.533685e+17
3.427126e+17
3.283995e+17
3.104947e+17
2.894358e+17
2.66128e+17
2.408257e+17
2.132726e+17
1.838489e+17
1.535325e+17
1.248424e+17
9.628114e+16
6.737961e+16
4.647239e+16
2.707874e+16
3.001727e+16
4.831524e+16
6.930714e+16
1.005791e+17
1.28939e+17
1.576548e+17
1.886142e+17
2.185487e+17
2.465246e+17
2.72321e+17
2.962676e+17
3.175899e+17
3.355203e+17
3.497817e+17
3.603763e+17
3.673819e+17
3.708708e+17
3.708784e+17
3.674068e+17
3.604222e+17
3.498524e+17
3.356161e+17
3.177064e+17
2.963983e+17
2.724595e+17
2.46663e+17
2.18675e+17
1.887229e+17
1.577378e+17
1.28987e+17
1.005912e+17
6.929763e+16
4.831444e+16
3.003673e+16
3.073375e+16
4.90551e+16
7.025155e+16
1.023195e+17
1.308681e+17
1.597104e+17
1.909971e+17
2.211948e+17
2.493105e+17
2.755584e+17
2.998547e+17
3.212514e+17
3.391462e+17
3.533469e+17
3.638895e+17
3.708563e+17
3.743239e+17
3.743303e+17
3.708788e+17
3.639325e+17
3.534148e+17
3.392395e+17
3.213663e+17
2.999845e+17
2.75696e+17
2.494478e+17
2.213211e+17
1.911044e+17
1.597923e+17
1.309219e+17
1.023487e+17
7.02721e+16
4.907377e+16
3.075958e+16
3.073626e+16
4.906279e+16
7.026664e+16
1.023276e+17
1.308753e+17
1.597163e+17
1.910006e+17
2.211962e+17
2.493108e+17
2.755573e+17
2.99853e+17
3.212495e+17
3.391439e+17
3.533441e+17
3.638861e+17
3.708527e+17
3.743204e+17
3.743264e+17
3.70874e+17
3.639272e+17
3.534091e+17
3.392337e+17
3.213607e+17
2.999794e+17
2.756911e+17
2.49443e+17
2.21318e+17
1.911028e+17
1.597934e+17
1.309295e+17
1.023617e+17
7.028885e+16
4.908816e+16
3.076742e+16
3.003504e+16
4.833012e+16
6.931973e+16
1.005919e+17
1.289568e+17
1.576716e+17
1.886244e+17
2.18555e+17
2.465292e+17
2.723211e+17
2.962648e+17
3.175857e+17
3.355148e+17
3.497747e+17
3.603677e+17
3.67372e+17
3.708599e+17
3.708658e+17
3.673925e+17
3.604067e+17
3.498364e+17
3.356002e+17
3.176915e+17
2.963849e+17
2.724472e+17
2.466525e+17
2.186687e+17
1.887182e+17
1.577398e+17
1.290093e+17
1.00629e+17
6.934527e+16
4.835632e+16
3.006134e+16
2.710715e+16
4.64745e+16
6.740083e+16
9.629325e+16
1.248257e+17
1.534786e+17
1.837617e+17
2.131633e+17
2.407025e+17
2.659994e+17
2.893086e+17
3.103767e+17
3.282977e+17
3.426319e+17
3.533093e+17
3.603816e+17
3.639069e+17
3.639122e+17
3.604002e+17
3.53345e+17
3.42689e+17
3.283774e+17
3.104751e+17
2.894192e+17
2.661144e+17
2.408139e+17
2.132653e+17
1.838438e+17
1.535339e+17
1.248753e+17
9.63339e+16
6.743698e+16
4.650752e+16
2.712768e+16
3.885316e+16
6.306338e+16
8.529815e+16
1.181377e+17
1.470481e+17
1.76165e+17
2.048377e+17
2.317556e+17
2.566022e+17
2.791877e+17
2.997668e+17
3.175456e+17
3.318943e+17
3.426524e+17
3.498085e+17
3.533836e+17
3.533881e+17
3.498246e+17
3.426839e+17
3.319456e+17
3.176175e+17
2.998554e+17
2.792867e+17
2.567059e+17
2.318565e+17
2.049258e+17
1.762348e+17
1.470886e+17
1.181829e+17
8.533522e+16
6.311006e+16
3.887178e+16
3.521065e+16
5.621768e+16
7.871111e+16
1.101504e+17
1.386441e+17
1.658648e+17
1.935939e+17
2.198878e+17
2.442094e+17
2.662054e+17
2.860364e+17
3.033845e+17
3.175681e+17
3.283406e+17
3.355697e+17
3.392016e+17
3.392052e+17
3.355824e+17
3.283664e+17
3.176115e+17
3.034463e+17
2.861129e+17
2.662907e+17
2.442997e+17
2.199737e+17
1.936642e+17
1.659233e+17
1.38671e+17
1.101919e+17
7.873855e+16
5.623641e+16
3.521713e+16
3.174342e+16
5.055638e+16
7.122395e+16
9.981355e+16
1.270462e+17
1.537225e+17
1.799278e+17
2.052623e+17
2.288543e+17
2.503286e+17
2.693975e+17
2.860546e+17
2.998072e+17
3.104371e+17
3.17657e+17
3.21321e+17
3.213233e+17
3.176654e+17
3.104554e+17
2.998404e+17
2.861045e+17
2.694607e+17
2.50399e+17
2.289277e+17
2.053281e+17
1.799777e+17
1.537675e+17
1.27071e+17
9.985192e+16
7.122669e+16
5.055223e+16
3.173761e+16
2.614976e+16
4.381846e+16
6.369769e+16
8.391304e+16
1.12148e+17
1.391299e+17
1.638592e+17
1.879458e+17
2.107991e+17
2.317536e+17
2.503393e+17
2.662336e+17
2.79237e+17
2.893771e+17
2.963439e+17
2.999318e+17
2.999331e+17
2.963479e+17
2.893872e+17
2.792589e+17
2.662706e+17
2.503879e+17
2.31808e+17
2.108542e+17
1.879928e+17
1.638939e+17
1.391683e+17
1.121776e+17
8.394848e+16
6.366751e+16
4.382043e+16
2.614409e+16
3.318092e+16
5.197087e+16
7.259352e+16
9.145962e+16
1.218803e+17
1.468111e+17
1.689426e+17
1.905348e+17
2.108039e+17
2.28869e+17
2.442395e+17
2.5665e+17
2.66064e+17
2.723958e+17
2.756323e+17
2.756327e+17
2.723965e+17
2.660673e+17
2.566618e+17
2.442634e+17
2.289019e+17
2.108414e+17
1.905734e+17
1.689776e+17
1.468424e+17
1.219075e+17
9.149319e+16
7.259614e+16
5.197005e+16
3.317778e+16
2.633889e+16
4.275317e+16
5.925622e+16
7.880891e+16
1.044931e+17
1.277463e+17
1.494569e+17
1.689464e+17
1.879516e+17
2.052747e+17
2.19913e+17
2.317935e+17
2.407538e+17
2.4659e+17
2.493745e+17
2.493737e+17
2.465883e+17
2.407537e+17
2.317992e+17
2.199256e+17
2.052938e+17
1.879733e+17
1.689688e+17
1.494757e+17
1.277566e+17
1.044909e+17
7.879773e+16
5.924643e+16
4.275138e+16
2.634823e+16
2.927545e+16
4.686163e+16
6.584641e+16
8.33328e+16
1.07025e+17
1.277423e+17
1.46817e+17
1.638599e+17
1.799247e+17
1.936024e+17
2.048587e+17
2.131955e+17
2.185937e+17
2.212361e+17
2.212348e+17
2.185934e+17
2.131963e+17
2.048629e+17
1.936132e+17
1.799421e+17
1.638735e+17
1.468272e+17
1.277531e+17
1.070314e+17
8.333571e+16
6.581962e+16
4.684817e+16
2.928035e+16
3.118259e+16
5.000481e+16
6.844877e+16
8.331853e+16
1.044847e+17
1.218795e+17
1.39121e+17
1.537023e+17
1.658544e+17
1.76161e+17
1.837637e+17
1.886314e+17
1.91009e+17
1.91007e+17
1.886352e+17
1.837731e+17
1.761738e+17
1.658708e+17
1.537233e+17
1.391318e+17
1.218814e+17
1.044899e+17
8.332219e+16
6.844025e+16
4.999799e+16
3.117768e+16
3.220256e+16
4.999911e+16
6.58441e+16
7.8802e+16
9.147937e+16
1.121444e+17
1.270212e+17
1.386113e+17
1.47016e+17
1.534504e+17
1.576522e+17
1.597115e+17
1.597056e+17
1.576569e+17
1.534626e+17
1.470329e+17
1.386344e+17
1.27038e+17
1.121441e+17
9.145874e+16
7.880187e+16
6.584476e+16
4.999854e+16
3.219928e+16
3.116944e+16
4.683634e+16
5.925692e+16
7.258394e+16
8.388769e+16
9.978647e+16
1.10121e+17
1.181086e+17
1.247977e+17
1.289322e+17
1.308522e+17
1.308426e+17
1.289237e+17
1.247899e+17