/*--------------------------------*- C++ -*----------------------------------*\
  =========                 |
  \\      /  F ield         | OpenFOAM: The Open Source CFD Toolbox
   \\    /   O peration     | Website:  https://openfoam.org
    \\  /    A nd           | Version:  6
     \\/     M anipulation  |
\*---------------------------------------------------------------------------*/
FoamFile
{
    version     2.0;
    format      ascii;
    class       volScalarField;
    location    "50/region0/neutronTransport";
    object      discFlux2;
}
// * * * * * * * * * * * * * * * * * * * * * * * * * * * * * * * * * * * * * //

dimensions      [0 -2 -1 0 0 0 0];

internalField   nonuniform List<scalar> 
203709
(
1.201661e+16
1.367564e+16
1.367259e+16
1.201722e+16
1.261745e+16
1.461985e+16
1.953098e+16
1.916062e+16
1.915624e+16
1.95248e+16
1.461234e+16
1.260992e+16
1.230776e+16
1.468914e+16
1.975214e+16
1.948157e+16
2.008108e+16
2.021917e+16
2.021653e+16
2.007415e+16
1.94702e+16
1.97368e+16
1.467445e+16
1.229294e+16
1.231041e+16
1.920571e+16
1.941711e+16
2.019563e+16
2.058539e+16
2.094598e+16
2.110161e+16
2.110025e+16
2.093826e+16
2.057274e+16
2.017956e+16
1.939753e+16
1.918329e+16
1.229323e+16
1.469212e+16
1.941858e+16
2.03135e+16
2.094062e+16
2.142192e+16
2.177228e+16
2.194498e+16
2.194334e+16
2.176403e+16
2.140927e+16
2.09245e+16
2.02932e+16
1.939526e+16
1.467107e+16
1.262308e+16
1.975712e+16
2.019957e+16
2.094191e+16
2.159826e+16
2.211735e+16
2.24777e+16
2.265429e+16
2.265212e+16
2.247106e+16
2.210746e+16
2.158321e+16
2.092285e+16
2.017758e+16
1.97322e+16
1.260337e+16
1.462521e+16
1.948686e+16
2.058948e+16
2.142276e+16
2.21175e+16
2.265771e+16
2.30153e+16
2.318074e+16
2.317902e+16
2.301113e+16
2.264912e+16
2.210486e+16
2.140744e+16
2.057021e+16
1.946365e+16
1.460488e+16
1.202742e+16
1.954263e+16
2.009138e+16
2.09543e+16
2.177835e+16
2.248099e+16
2.301746e+16
2.334317e+16
2.350462e+16
2.350364e+16
2.334024e+16
2.300993e+16
2.247048e+16
2.176391e+16
2.093534e+16
2.006864e+16
1.951818e+16
1.200499e+16
1.368337e+16
1.917101e+16
2.023063e+16
2.111442e+16
2.195566e+16
2.266178e+16
2.318701e+16
2.350862e+16
2.368822e+16
2.368066e+16
2.350476e+16
2.318145e+16
2.265371e+16
2.194253e+16
2.109632e+16
2.021041e+16
1.914739e+16
1.366198e+16
1.368589e+16
1.917661e+16
2.023359e+16
2.111532e+16
2.195733e+16
2.266464e+16
2.318925e+16
2.351144e+16
2.36966e+16
2.368857e+16
2.350811e+16
2.318417e+16
2.2656e+16
2.194597e+16
2.109982e+16
2.021368e+16
1.915311e+16
1.366698e+16
1.202516e+16
1.954896e+16
2.00962e+16
2.095963e+16
2.178513e+16
2.248931e+16
2.30263e+16
2.33531e+16
2.351571e+16
2.351256e+16
2.334916e+16
2.302053e+16
2.248042e+16
2.177357e+16
2.094456e+16
2.007723e+16
1.952425e+16
1.201105e+16
1.462802e+16
1.949358e+16
2.059897e+16
2.14355e+16
2.213094e+16
2.267173e+16
2.302959e+16
2.319699e+16
2.319306e+16
2.302589e+16
2.266434e+16
2.21209e+16
2.142229e+16
2.058301e+16
1.947638e+16
1.461409e+16
1.262713e+16
1.976667e+16
2.020991e+16
2.09552e+16
2.16129e+16
2.213449e+16
2.249429e+16
2.267402e+16
2.267075e+16
2.249089e+16
2.212677e+16
2.160305e+16
2.094291e+16
2.019581e+16
1.975016e+16
1.261447e+16
1.470019e+16
1.943078e+16
2.032867e+16
2.095822e+16
2.144106e+16
2.179325e+16
2.197844e+16
2.197585e+16
2.178772e+16
2.143297e+16
2.094787e+16
2.031691e+16
1.941968e+16
1.468956e+16
1.231944e+16
1.922301e+16
1.943362e+16
2.021484e+16
2.060472e+16
2.096708e+16
2.113394e+16
2.113237e+16
2.096263e+16
2.059809e+16
2.020531e+16
1.942191e+16
1.92103e+16
1.230754e+16
1.231932e+16
1.47022e+16
1.977157e+16
1.949817e+16
2.010179e+16
2.024625e+16
2.024744e+16
2.009956e+16
1.949588e+16
1.976516e+16
1.469326e+16
1.23105e+16
1.262866e+16
1.463171e+16
1.955327e+16
1.919148e+16
1.919487e+16
1.955287e+16
1.463069e+16
1.262614e+16
1.202987e+16
1.36894e+16
1.36911e+16
1.203087e+16
1.001965e+16
1.17962e+16
1.231368e+16
1.266547e+16
1.288653e+16
1.288534e+16
1.266215e+16
1.230832e+16
1.178953e+16
1.001395e+16
1.025824e+16
1.240221e+16
1.707172e+16
1.752369e+16
1.819151e+16
1.902253e+16
1.968808e+16
1.96864e+16
1.901909e+16
1.818163e+16
1.750607e+16
1.704786e+16
1.238189e+16
1.024029e+16
1.048321e+16
1.674568e+16
1.757332e+16
1.90368e+16
2.05348e+16
2.181295e+16
2.386807e+16
2.545301e+16
2.545044e+16
2.386201e+16
2.17973e+16
2.051231e+16
1.901373e+16
1.754785e+16
1.672033e+16
1.046689e+16
1.05871e+16
1.704524e+16
1.856326e+16
2.043565e+16
2.244562e+16
2.588167e+16
3.035948e+16
3.656064e+16
3.832946e+16
3.832482e+16
3.654324e+16
3.033932e+16
2.586074e+16
2.242404e+16
2.041072e+16
1.853588e+16
1.701303e+16
1.056868e+16
1.048384e+16
1.704401e+16
1.876308e+16
2.097025e+16
2.531329e+16
3.083191e+16
3.863718e+16
4.333101e+16
4.68467e+16
5.237179e+16
5.236488e+16
4.683051e+16
4.330558e+16
3.860302e+16
3.080264e+16
2.528153e+16
2.094165e+16
1.873013e+16
1.700826e+16
1.04626e+16
1.026168e+16
1.675313e+16
1.856657e+16
2.0974e+16
2.722191e+16
3.732618e+16
4.329377e+16
4.823235e+16
5.609046e+16
5.956502e+16
6.162074e+16
6.161283e+16
5.954256e+16
5.605569e+16
4.81912e+16
4.324653e+16
3.727292e+16
2.717849e+16
2.093381e+16
1.852726e+16
1.671403e+16
1.023792e+16
1.24022e+16
1.757663e+16
2.043994e+16
2.531847e+16
3.732878e+16
4.582858e+16
5.51831e+16
6.027401e+16
6.42464e+16
6.667905e+16
6.791565e+16
6.79073e+16
6.665431e+16
6.420834e+16
6.022416e+16
5.512292e+16
4.576583e+16
3.72685e+16
2.52704e+16
2.039898e+16
1.753824e+16
1.237329e+16
1.002759e+16
1.707572e+16
1.904025e+16
2.245272e+16
3.083879e+16
4.330704e+16
5.519006e+16
6.212374e+16
6.652514e+16
6.954563e+16
7.145053e+16
7.238569e+16
7.237769e+16
7.142626e+16
6.950767e+16
6.647427e+16
6.206155e+16
5.512221e+16
4.324459e+16
3.079063e+16
2.241329e+16
1.899952e+16
1.70329e+16
9.998685e+15
1.180514e+16
1.753545e+16
2.05413e+16
2.589583e+16
3.86603e+16
4.825519e+16
6.029034e+16
6.653344e+16
7.049069e+16
7.313179e+16
7.478924e+16
7.559174e+16
7.558443e+16
7.47675e+16
7.309685e+16
7.044216e+16
6.647265e+16
6.022133e+16
4.818832e+16
3.859926e+16
2.5845e+16
2.049879e+16
1.749198e+16
1.177169e+16
1.232344e+16
1.820794e+16
2.182322e+16
3.037228e+16
4.336339e+16
5.612217e+16
6.4272e+16
6.956329e+16
7.31418e+16
7.557343e+16
7.710637e+16
7.78515e+16
7.784469e+16
7.708667e+16
7.554066e+16
7.309645e+16
6.950644e+16
6.420489e+16
5.604814e+16
4.328836e+16
3.032338e+16
2.178398e+16
1.816328e+16
1.228983e+16
1.267565e+16
1.904247e+16
2.389083e+16
3.659322e+16
4.688869e+16
5.960896e+16
6.671701e+16
7.148156e+16
7.481307e+16
7.712051e+16
7.857853e+16
7.928918e+16
7.928176e+16
7.855871e+16
7.708835e+16
7.477043e+16
7.142913e+16
6.665466e+16
5.953843e+16
4.681836e+16
3.653575e+16
2.384362e+16
1.899843e+16
1.264457e+16
1.289625e+16
1.970556e+16
2.547526e+16
3.836991e+16
5.24249e+16
6.16763e+16
6.796811e+16
7.243276e+16
7.563205e+16
7.788264e+16
7.930694e+16
8.000506e+16
7.999423e+16
7.928578e+16
7.785166e+16
7.559214e+16
7.238404e+16
6.791074e+16
6.161206e+16
5.235829e+16
3.831427e+16
2.543285e+16
1.966729e+16
1.286775e+16
1.28943e+16
1.970137e+16
2.54704e+16
3.836696e+16
5.242727e+16
6.168166e+16
6.797505e+16
7.244112e+16
7.564154e+16
7.789248e+16
7.931819e+16
8.001977e+16
8.000903e+16
7.929856e+16
7.786401e+16
7.560442e+16
7.239645e+16
6.792323e+16
6.162466e+16
5.236913e+16
3.831695e+16
2.543211e+16
1.966664e+16
1.286745e+16
1.267098e+16
1.903792e+16
2.389188e+16
3.659949e+16
4.689227e+16
5.962241e+16
6.673705e+16
7.150627e+16
7.484123e+16
7.715081e+16
7.861155e+16
7.932574e+16
7.931814e+16
7.859488e+16
7.712565e+16
7.480823e+16
7.146684e+16
6.669207e+16
5.957469e+16
4.6849e+16
3.655605e+16
2.385801e+16
1.900706e+16
1.264619e+16
1.232079e+16
1.820839e+16
2.183192e+16
3.038423e+16
4.337375e+16
5.61441e+16
6.430318e+16
6.960192e+16
7.318594e+16
7.5622e+16
7.715899e+16
7.790896e+16
7.790282e+16
7.714609e+16
7.560119e+16
7.315808e+16
6.956853e+16
6.426555e+16
5.610439e+16
4.333865e+16
3.034616e+16
2.179831e+16
1.818045e+16
1.229808e+16
1.180532e+16
1.754032e+16
2.055223e+16
2.590428e+16
3.868235e+16
4.828468e+16
6.033056e+16
6.658186e+16
7.054627e+16
7.319482e+16
7.485839e+16
7.56667e+16
7.566217e+16
7.484938e+16
7.317989e+16
7.052557e+16
6.65561e+16
6.03002e+16
4.825007e+16
3.864645e+16
2.587742e+16
2.052145e+16
1.75133e+16
1.17841e+16
1.002886e+16
1.708474e+16
1.905219e+16
2.246436e+16
3.086331e+16
4.33411e+16
5.523696e+16
6.218015e+16
6.659079e+16
6.962025e+16
7.153383e+16
7.247315e+16
7.247028e+16
7.152735e+16
6.961009e+16
6.657623e+16
6.21613e+16
5.521305e+16
4.331137e+16
3.083313e+16
2.244102e+16
1.902464e+16
1.705734e+16
1.001195e+16
1.241269e+16
1.758759e+16
2.045235e+16
2.533741e+16
3.736481e+16
4.587521e+16
5.524399e+16
6.034695e+16
6.432973e+16
6.677276e+16
6.801157e+16
6.80103e+16
6.676886e+16
6.432338e+16
6.033701e+16
5.523132e+16
4.58587e+16
3.734143e+16
2.531493e+16
2.043334e+16
1.756409e+16
1.238873e+16
1.027036e+16
1.676149e+16
1.857895e+16
2.098981e+16
2.724782e+16
3.736804e+16
4.33517e+16
4.830464e+16
5.61763e+16
5.966417e+16
6.172476e+16
6.1726e+16
5.966302e+16
5.617293e+16
4.829684e+16
4.334434e+16
3.735833e+16
2.723227e+16
2.097323e+16
1.856326e+16
1.674245e+16
1.024897e+16
1.049358e+16
1.706308e+16
1.878199e+16
2.098873e+16
2.53368e+16
3.08686e+16
3.870136e+16
4.340616e+16
4.693203e+16
5.246773e+16
5.247095e+16
4.69338e+16
4.340359e+16
3.869364e+16
3.086392e+16
2.533106e+16
2.09797e+16
1.87697e+16
1.704881e+16
1.047918e+16
1.059817e+16
1.706201e+16
1.858054e+16
2.045749e+16
2.247158e+16
2.5909e+16
3.03988e+16
3.662981e+16
3.840422e+16
3.840564e+16
3.662731e+16
3.039773e+16
2.591185e+16
2.246775e+16
2.045146e+16
1.857352e+16
1.705366e+16
1.059003e+16
1.048951e+16
1.676417e+16
1.759055e+16
1.905372e+16
2.055354e+16
2.184164e+16
2.390815e+16
2.549536e+16
2.549589e+16
2.390862e+16
2.183957e+16
2.055681e+16
1.90578e+16
1.759055e+16
1.676036e+16
1.04859e+16
1.026971e+16
1.24126e+16
1.708961e+16
1.754846e+16
1.822156e+16
1.905589e+16
1.972479e+16
1.97261e+16
1.90583e+16
1.82229e+16
1.754967e+16
1.709644e+16
1.241661e+16
1.027028e+16
1.00304e+16
1.180956e+16
1.232805e+16
1.268145e+16
1.290578e+16
1.290665e+16
1.268701e+16
1.233522e+16
1.181629e+16
1.00344e+16
8.456197e+15
9.944329e+15
1.025973e+16
1.037416e+16
1.037062e+16
1.024916e+16
9.925407e+15
8.440672e+15
8.453205e+15
1.0583e+16
1.172967e+16
1.600123e+16
1.656279e+16
1.691107e+16
1.706653e+16
1.706187e+16
1.689662e+16
1.653945e+16
1.598141e+16
1.171632e+16
1.057063e+16
8.447847e+15
9.38709e+15
1.544873e+16
1.701248e+16
1.931517e+16
2.169526e+16
2.271553e+16
2.333296e+16
2.361544e+16
2.360994e+16
2.33167e+16
2.268961e+16
2.16637e+16
1.92867e+16
1.698508e+16
1.542235e+16
9.377888e+15
8.774302e+15
1.138851e+16
1.666388e+16
2.067984e+16
2.534022e+16
3.212128e+16
3.487576e+16
3.633758e+16
3.728598e+16
3.776918e+16
3.776005e+16
3.725927e+16
3.62951e+16
3.482066e+16
3.206065e+16
2.529199e+16
2.064246e+16
1.662548e+16
1.136393e+16
8.752465e+15
8.849967e+15
1.504435e+16
1.772628e+16
2.358927e+16
3.278382e+16
3.841461e+16
4.312887e+16
5.045928e+16
5.380506e+16
5.575948e+16
5.671459e+16
5.670263e+16
5.572539e+16
5.37525e+16
5.039453e+16
4.30656e+16
3.834845e+16
3.27147e+16
2.353191e+16
1.768522e+16
1.499975e+16
8.823818e+15
8.775475e+15
1.504917e+16
1.838782e+16
2.466653e+16
3.553697e+16
4.268455e+16
5.210935e+16
5.811785e+16
6.334249e+16
6.723559e+16
6.994666e+16
7.12713e+16
7.125753e+16
6.990832e+16
6.717249e+16
6.325983e+16
5.802444e+16
5.200809e+16
4.258781e+16
3.544845e+16
2.460604e+16
1.833354e+16
1.49981e+16
8.746977e+15
1.139513e+16
1.773207e+16
2.467079e+16
3.614767e+16
4.425163e+16
5.535918e+16
6.341243e+16
6.996658e+16
7.565996e+16
8.032104e+16
8.391128e+16
8.53298e+16
8.531412e+16
8.386477e+16
8.024874e+16
7.556906e+16
6.986308e+16
6.329815e+16
5.52424e+16
4.414268e+16
3.604363e+16
2.459928e+16
1.767822e+16
1.135825e+16
9.400611e+15
1.666791e+16
2.359122e+16
3.554918e+16
4.425333e+16
5.63363e+16
6.591077e+16
7.436251e+16
8.169581e+16
8.815661e+16
9.286515e+16
9.623827e+16
9.81604e+16
9.814422e+16
9.619076e+16
9.279015e+16
8.805911e+16
8.158207e+16
7.423657e+16
6.578247e+16
5.620849e+16
4.414009e+16
3.544664e+16
2.352196e+16
1.661452e+16
9.366166e+15
8.459488e+15
1.545813e+16
2.068756e+16
3.27931e+16
4.270677e+16
5.537872e+16
6.592194e+16
7.599942e+16
8.538834e+16
9.287542e+16
9.905506e+16
1.041763e+17
1.077713e+17
1.097086e+17
1.096922e+17
1.077234e+17
1.041005e+17
9.895521e+16
9.275467e+16
8.525251e+16
7.585895e+16
6.577944e+16
5.52419e+16
4.258725e+16
3.26879e+16
2.06263e+16
1.540516e+16
8.426092e+15
1.05932e+16
1.702321e+16
2.534753e+16
3.844134e+16
5.213736e+16
6.344142e+16
7.43812e+16
8.539698e+16
9.464175e+16
1.02684e+17
1.091526e+17
1.141635e+17
1.17521e+17
1.192289e+17
1.192127e+17
1.174739e+17
1.140889e+17
1.090533e+17
1.025629e+17
9.450447e+16
8.525025e+16
7.423165e+16
6.329637e+16
5.200211e+16
3.832109e+16
2.527489e+16
1.697032e+16
1.055364e+16
1.173785e+16
1.93223e+16
3.212592e+16
4.316908e+16
5.81567e+16
7.00055e+16
8.172446e+16
9.289807e+16
1.026968e+17
1.109981e+17
1.174035e+17
1.221105e+17
1.251997e+17
1.267336e+17
1.267185e+17
1.251553e+17
1.220396e+17
1.173084e+17
1.108817e+17
1.025639e+17
9.275455e+16
8.157744e+16
6.985979e+16
5.801873e+16
4.304617e+16
3.204671e+16
1.926901e+16
1.169826e+16
8.462903e+15
1.601412e+16
2.170019e+16
3.489007e+16
5.050648e+16
6.339429e+16
7.57117e+16
8.820557e+16
9.909722e+16
1.091827e+17
1.174194e+17
1.236422e+17
1.281121e+17
1.310087e+17
1.324316e+17
1.324179e+17
1.309683e+17
1.280467e+17
1.235535e+17
1.173092e+17
1.090545e+17
9.895642e+16
8.805832e+16
7.556379e+16
6.325331e+16
5.037744e+16
3.480749e+16
2.164444e+16
1.595761e+16
8.430836e+15
9.945303e+15
1.657093e+16
2.272954e+16
3.636713e+16
5.386303e+16
6.730244e+16
8.038585e+16
9.293214e+16
1.042374e+17
1.142129e+17
1.221457e+17
1.281318e+17
1.324191e+17
1.3519e+17
1.365491e+17
1.365362e+17
1.351522e+17
1.323581e+17
1.280494e+17
1.220432e+17
1.140921e+17
1.041019e+17
9.278805e+16
8.024508e+16
6.716327e+16
5.37354e+16
3.627901e+16
2.266792e+16
1.651987e+16
9.912364e+15
1.026666e+16
1.692479e+16
2.335415e+16
3.733025e+16
5.583218e+16
7.003298e+16
8.40001e+16
9.632707e+16
1.07855e+17
1.175937e+17
1.252592e+17
1.310534e+17
1.352156e+17
1.379069e+17
1.39226e+17
1.392128e+17
1.378696e+17
1.351569e+17
1.309761e+17
1.251644e+17
1.174822e+17
1.077289e+17
9.619197e+16
8.386353e+16
6.989655e+16
5.570819e+16
3.723935e+16
2.329172e+16
1.687315e+16
1.023069e+16
1.038751e+16
1.70895e+16
2.364607e+16
3.782751e+16
5.680247e+16
7.137311e+16
8.543959e+16
9.827225e+16
1.098173e+17
1.193288e+17
1.268219e+17
1.325062e+17
1.366051e+17
1.39257e+17
1.405568e+17
1.405427e+17
1.392196e+17
1.36548e+17
1.324327e+17
1.267337e+17
1.192265e+17
1.097022e+17
9.81482e+16
8.531206e+16
7.124638e+16
5.668436e+16
3.773689e+16
2.358214e+16
1.703521e+16
1.03502e+16
1.038841e+16
1.709094e+16
2.364782e+16
3.783111e+16
5.680537e+16
7.137584e+16
8.544428e+16
9.827955e+16
1.098277e+17
1.193421e+17
1.268376e+17
1.325237e+17
1.366238e+17
1.39277e+17
1.405786e+17
1.405651e+17
1.392418e+17
1.365705e+17
1.324555e+17
1.267567e+17
1.192494e+17
1.097247e+17
9.816822e+16
8.532762e+16
7.125927e+16
5.66947e+16
3.774261e+16
2.358481e+16
1.703706e+16
1.035166e+16
1.027116e+16
1.69315e+16
2.336088e+16
3.734128e+16
5.58412e+16
7.0046e+16
8.402062e+16
9.635055e+16
1.078855e+17
1.176323e+17
1.253049e+17
1.311048e+17
1.352709e+17
1.379657e+17
1.392885e+17
1.392771e+17
1.379352e+17
1.352241e+17
1.310448e+17
1.252339e+17
1.175516e+17
1.07796e+17
9.6253e+16
8.391511e+16
6.994036e+16
5.573853e+16
3.725307e+16
2.329899e+16
1.687873e+16
1.023513e+16
9.954948e+15
1.658217e+16
2.274058e+16
3.638681e+16
5.387879e+16
6.732639e+16
8.042151e+16
9.297355e+16
1.042876e+17
1.14274e+17
1.222174e+17
1.282126e+17
1.325074e+17
1.352848e+17
1.366499e+17
1.36641e+17
1.352608e+17
1.324699e+17
1.281638e+17
1.221591e+17
1.142071e+17
1.042119e+17
9.288889e+16
8.032767e+16
6.72314e+16
5.37842e+16
3.629671e+16
2.267939e+16
1.653079e+16
9.920103e+15
8.473349e+15
1.602389e+16
2.172013e+16
3.492232e+16
5.05281e+16
6.342795e+16
7.575358e+16
8.826143e+16
9.916484e+16
1.092631e+17
1.175124e+17
1.237474e+17
1.282287e+17
1.311353e+17
1.325665e+17
1.325602e+17
1.311185e+17
1.282021e+17
1.23712e+17
1.174686e+17
1.092105e+17
9.910257e+16
8.819124e+16
7.567862e+16
6.33451e+16
5.044522e+16
3.483168e+16
2.166119e+16
1.597769e+16
8.443673e+15
1.174717e+16
1.934206e+16
3.216547e+16
4.318937e+16
5.819763e+16
7.005231e+16
8.17897e+16
9.297887e+16
1.027922e+17
1.111085e+17
1.175293e+17
1.222512e+17
1.253535e+17
1.268962e+17
1.268923e+17
1.253429e+17
1.222344e+17
1.175063e+17
1.110787e+17
1.027537e+17
9.293028e+16
8.173546e+16
6.999236e+16
5.812554e+16
4.312732e+16
3.208032e+16
1.928847e+16
1.171267e+16
1.059681e+16
1.703749e+16
2.537577e+16
3.847042e+16
5.218372e+16
6.349154e+16
7.444796e+16
8.548469e+16
9.47467e+16
1.028079e+17
1.092965e+17
1.143253e+17
1.176983e+17
1.194156e+17
1.194137e+17
1.176924e+17
1.143155e+17
1.092829e+17
1.027902e+17
9.4722e+16
8.545028e+16
7.440794e+16
6.344197e+16
5.21202e+16
3.841866e+16
2.531603e+16
1.69947e+16
1.057094e+16
8.458885e+15
1.54749e+16
2.071173e+16
3.282559e+16
4.274899e+16
5.54299e+16
6.598928e+16
7.60883e+16
8.549797e+16
9.300818e+16
9.92122e+16
1.043531e+17
1.07966e+17
1.099155e+17
1.099155e+17
1.079637e+17
1.043479e+17
9.920441e+16
9.299952e+16
8.548437e+16
7.60666e+16
6.596022e+16
5.539013e+16
4.269506e+16
3.278427e+16
2.066521e+16
1.543364e+16
8.444151e+15
9.400263e+15
1.668496e+16
2.361645e+16
3.558006e+16
4.430434e+16
5.640389e+16
6.599939e+16
7.447068e+16
8.182738e+16
8.831595e+16
9.304569e+16
9.643743e+16
9.837345e+16
9.837496e+16
9.643852e+16
9.304414e+16
8.831284e+16
8.182502e+16
7.446431e+16
6.598635e+16
5.638479e+16
4.42795e+16
3.555147e+16
2.358501e+16
1.665287e+16
9.382469e+15
1.140226e+16
1.775006e+16
2.469724e+16
3.619104e+16
4.430707e+16
5.544663e+16
6.352172e+16
7.009599e+16
7.580755e+16
8.049082e+16
8.410613e+16
8.554156e+16
8.554288e+16
8.410834e+16
8.049373e+16
7.581187e+16
7.009645e+16
6.351853e+16
5.543911e+16
4.429658e+16
3.617335e+16
2.467438e+16
1.772579e+16
1.138292e+16
8.785977e+15
1.506591e+16
1.84088e+16
2.469787e+16
3.559684e+16
4.276514e+16
5.220551e+16
5.823457e+16
6.347883e+16
6.739195e+16
7.012356e+16
7.146259e+16
7.146413e+16
7.012987e+16
6.739874e+16
6.348592e+16
5.824213e+16
5.221395e+16
4.276615e+16
3.559045e+16
2.468738e+16
1.839394e+16
1.50471e+16
8.77146e+15
8.858024e+15
1.506774e+16
1.775497e+16
2.361841e+16
3.282993e+16
3.847851e+16
4.321921e+16
5.056894e+16
5.392883e+16
5.590013e+16
5.686859e+16
5.686995e+16
5.591138e+16
5.394602e+16
5.05861e+16
4.323093e+16
3.849675e+16
3.28444e+16
2.36218e+16
1.774921e+16
1.505752e+16
8.849764e+15
8.786571e+15
1.140774e+16
1.668486e+16
2.071209e+16
2.537383e+16
3.217178e+16
3.493204e+16
3.64018e+16
3.7366e+16
3.788113e+16
3.787832e+16
3.738392e+16
3.642884e+16
3.496047e+16
3.219747e+16
2.539215e+16
2.072039e+16
1.66894e+16
1.140368e+16
8.783216e+15
9.402561e+15
1.547265e+16
1.703949e+16
1.934442e+16
2.172418e+16
2.274769e+16
2.337334e+16
2.367051e+16
2.366638e+16
2.338277e+16
2.276076e+16
2.173825e+16
1.935492e+16
1.704517e+16
1.548244e+16
9.403836e+15
8.460713e+15
1.060111e+16
1.17485e+16
1.602995e+16
1.658688e+16
1.693982e+16
1.711443e+16
1.711376e+16
1.694378e+16
1.659181e+16
1.603866e+16
1.175323e+16
1.060227e+16
8.467744e+15
8.473969e+15
9.956412e+15
1.027456e+16
1.039893e+16
1.039883e+16
1.027571e+16
9.956945e+15
8.47017e+15
7.532941e+15
8.79895e+15
9.049229e+15
9.04557e+15
8.787008e+15
7.524164e+15
7.18165e+15
9.39404e+15
1.069654e+16
1.245841e+16
1.681673e+16
1.761223e+16
1.790208e+16
1.789269e+16
1.758728e+16
1.678411e+16
1.244748e+16
1.068962e+16
9.384885e+15
7.178744e+15
7.239465e+15
9.945347e+15
1.548697e+16
1.863934e+16
2.166866e+16
2.736762e+16
2.995697e+16
3.092555e+16
3.13853e+16
3.13701e+16
3.08853e+16
2.991082e+16
2.733387e+16
2.163717e+16
1.860319e+16
1.546085e+16
9.934886e+15
7.237028e+15
8.195599e+15
1.459986e+16
1.949899e+16
2.778476e+16
3.192204e+16
3.601211e+16
3.982028e+16
4.606949e+16
4.842191e+16
4.93437e+16
4.932598e+16
4.837282e+16
4.600154e+16
3.974924e+16
3.593299e+16
3.184541e+16
2.770105e+16
1.946097e+16
1.456805e+16
8.187168e+15
8.893701e+15
1.673066e+16
2.306062e+16
3.243387e+16
3.912267e+16
4.807245e+16
5.387654e+16
5.829112e+16
6.197371e+16
6.421322e+16
6.523435e+16
6.521457e+16
6.415667e+16
6.188865e+16
5.818956e+16
5.376825e+16
4.796516e+16
3.902437e+16
3.233458e+16
2.300219e+16
1.668121e+16
8.87248e+15
9.308384e+15
1.864487e+16
2.887859e+16
3.598962e+16
4.315961e+16
5.497394e+16
6.34223e+16
7.028261e+16
7.499672e+16
7.851809e+16
8.078132e+16
8.186681e+16
8.184484e+16
8.071763e+16
7.841898e+16
7.487107e+16
7.013955e+16
6.32758e+16
5.483859e+16
4.304157e+16
3.587019e+16
2.877367e+16
1.857567e+16
9.276114e+15
8.898607e+15
1.864947e+16
3.042374e+16
3.88116e+16
5.060076e+16
6.046601e+16
7.054185e+16
7.878577e+16
8.562459e+16
9.133399e+16
9.550524e+16
9.81561e+16
9.943277e+16
9.940896e+16
9.80872e+16
9.539779e+16
9.119694e+16
8.54667e+16
7.861405e+16
7.036587e+16
6.029161e+16
5.043684e+16
3.866964e+16
3.028918e+16
1.857304e+16
8.864747e+15
8.20441e+15
1.673736e+16
2.889581e+16
3.881562e+16
5.204763e+16
6.374252e+16
7.482684e+16
8.449212e+16
9.344033e+16
1.01008e+17
1.072167e+17
1.118098e+17
1.147985e+17
1.162452e+17
1.1622e+17
1.147255e+17
1.116939e+17
1.07066e+17
1.008312e+17
9.324424e+16
8.428557e+16
7.461679e+16
6.354169e+16
5.186332e+16
3.866459e+16
2.87712e+16
1.666939e+16
8.171092e+15
7.249188e+15
1.460956e+16
2.308366e+16
3.600457e+16
5.061695e+16
6.375432e+16
7.629514e+16
8.730966e+16
9.788902e+16
1.074703e+17
1.155472e+17
1.221264e+17
1.271072e+17
1.304108e+17
1.319639e+17
1.319374e+17
1.303334e+17
1.269847e+17
1.219675e+17
1.153596e+17
1.072599e+17
9.766395e+16
8.70763e+16
7.606106e+16
6.353686e+16
5.042685e+16
3.585876e+16
2.299132e+16
1.454855e+16
7.216711e+15
9.957965e+15
1.952335e+16
3.244464e+16
4.319906e+16
6.049599e+16
7.485362e+16
8.732517e+16
9.93313e+16
1.105535e+17
1.205519e+17
1.290593e+17
1.359825e+17
1.412136e+17
1.447385e+17
1.465246e+17
1.464979e+17
1.446603e+17
1.410897e+17
1.358206e+17
1.288662e+17
1.20334e+17
1.103191e+17
9.908634e+16
8.707757e+16
7.461301e+16
6.028055e+16
4.302903e+16
3.231687e+16
1.944285e+16
9.917411e+15
7.195251e+15
1.549892e+16
2.779532e+16
3.915421e+16
5.502682e+16
7.058857e+16
8.453659e+16
9.792327e+16
1.105715e+17
1.222008e+17
1.325496e+17
1.413449e+17
1.485303e+17
1.54116e+17
1.579452e+17
1.599049e+17
1.598789e+17
1.57869e+17
1.53995e+17
1.483708e+17
1.411523e+17
1.323305e+17
1.219628e+17
1.103201e+17
9.766656e+16
8.428332e+16
7.034952e+16
5.482137e+16
3.898558e+16
2.768556e+16
1.54335e+16
7.169091e+15
9.39911e+15
1.865183e+16
3.194075e+16
4.812714e+16
6.348214e+16
7.884868e+16
9.350001e+16
1.075213e+17
1.205862e+17
1.325662e+17
1.431526e+17
1.523347e+17
1.598843e+17
1.657018e+17
1.696412e+17
1.716288e+17
1.716041e+17
1.695692e+17
1.65587e+17
1.597319e+17
1.521493e+17
1.429396e+17
1.323319e+17
1.203364e+17
1.072639e+17
9.32425e+16
7.859866e+16
6.325965e+16
4.793023e+16
3.180502e+16
1.857309e+16
9.362233e+15
1.070996e+16
2.169313e+16
3.605509e+16
5.39503e+16
7.035323e+16
8.570625e+16
1.010863e+17
1.156161e+17
1.291118e+17
1.41381e+17
1.52354e+17
1.61885e+17
1.696406e+17
1.755109e+17
1.794373e+17
1.813978e+17
1.813752e+17
1.793712e+17
1.754048e+17
1.694989e+17
1.617116e+17
1.52153e+17
1.411576e+17
1.288715e+17
1.153653e+17
1.008319e+17
8.545518e+16
7.012345e+16
5.373827e+16
3.589476e+16
2.159199e+16
1.065771e+16
1.247818e+16
2.742502e+16
3.989605e+16
5.838262e+16
7.508785e+16
9.143466e+16
1.073164e+17
1.222168e+17
1.360593e+17
1.485915e+17
1.599276e+17
1.696637e+17
1.774868e+17
1.833319e+17
1.872064e+17
1.891294e+17
1.891091e+17
1.871467e+17
1.832355e+17
1.773571e+17
1.695032e+17
1.597394e+17
1.483799e+17
1.358295e+17
1.219744e+17
1.070677e+17
9.118774e+16
7.485579e+16
5.81632e+16
3.971296e+16
2.727326e+16
1.241104e+16
7.547637e+15
1.683861e+16
3.002519e+16
4.616606e+16
6.208298e+16
7.863286e+16
9.562867e+16
1.119345e+17
1.272232e+17
1.413184e+17
1.542062e+17
1.657739e+17
1.755625e+17
1.833605e+17
1.891499e+17
1.929711e+17
1.948629e+17
1.948439e+17
1.929154e+17
1.890607e+17
1.832411e+17
1.754148e+17
1.655996e+17
1.540082e+17
1.411016e+17
1.269934e+17
1.11695e+17
9.538827e+16
7.840034e+16
6.185813e+16
4.596044e+16
2.986328e+16
1.674953e+16
7.504353e+15
8.807208e+15
1.764158e+16
3.099604e+16
4.852972e+16
6.43399e+16
8.092164e+16
9.830712e+16
1.149535e+17
1.305599e+17
1.448772e+17
1.580699e+17
1.697483e+17
1.795242e+17
1.872708e+17
1.930074e+17
1.96787e+17
1.986557e+17
1.986369e+17
1.967327e+17
1.929221e+17
1.87159e+17
1.793877e+17
1.695879e+17
1.57887e+17
1.446753e+17
1.303431e+17
1.147251e+17
9.807558e+16
8.069381e+16
6.412007e+16
4.832761e+16
3.084132e+16
1.755139e+16
8.766174e+15
9.064968e+15
1.79408e+16
3.146141e+16
4.946659e+16
6.538353e+16
8.203518e+16
9.961458e+16
1.164328e+17
1.32149e+17
1.467015e+17
1.600694e+17
1.717768e+17
1.815265e+17
1.892364e+17
1.949422e+17
1.986992e+17
2.005559e+17
2.00537e+17
1.986457e+17
1.948594e+17
1.891299e+17
1.813991e+17
1.716288e+17
1.599013e+17
1.46515e+17
1.319467e+17
1.162181e+17
9.939416e+16
8.18162e+16
6.51734e+16
4.927739e+16
3.132407e+16
1.785749e+16
9.023922e+15
9.065426e+15
1.794345e+16
3.146952e+16
4.947161e+16
6.538938e+16
8.204199e+16
9.962226e+16
1.164418e+17
1.321604e+17
1.467155e+17
1.600864e+17
1.71797e+17
1.815498e+17
1.892621e+17
1.949695e+17
1.987278e+17
2.005856e+17
2.005676e+17
1.986769e+17
1.948912e+17
1.891623e+17
1.81432e+17
1.716618e+17
1.599335e+17
1.465451e+17
1.319737e+17
1.162422e+17
9.941502e+16
8.183434e+16
6.519123e+16
4.929424e+16
3.133819e+16
1.786522e+16
9.02733e+15
8.814351e+15
1.764772e+16
3.100242e+16
4.853831e+16
6.435497e+16
8.094117e+16
9.832924e+16
1.149809e+17
1.305953e+17
1.449195e+17
1.581202e+17
1.698076e+17
1.795923e+17
1.873463e+17
1.93088e+17
1.968715e+17
1.987439e+17
1.987279e+17
1.968262e+17
1.93018e+17
1.872573e+17
1.794876e+17
1.696878e+17
1.579843e+17
1.447663e+17
1.304252e+17
1.147976e+17
9.813632e+16
8.074542e+16
6.417098e+16
4.837523e+16
3.088117e+16
1.757433e+16
8.777231e+15
7.557405e+15
1.683637e+16
3.002156e+16
4.617395e+16
6.210321e+16
7.866393e+16
9.566394e+16
1.119793e+17
1.272812e+17
1.41388e+17
1.542878e+17
1.658689e+17
1.756708e+17
1.834808e+17
1.892797e+17
1.931087e+17
1.950074e+17
1.949944e+17
1.930717e+17
1.892222e+17
1.834071e+17
1.755835e+17
1.657678e+17
1.541711e+17
1.412539e+17
1.271298e+17
1.118138e+17
9.548651e+16
7.848053e+16
6.193588e+16
4.602959e+16
2.991656e+16
1.677242e+16
7.526133e+15
1.248209e+16
2.741202e+16
3.990606e+16
5.84077e+16
7.513047e+16
9.148177e+16
1.073771e+17
1.222924e+17
1.361518e+17
1.487006e+17
1.600537e+17
1.698068e+17
1.776462e+17
1.835059e+17
1.873931e+17
1.893272e+17
1.893177e+17
1.873659e+17
1.834634e+17
1.77591e+17
1.6974e+17
1.599737e+17
1.486052e+17
1.360399e+17
1.221635e+17
1.07231e+17
9.132289e+16
7.49617e+16
5.826049e+16
3.978888e+16
2.7331e+16
1.243466e+16
1.071253e+16
2.170116e+16
3.607139e+16
5.397463e+16
7.040298e+16
8.576168e+16
1.011599e+17
1.157054e+17
1.292216e+17
1.415118e+17
1.525054e+17
1.620574e+17
1.69834e+17
1.75724e+17
1.796681e+17
1.816437e+17
1.816374e+17
1.796498e+17
1.756954e+17
1.697966e+17
1.620107e+17
1.524465e+17
1.414378e+17
1.291319e+17
1.155978e+17
1.010332e+17
8.562439e+16
7.025215e+16
5.384907e+16
3.596887e+16
2.162891e+16
1.067029e+16
9.410282e+15
1.866866e+16
3.196897e+16
4.815113e+16
6.35292e+16
7.891199e+16
9.3583e+16
1.076202e+17
1.20707e+17
1.327122e+17
1.433235e+17
1.525317e+17
1.601076e+17
1.659497e+17
1.699112e+17
1.719176e+17
1.719136e+17
1.698994e+17
1.659312e+17
1.600836e+17
1.525012e+17
1.43283e+17
1.326576e+17
1.206368e+17
1.075307e+17
9.347425e+16
7.879587e+16
6.340611e+16
4.804936e+16
3.187337e+16
1.860266e+16
9.369616e+15
7.203939e+15
1.551244e+16
2.783454e+16
3.917469e+16
5.506222e+16
7.065109e+16
8.462127e+16
9.802769e+16
1.107003e+17
1.223578e+17
1.327352e+17
1.415608e+17
1.48777e+17
1.543909e+17
1.582456e+17
1.602279e+17
1.602256e+17
1.582384e+17
1.543792e+17
1.48762e+17
1.415419e+17
1.327083e+17
1.223183e+17
1.106457e+17
9.7955e+16
8.453218e+16
7.056013e+16
5.497173e+16
3.910266e+16
2.773907e+16
1.546215e+16
7.174664e+15
9.964218e+15
1.953386e+16
3.248035e+16
4.321806e+16
6.055535e+16
7.493534e+16
8.743158e+16
9.946537e+16
1.107181e+17
1.20747e+17
1.292864e+17
1.362423e+17
1.415036e+17
1.450563e+17
1.468675e+17
1.468667e+17
1.450531e+17
1.414976e+17
1.362345e+17
1.29276e+17
1.2073e+17
1.106902e+17
9.942462e+16
8.73768e+16
7.486997e+16
6.04864e+16
4.316215e+16
3.24132e+16
1.948426e+16
9.93337e+15
7.249956e+15
1.462333e+16
2.310365e+16
3.605459e+16
5.068235e+16
6.383604e+16
7.640221e+16
8.744594e+16
9.805769e+16
1.0767e+17
1.157781e+17
1.223878e+17
1.273992e+17
1.307331e+17
1.323133e+17
1.323135e+17
1.307335e+17
1.273993e+17
1.223875e+17
1.15775e+17
1.076613e+17
9.803931e+16
8.741601e+16
7.635944e+16
6.378146e+16
5.061987e+16
3.599324e+16
2.30555e+16
1.458808e+16
7.235151e+15
8.207177e+15
1.676068e+16
2.893857e+16
3.88652e+16
5.211792e+16
6.384296e+16
7.495967e+16
8.465644e+16
9.363126e+16
1.012297e+17
1.074688e+17
1.120913e+17
1.151094e+17
1.165825e+17
1.165837e+17
1.151145e+17
1.120984e+17
1.074763e+17
1.012365e+17
9.363451e+16
8.464809e+16
7.493911e+16
6.381404e+16
5.208106e+16
3.882699e+16
2.88849e+16
1.672595e+16
8.192972e+15
8.904754e+15
1.867026e+16
3.047858e+16
3.886351e+16
5.069217e+16
6.058069e+16
7.068541e+16
7.895383e+16
8.582295e+16
9.156028e+16
9.575854e+16
9.843814e+16
9.974186e+16
9.97435e+16
9.844811e+16
9.577482e+16
9.157881e+16
8.584063e+16
7.896822e+16
7.068591e+16
6.056776e+16
5.067461e+16
3.884147e+16
3.044725e+16
1.864578e+16
8.890767e+15
9.315285e+15
1.86702e+16
2.894767e+16
3.606691e+16
4.325492e+16
5.509966e+16
6.356697e+16
7.044937e+16
7.518929e+16
7.87363e+16
8.102852e+16
8.214575e+16
8.214552e+16
8.104026e+16
7.875636e+16
7.521348e+16
7.047541e+16
6.358454e+16
5.51008e+16
4.323924e+16
3.605772e+16
2.893373e+16
1.865744e+16
9.30628e+15
8.901089e+15
1.675665e+16
2.311686e+16
3.249895e+16
3.919499e+16
4.818232e+16
5.401551e+16
5.84595e+16
6.216617e+16
6.442848e+16
6.546914e+16
6.546678e+16
6.443286e+16
6.217527e+16
5.847223e+16
5.403533e+16