/*--------------------------------*- C++ -*----------------------------------*\
  =========                 |
  \\      /  F ield         | OpenFOAM: The Open Source CFD Toolbox
   \\    /   O peration     | Website:  https://openfoam.org
    \\  /    A nd           | Version:  6
     \\/     M anipulation  |
\*---------------------------------------------------------------------------*/
FoamFile
{
    version     2.0;
    format      ascii;
    class       volScalarField;
    location    "50/region0/neutronTransport";
    object      discFlux7;
}
// * * * * * * * * * * * * * * * * * * * * * * * * * * * * * * * * * * * * * //

dimensions      [0 -2 -1 0 0 0 0];

internalField   nonuniform List<scalar> 
203709
(
6.166917
16.44511
15.41729
6.166917
4.111278
15.41729
47.2797
40.08496
39.05714
48.30752
14.38947
7.194737
5.139098
13.36165
46.25188
37.0015
34.94587
37.0015
37.0015
37.0015
37.0015
48.30752
13.36165
7.194737
5.139098
47.2797
38.02932
35.97368
35.97368
32.89023
34.94587
35.97368
32.89023
35.97368
37.0015
40.08496
48.30752
8.222557
14.38947
39.05714
33.91805
37.0015
35.97368
33.91805
35.97368
34.94587
33.91805
38.02932
35.97368
34.94587
41.11278
18.50075
4.111278
46.25188
35.97368
37.0015
35.97368
34.94587
33.91805
34.94587
34.94587
33.91805
34.94587
34.94587
37.0015
37.0015
51.39098
8.222557
14.38947
37.0015
34.94587
35.97368
34.94587
33.91805
34.94587
33.91805
33.91805
34.94587
33.91805
33.91805
37.0015
37.0015
39.05714
18.50075
5.139098
46.25188
33.91805
33.91805
32.89023
32.89023
34.94587
31.86241
31.86241
32.89023
30.83459
34.94587
33.91805
33.91805
34.94587
37.0015
51.39098
9.250376
16.44511
40.08496
38.02932
34.94587
33.91805
33.91805
33.91805
31.86241
32.89023
33.91805
32.89023
33.91805
34.94587
34.94587
35.97368
37.0015
41.11278
21.58421
14.38947
38.02932
38.02932
35.97368
34.94587
33.91805
33.91805
31.86241
33.91805
32.89023
30.83459
33.91805
34.94587
34.94587
35.97368
38.02932
41.11278
22.61203
7.194737
47.2797
34.94587
34.94587
32.89023
34.94587
34.94587
31.86241
32.89023
31.86241
31.86241
34.94587
33.91805
33.91805
34.94587
34.94587
49.33534
12.33383
14.38947
38.02932
35.97368
37.0015
33.91805
33.91805
34.94587
34.94587
33.91805
34.94587
33.91805
33.91805
35.97368
37.0015
38.02932
18.50075
7.194737
48.30752
35.97368
35.97368
35.97368
33.91805
34.94587
34.94587
33.91805
33.91805
34.94587
34.94587
37.0015
37.0015
48.30752
12.33383
13.36165
40.08496
34.94587
35.97368
37.0015
34.94587
34.94587
34.94587
33.91805
35.97368
35.97368
34.94587
40.08496
18.50075
7.194737
48.30752
41.11278
37.0015
37.0015
34.94587
37.0015
37.0015
35.97368
37.0015
37.0015
40.08496
50.36316
12.33383
8.222557
17.47293
51.39098
39.05714
35.97368
38.02932
37.0015
34.94587
37.0015
48.30752
18.50075
12.33383
8.222557
18.50075
49.33534
41.11278
42.1406
50.36316
18.50075
12.33383
9.250376
21.58421
22.61203
13.36165
5.139098
11.30602
11.30602
13.36165
13.36165
12.33383
13.36165
11.30602
12.33383
7.194737
5.139098
14.38947
44.19624
38.02932
37.0015
37.0015
38.02932
37.0015
37.0015
37.0015
38.02932
46.25188
14.38947
7.194737
4.111278
42.1406
35.97368
34.94587
35.97368
32.89023
56.53008
69.89173
68.86391
58.58572
32.89023
35.97368
34.94587
34.94587
43.16842
6.166917
4.111278
42.1406
33.91805
33.91805
31.86241
57.5579
114.088
9.507718e+14
1.227941e+15
1.223185e+15
1.056432e+15
136.7
62.69699
32.89023
34.94587
34.94587
45.22406
6.166917
4.111278
42.1406
33.91805
32.89023
58.58572
117.1714
9.829828e+14
1.393884e+15
1.736938e+15
2.059084e+15
2.087495e+15
1.78638e+15
1.403956e+15
1.095702e+15
138.7556
60.64135
31.86241
35.97368
44.19624
6.166917
4.111278
43.16842
33.91805
31.86241
89.4203
9.809913e+14
1.394653e+15
1.761323e+15
2.141545e+15
2.295644e+15
2.416182e+15
2.434791e+15
2.367362e+15
2.204245e+15
1.816357e+15
1.404439e+15
1.092861e+15
113.0602
31.86241
35.97368
44.19624
7.194737
14.38947
34.94587
34.94587
58.58572
9.809137e+14
1.715264e+15
2.129038e+15
2.30392e+15
2.453388e+15
2.522999e+15
2.564368e+15
2.573246e+15
2.551234e+15
2.49211e+15
2.379833e+15
2.183693e+15
1.759005e+15
1.135038e+15
80.16993
35.97368
38.02932
17.47293
5.139098
43.16842
34.94587
31.86241
116.1436
1.39488e+15
2.129084e+15
2.405692e+15
2.515471e+15
2.579522e+15
2.613218e+15
2.630842e+15
2.634378e+15
2.624186e+15
2.597772e+15
2.546349e+15
2.444244e+15
2.222531e+15
1.613467e+15
146.9782
31.86241
34.94587
48.30752
8.222557
11.30602
37.0015
34.94587
58.58572
9.833025e+14
1.761753e+15
2.30412e+15
2.515551e+15
2.59593e+15
2.633802e+15
2.652586e+15
2.66131e+15
2.66268e+15
2.65691e+15
2.641979e+15
2.61111e+15
2.5455e+15
2.386291e+15
1.895573e+15
1.153884e+15
80.16993
34.94587
40.08496
16.44511
11.30602
37.0015
32.89023
115.1158
1.39435e+15
2.141899e+15
2.453604e+15
2.579646e+15
2.633882e+15
2.658915e+15
2.670796e+15
2.676348e+15
2.67708e+15
2.672986e+15
2.662987e+15
2.642253e+15
2.598793e+15
2.500277e+15
2.26095e+15
1.620031e+15
146.9782
32.89023
39.05714
17.47293
14.38947
35.97368
57.5579
9.507578e+14
1.737247e+15
2.29593e+15
2.523186e+15
2.613339e+15
2.652705e+15
2.670885e+15
2.679637e+15
2.683738e+15
2.683994e+15
2.680681e+15
2.673174e+15
2.657414e+15
2.625172e+15
2.554113e+15
2.382154e+15
1.873923e+15
1.124694e+15
76.05865
39.05714
19.52857
12.33383
38.02932
69.89173
1.227907e+15
2.05919e+15
2.416351e+15
2.564485e+15
2.630945e+15
2.661452e+15
2.676504e+15
2.683849e+15
2.686821e+15
2.686872e+15
2.684211e+15
2.677787e+15
2.663798e+15
2.636882e+15
2.579756e+15
2.456109e+15
2.174612e+15
1.471882e+15
94.5594
39.05714
18.50075
12.33383
38.02932
69.89173
1.222822e+15
2.087301e+15
2.43477e+15
2.573293e+15
2.634452e+15
2.662786e+15
2.677209e+15
2.684183e+15
2.687215e+15
2.687076e+15
2.684271e+15
2.677563e+15
2.663229e+15
2.635278e+15
2.575532e+15
2.447559e+15
2.1601e+15
1.511117e+15
95.58722
39.05714
18.50075
13.36165
35.97368
58.58572
1.056684e+15
1.785987e+15
2.367241e+15
2.55123e+15
2.624189e+15
2.656954e+15
2.673059e+15
2.680812e+15
2.684422e+15
2.684335e+15
2.680846e+15
2.672476e+15
2.655705e+15
2.620592e+15
2.542582e+15
2.357559e+15
1.824129e+15
1.346078e+15
85.30902
38.02932
18.50075
11.30602
37.0015
31.86241
136.7
1.403759e+15
2.204198e+15
2.492012e+15
2.597679e+15
2.641948e+15
2.663052e+15
2.673306e+15
2.677967e+15
2.677643e+15
2.672543e+15
2.661463e+15
2.638935e+15
2.590898e+15
2.482643e+15
2.22613e+15
1.62487e+15
178.8406
31.86241
39.05714
17.47293
11.30602
37.0015
35.97368
61.66917
1.096215e+15
1.816745e+15
2.379947e+15
2.546352e+15
2.611088e+15
2.642339e+15
2.657562e+15
2.663857e+15
2.663182e+15
2.655805e+15
2.639034e+15
2.605279e+15
2.53529e+15
2.363945e+15
1.842603e+15
1.370599e+15
90.44812
37.0015
40.08496
17.47293
7.194737
46.25188
34.94587
31.86241
137.7278
1.404759e+15
2.183991e+15
2.444324e+15
2.54556e+15
2.598945e+15
2.625296e+15
2.636453e+15
2.63465e+15
2.620591e+15
2.590995e+15
2.535314e+15
2.436786e+15
2.208923e+15
1.623599e+15
182.9519
33.91805
34.94587
46.25188
11.30602
14.38947
38.02932
34.94587
61.66917
1.093197e+15
1.759349e+15
2.222645e+15
2.386467e+15
2.500524e+15
2.554274e+15
2.579038e+15
2.574739e+15
2.542614e+15
2.482686e+15
2.363967e+15
2.209037e+15
1.797384e+15
1.369741e+15
88.39248
35.97368
34.94587
18.50075
7.194737
45.22406
37.0015
32.89023
113.0602
1.13536e+15
1.613615e+15
1.895865e+15
2.26138e+15
2.382405e+15
2.455534e+15
2.446922e+15
2.357611e+15
2.226142e+15
1.842696e+15
1.623952e+15
1.370054e+15
153.1451
33.91805
35.97368
45.22406
12.33383
6.166917
44.19624
35.97368
32.89023
81.19775
146.9782
1.154111e+15
1.620836e+15
1.873998e+15
2.173759e+15
2.15943e+15
1.824208e+15
1.624751e+15
1.37051e+15
182.9519
89.4203
32.89023
35.97368
44.19624
9.250376
5.139098
46.25188
35.97368
35.97368
31.86241
80.16993
144.9226
1.124565e+15
1.471293e+15
1.511063e+15
1.345746e+15
179.8684
90.44812
32.89023
35.97368
35.97368
44.19624
9.250376
6.166917
45.22406
39.05714
34.94587
34.94587
31.86241
77.08647
95.58722
96.61504
85.30902
33.91805
35.97368
34.94587
37.0015
45.22406
9.250376
7.194737
17.47293
48.30752
39.05714
39.05714
39.05714
41.11278
40.08496
38.02932
38.02932
40.08496
47.2797
17.47293
11.30602
7.194737
16.44511
17.47293
20.55639
18.50075
18.50075
20.55639
17.47293
17.47293
12.33383
3.083459
12.33383
12.33383
11.30602
11.30602
12.33383
13.36165
5.139098
3.083459
12.33383
12.33383
44.19624
39.05714
39.05714
38.02932
37.0015
39.05714
39.05714
47.2797
12.33383
13.36165
5.139098
3.083459
46.25188
32.89023
57.5579
71.94737
71.94737
72.97519
71.94737
71.94737
71.94737
72.97519
70.91955
58.58572
33.91805
45.22406
6.166917
6.166917
12.33383
39.05714
59.61353
117.1714
1.005635e+15
1.293628e+15
1.311619e+15
1.309039e+15
1.306282e+15
1.305006e+15
1.304334e+15
1.301708e+15
1.281787e+15
1.114559e+15
139.7835
63.72481
41.11278
13.36165
7.194737
6.166917
44.19624
32.89023
94.5594
1.038048e+15
1.472691e+15
1.849844e+15
2.200299e+15
2.319194e+15
2.360827e+15
2.36875e+15
2.365895e+15
2.35208e+15
2.311287e+15
2.222862e+15
1.894647e+15
1.481765e+15
1.159778e+15
119.2271
33.91805
44.19624
8.222557
5.139098
43.16842
33.91805
98.67068
1.140674e+15
1.837189e+15
2.25738e+15
2.453862e+15
2.631292e+15
2.738198e+15
2.839768e+15
2.860503e+15
2.856653e+15
2.829038e+15
2.722421e+15
2.64167e+15
2.514047e+15
2.306327e+15
1.882815e+15
1.279406e+15
125.394
33.91805
45.22406
8.222557
12.33383
33.91805
100.7263
1.144388e+15
1.863563e+15
2.33908e+15
2.624543e+15
2.787929e+15
2.958224e+15
3.096111e+15
3.513678e+15
3.621312e+15
3.628727e+15
3.573161e+15
3.110122e+15
2.962396e+15
2.796296e+15
2.652655e+15
2.429157e+15
1.93916e+15
1.287022e+15
126.4218
34.94587
16.44511
5.139098
39.05714
95.58722
1.141077e+15
1.863459e+15
2.356129e+15
2.688997e+15
2.933215e+15
3.111887e+15
3.564155e+15
3.73367e+15
3.874794e+15
4.000008e+15
4.027581e+15
3.982574e+15
3.801575e+15
3.643255e+15
3.137907e+15
2.947441e+15
2.718114e+15
2.452947e+15
1.94234e+15
1.286637e+15
121.2827
42.1406
6.166917
3.083459
43.16842
59.61353
1.037565e+15
1.837568e+15
2.339516e+15
2.68934e+15
3.014092e+15
3.535854e+15
3.733441e+15
3.897475e+15
4.054782e+15
4.14146e+15
4.205252e+15
4.224822e+15
4.204541e+15
4.128465e+15
4.021548e+15
3.80675e+15
3.614807e+15
3.044801e+15
2.721044e+15
2.438756e+15
1.914524e+15
1.209792e+15
82.22557
46.25188
7.194737
13.36165
32.89023
118.1993
1.472933e+15
2.257544e+15
2.624945e+15
2.933451e+15
3.535747e+15
3.844079e+15
4.041469e+15
4.14883e+15
4.233113e+15
4.282081e+15
4.31241e+15
4.322153e+15
4.31217e+15
4.278395e+15
4.221833e+15
4.11852e+15
3.976464e+15
3.669426e+15
2.963495e+15
2.66711e+15
2.358103e+15
1.701463e+15
151.0895
34.94587
16.44511
12.33383
57.5579
1.004159e+15
1.850137e+15
2.454096e+15
2.788239e+15
3.111938e+15
3.733451e+15
4.041474e+15
4.197672e+15
4.276315e+15
4.324885e+15
4.352941e+15
4.368407e+15
4.372747e+15
4.366365e+15
4.347734e+15
4.314262e+15
4.255019e+15
4.154178e+15
3.938271e+15
3.178021e+15
2.809325e+15
2.529528e+15
1.986312e+15
1.19081e+15
80.16993
17.47293
3.083459
46.25188
70.91955
1.292212e+15
2.200061e+15
2.631393e+15
2.958426e+15
3.564337e+15
3.897683e+15
4.148952e+15
4.276379e+15
4.338181e+15
4.371064e+15
4.388781e+15
4.397589e+15
4.399495e+15
4.394882e+15
4.382605e+15
4.35967e+15
4.318764e+15
4.243482e+15
4.091383e+15
3.721617e+15
2.988235e+15
2.66686e+15
2.315242e+15
1.549288e+15
98.67068
49.33534
5.139098
12.33383
39.05714
72.97519
1.310793e+15
2.31876e+15
2.7381e+15
3.096012e+15
3.733807e+15
4.05497e+15
4.233254e+15
4.324979e+15
4.371111e+15
4.394979e+15
4.407491e+15
4.413482e+15
4.414375e+15
4.410494e+15
4.401194e+15
4.38389e+15
4.353115e+15
4.297632e+15
4.18916e+15
3.948336e+15
3.16059e+15
2.752632e+15
2.396519e+15
1.611244e+15
100.7263
42.1406
18.50075
12.33383
40.08496
71.94737
1.308611e+15
2.36045e+15
2.839641e+15
3.513555e+15
3.874873e+15
4.141623e+15
4.282198e+15
4.353028e+15
4.388857e+15
4.407542e+15
4.417256e+15
4.42169e+15
4.422078e+15
4.418768e+15
4.410979e+15
4.396716e+15
4.371466e+15
4.32651e+15
4.241795e+15
4.071167e+15
3.668588e+15
2.869276e+15
2.438539e+15
1.625212e+15
100.7263
41.11278
18.50075
11.30602
35.97368
71.94737
1.30609e+15
2.368541e+15
2.860355e+15
3.621241e+15
4.000049e+15
4.205348e+15
4.312492e+15
4.368488e+15
4.397678e+15
4.413567e+15
4.421753e+15
4.425461e+15
4.425556e+15
4.422569e+15
4.415382e+15
4.402429e+15
4.379873e+15
4.340386e+15
4.270363e+15
4.135374e+15
3.835234e+15
2.919132e+15
2.457011e+15
1.630751e+15
100.7263
40.08496
17.47293
10.2782
38.02932
71.94737
1.304962e+15
2.365887e+15
2.856609e+15
3.628558e+15
4.027459e+15
4.224812e+15
4.322188e+15
4.3728e+15
4.399568e+15
4.414458e+15
4.422181e+15
4.425674e+15
4.42561e+15
4.422563e+15
4.415319e+15
4.402339e+15
4.379761e+15
4.34042e+15
4.27169e+15
4.140178e+15
3.857612e+15
2.932457e+15
2.462248e+15
1.633285e+15
100.7263
40.08496
16.44511
12.33383
39.05714
72.97519
1.304335e+15
2.352079e+15
2.82901e+15
3.573288e+15
3.982463e+15
4.204495e+15
4.312158e+15
4.366375e+15
4.394923e+15
4.410554e+15
4.418852e+15
4.422674e+15
4.422603e+15
4.418929e+15
4.410937e+15
4.396614e+15
4.371404e+15
4.327131e+15
4.246818e+15
4.099261e+15
3.765465e+15
2.917774e+15
2.455598e+15
1.634185e+15
99.6985
41.11278
17.47293
12.33383
38.02932
71.94737
1.301661e+15
2.311011e+15
2.722212e+15
3.110175e+15
3.801628e+15
4.128462e+15
4.278352e+15
4.347702e+15
4.38261e+15
4.401239e+15
4.411062e+15
4.415465e+15
4.415362e+15
4.410973e+15
4.401474e+15
4.384198e+15
4.353854e+15
4.299443e+15
4.191831e+15
3.96184e+15
3.195561e+15
2.790418e+15
2.41109e+15
1.630543e+15
100.7263
41.11278
18.50075
5.139098
46.25188
71.94737
1.281856e+15
2.222419e+15
2.641553e+15
2.962458e+15
3.643486e+15
4.021716e+15
4.221918e+15
4.314284e+15
4.359682e+15
4.383948e+15
4.396783e+15
4.402403e+15
4.402299e+15
4.396646e+15
4.384235e+15
4.362035e+15
4.323618e+15
4.253238e+15
4.119085e+15
3.809066e+15
3.036014e+15
2.684569e+15
2.308495e+15
1.607637e+15
98.67068
47.2797
11.30602
12.33383
58.58572
1.114821e+15
1.894104e+15
2.514044e+15
2.796255e+15
3.137758e+15
3.80689e+15
4.118638e+15
4.255075e+15
4.318821e+15
4.353201e+15
4.371478e+15
4.379497e+15
4.379432e+15
4.371363e+15
4.35388e+15
4.323634e+15
4.272368e+15
4.176148e+15
3.960009e+15
3.211319e+15
2.840749e+15
2.527509e+15
1.945168e+15
1.423027e+15
88.39248
16.44511
12.33383
32.89023
140.8113
1.481177e+15
2.306631e+15
2.652761e+15
2.947202e+15
3.614844e+15
3.976549e+15
4.154261e+15
4.243601e+15
4.297777e+15
4.326563e+15
4.339937e+15
4.340032e+15
4.327071e+15
4.299443e+15
4.253275e+15
4.176202e+15
4.062693e+15
3.780928e+15
3.013477e+15
2.679233e+15
2.346068e+15
1.71526e+15
185.0075
37.0015
17.47293
5.139098
45.22406
62.69699
1.159169e+15
1.883223e+15
2.429202e+15
2.717618e+15
3.044417e+15
3.6695e+15
3.938384e+15
4.091546e+15
4.189342e+15
4.241844e+15
4.269871e+15
4.271304e+15
4.24679e+15
4.191826e+15
4.119113e+15
3.960125e+15
3.78101e+15
3.123e+15
2.755528e+15
2.431571e+15
1.923335e+15
1.446054e+15
91.47594
48.30752
10.2782
6.166917
40.08496
118.1993
1.27898e+15
1.93899e+15
2.452335e+15
2.720608e+15
2.963411e+15
3.178051e+15
3.721678e+15
3.948477e+15
4.071104e+15
4.134873e+15
4.139876e+15
4.099278e+15
3.961843e+15
3.808986e+15
3.211258e+15
3.013423e+15
2.755565e+15
2.4519e+15
1.946963e+15
1.50092e+15
161.3677
41.11278
9.250376
12.33383
32.89023
125.394
1.287461e+15
1.941858e+15
2.438734e+15
2.667185e+15
2.809339e+15
2.98821e+15
3.16054e+15
3.668446e+15
3.834961e+15
3.857538e+15
3.765516e+15
3.195732e+15
3.035914e+15
2.840726e+15
2.67942e+15
2.431923e+15
1.946923e+15
1.503765e+15
166.5068
33.91805
16.44511
8.222557
45.22406
33.91805
128.4774
1.286841e+15
1.91506e+15
2.358279e+15
2.529535e+15
2.666817e+15
2.752515e+15
2.869104e+15
2.918669e+15
2.931898e+15
2.9178e+15
2.790647e+15
2.68469e+15
2.527682e+15
2.346405e+15
1.924225e+15
1.50132e+15
168.5624
35.97368
47.2797
12.33383
8.222557
46.25188
33.91805
120.2549
1.209977e+15
1.701312e+15
1.98612e+15
2.314707e+15
2.395771e+15
2.437942e+15
2.456244e+15
2.461188e+15
2.455541e+15
2.411509e+15
2.30892e+15
1.944967e+15
1.71454e+15
1.445678e+15
160.3399
34.94587
47.2797
11.30602
9.250376
17.47293
42.1406
82.22557
151.0895
1.19005e+15
1.547898e+15
1.609703e+15
1.624178e+15
1.631235e+15
1.632819e+15
1.634195e+15
1.631251e+15
1.608903e+15
1.424758e+15
185.0075
92.50376
41.11278
17.47293
13.36165
6.166917
46.25188
34.94587
79.14211
98.67068
100.7263
100.7263
101.7541
101.7541
99.6985
100.7263
98.67068
89.4203
35.97368
47.2797
9.250376
6.166917
16.44511
16.44511
48.30752
42.1406
40.08496
39.05714
40.08496
40.08496
40.08496
48.30752
15.41729
18.50075
10.2782
6.166917
17.47293
16.44511
17.47293
17.47293
17.47293
18.50075
11.30602
4.111278
11.30602
13.36165
13.36165
11.30602
5.139098
3.083459
11.30602
10.2782
25.69549
79.14211
77.08647
79.14211
78.11429
77.08647
79.14211
27.75113
10.2782
11.30602
4.111278
5.139098
12.33383
62.69699
83.25338
125.394
1.062046e+15
1.372482e+15
1.387054e+15
1.382376e+15
1.380208e+15
1.3796e+15
1.370487e+15
1.183304e+15
149.0338
83.25338
67.83609
9.250376
5.139098
4.111278
41.11278
100.7263
1.078453e+15
1.416314e+15
1.588986e+15
1.956197e+15
2.310115e+15
2.414671e+15
2.438512e+15
2.437935e+15
2.416721e+15
2.339602e+15
2.011398e+15
1.593981e+15
1.402308e+15
1.192032e+15
124.3662
41.11278
6.166917
1.02782
67.83609
129.5053
1.213503e+15
1.953095e+15
2.390216e+15
2.626872e+15
2.741016e+15
2.87367e+15
2.932417e+15
2.952879e+15
2.954009e+15
2.939388e+15
2.898811e+15
2.807771e+15
2.646015e+15
2.394869e+15
1.985074e+15
1.343365e+15
157.2564
69.89173
3.083459
2.055639
102.782
1.123915e+15
1.58636e+15
2.053914e+15
2.61566e+15
2.962118e+15
3.483952e+15
3.640016e+15
3.699581e+15
3.723799e+15
3.732078e+15
3.732204e+15
3.725818e+15
3.709145e+15
3.668827e+15
3.560858e+15
3.005968e+15
2.708103e+15
2.119984e+15
1.587351e+15
1.250182e+15
123.3383
2.055639
2.055639
101.7541
1.236882e+15
1.978351e+15
2.465416e+15
2.834453e+15
3.470613e+15
3.729531e+15
3.922492e+15
4.075171e+15
4.139668e+15
4.164398e+15
4.171586e+15
4.171856e+15
4.167196e+15
4.15256e+15
4.118317e+15
4.038697e+15
3.81634e+15
3.590357e+15
2.927133e+15
2.494333e+15
1.999672e+15
1.380349e+15
127.4496
3.083459
3.083459
66.80827
1.124684e+15
1.978363e+15
2.528699e+15
2.968953e+15
3.566503e+15
3.889467e+15
4.100762e+15
4.217209e+15
4.302795e+15
4.349355e+15
4.378643e+15
4.387624e+15
4.388955e+15
4.385393e+15
4.364153e+15
4.336941e+15
4.287761e+15
4.185179e+15
4.038705e+15
3.721563e+15
3.02688e+15
2.595083e+15
2.028419e+15
1.304263e+15
87.36466
5.139098
4.111278
39.05714
130.5331
1.586313e+15
2.465105e+15
2.969054e+15
3.596578e+15
3.920841e+15
4.152479e+15
4.2955e+15
4.376605e+15
4.438236e+15
4.480642e+15
4.566194e+15
4.600914e+15
4.609849e+15
4.604692e+15
4.51812e+15
4.471269e+15
4.421005e+15
4.358243e+15
4.264691e+15
4.092065e+15
3.749935e+15
3.036033e+15
2.544719e+15
1.805323e+15
164.4511
43.16842
7.194737
10.2782
99.6985
1.211682e+15
2.054098e+15
2.83448e+15
3.566731e+15
3.920906e+15
4.16125e+15
4.316457e+15
4.420453e+15
4.487759e+15
4.590978e+15
4.645703e+15
4.694558e+15
4.732323e+15
4.746782e+15
4.742602e+15
4.694797e+15
4.651207e+15
4.542623e+15
4.473033e+15
4.394073e+15
4.28523e+15
4.096555e+15
3.730225e+15
2.941786e+15
2.183979e+15
1.36809e+15
127.4496
13.36165
4.111278
63.72481
1.076683e+15
1.952021e+15
2.615959e+15
3.470554e+15
3.889697e+15
4.152746e+15
4.316616e+15
4.436436e+15
4.572184e+15
4.644285e+15
4.704987e+15
4.754853e+15
4.788876e+15
4.814019e+15
4.825044e+15
4.822753e+15
4.79971e+15
4.768916e+15
4.704503e+15
4.64581e+15
4.515522e+15
4.405951e+15
4.281066e+15
4.072212e+15
3.658781e+15
2.749076e+15
2.030179e+15
1.26231e+15
88.39248
6.166917
12.33383
83.25338
1.414781e+15
2.389792e+15
2.96209e+15
3.7295e+15
4.100847e+15
4.295733e+15
4.420585e+15
4.572173e+15
4.678125e+15
4.747322e+15
4.79183e+15
4.825753e+15
4.8479e+15
4.862445e+15
4.868802e+15
4.867198e+15
4.855595e+15
4.83648e+15
4.801531e+15
4.759852e+15
4.675531e+15
4.510196e+15
4.389743e+15
4.241734e+15
3.963079e+15
3.070287e+15
2.483785e+15
1.664047e+15
114.088
16.44511
10.2782
125.394
1.588104e+15
2.627082e+15
3.483332e+15
3.92249e+15
4.217312e+15
4.376784e+15
4.487818e+15
4.644289e+15
4.747323e+15
4.809078e+15
4.844653e+15
4.867609e+15
4.881815e+15
4.890223e+15
4.893537e+15
4.891999e+15
4.885002e+15
4.87253e+15
4.851532e+15
4.821797e+15
4.7653e+15
4.588e+15
4.458456e+15
4.332606e+15
4.131765e+15
3.667763e+15
2.723377e+15
1.880054e+15
164.4511
15.41729
25.69549
1.062932e+15
1.957047e+15
2.741908e+15
3.639667e+15
4.075056e+15
4.302841e+15
4.438332e+15
4.591041e+15
4.705047e+15
4.791871e+15
4.844676e+15
4.87403e+15
4.890928e+15
4.900635e+15
4.905848e+15
4.907569e+15
4.906084e+15
4.901089e+15
4.891992e+15
4.877066e+15
4.854016e+15
4.813429e+15
4.708859e+15
4.52898e+15
4.395501e+15
4.227648e+15
3.881817e+15
2.866709e+15
2.12698e+15
1.269614e+15
42.1406
3.083459
78.11429
1.373378e+15
2.311655e+15
2.874717e+15
3.699517e+15
4.13949e+15
4.349306e+15
4.480608e+15
4.645729e+15
4.754911e+15
4.825805e+15
4.867645e+15
4.890946e+15
4.90391e+15
4.911078e+15
4.91471e+15
4.915668e+15
4.914215e+15
4.910182e+15
4.902914e+15
4.891066e+15
4.872506e+15
4.841432e+15
4.775085e+15
4.584327e+15
4.43544e+15
4.273e+15
3.958349e+15
2.976103e+15
2.446992e+15
1.643093e+15
108.9489
6.166917
11.30602
78.11429
1.387593e+15
2.415895e+15
2.933128e+15
3.723825e+15
4.164244e+15
4.378563e+15
4.566134e+15
4.694566e+15
4.788927e+15
4.847946e+15
4.881852e+15
4.900663e+15
4.911096e+15
4.916786e+15
4.919549e+15
4.920121e+15
4.918742e+15
4.915216e+15
4.908965e+15
4.898782e+15
4.882744e+15
4.856771e+15
4.809141e+15
4.691102e+15
4.483513e+15
4.300641e+15
3.987147e+15
3.022335e+15
2.516006e+15
1.691524e+15
107.9211
16.44511
13.36165
79.14211
1.382331e+15
2.438892e+15
2.953185e+15
3.732122e+15
4.171527e+15
4.387566e+15
4.600878e+15
4.732328e+15
4.814052e+15
4.862479e+15
4.890257e+15
4.905881e+15
4.91474e+15
4.919569e+15
4.921879e+15
4.922245e+15
4.920915e+15
4.917617e+15
4.911859e+15
4.902555e+15
4.887977e+15
4.865281e+15
4.826734e+15
4.742907e+15
4.510402e+15
4.314699e+15
3.998011e+15
3.039669e+15
2.537381e+15
1.708902e+15
109.9767
17.47293
13.36165
78.11429
1.380484e+15
2.438131e+15
2.954222e+15
3.732301e+15
4.171915e+15
4.388965e+15
4.609814e+15
4.746751e+15
4.825044e+15
4.868818e+15
4.89356e+15
4.907597e+15
4.915699e+15
4.920154e+15
4.922274e+15
4.922536e+15
4.921178e+15
4.917903e+15
4.912244e+15
4.903171e+15
4.889103e+15
4.867697e+15
4.83209e+15
4.757886e+15
4.520224e+15
4.318873e+15
3.999118e+15
3.039629e+15
2.537893e+15
1.714195e+15
109.9767
18.50075
11.30602
78.11429
1.380214e+15
2.416882e+15
2.939605e+15
3.725934e+15
4.167226e+15
4.385366e+15
4.60471e+15
4.742583e+15
4.822743e+15
4.867198e+15
4.892007e+15
4.906101e+15
4.914239e+15
4.918772e+15
4.920947e+15
4.921191e+15
4.919678e+15
4.916218e+15
4.910292e+15
4.900855e+15
4.886405e+15
4.8643e+15
4.828261e+15
4.745068e+15
4.516618e+15
4.313993e+15
3.99052e+15
3.020612e+15
2.514563e+15
1.714446e+15
108.9489
18.50075
4.111278
82.22557
1.37032e+15
2.339877e+15
2.899045e+15
3.709212e+15
4.152424e+15
4.364044e+15
4.518138e+15
4.69482e+15
4.799714e+15
4.855587e+15
4.884996e+15
4.901095e+15
4.910198e+15
4.915241e+15
4.917641e+15
4.917916e+15
4.916227e+15
4.912392e+15
4.905811e+15
4.895455e+15
4.879633e+15
4.853573e+15
4.802538e+15
4.63461e+15
4.470257e+15
4.288163e+15
3.964026e+15
2.968484e+15
2.426529e+15
1.702847e+15
107.9211
9.250376
27.75113
1.181221e+15
2.011603e+15
2.807766e+15
3.668828e+15
4.118049e+15
4.33685e+15
4.47126e+15
4.651247e+15
4.768954e+15
4.836503e+15
4.872539e+15
4.891999e+15
4.902931e+15
4.908981e+15
4.911848e+15
4.912227e+15
4.910295e+15
4.905818e+15
4.898191e+15
4.88637e+15
4.868244e+15
4.83834e+15
4.768032e+15
4.576974e+15
4.423771e+15
4.241758e+15
3.904171e+15
2.860021e+15
2.066978e+15
1.49574e+15
47.2797
9.250376
148.006
1.593958e+15
2.645916e+15
3.561014e+15
4.038412e+15
4.287721e+15
4.420965e+15
4.542563e+15
4.704516e+15
4.801556e+15
4.85155e+15
4.877085e+15
4.891089e+15
4.898778e+15
4.902449e+15
4.903067e+15
4.900823e+15
4.895454e+15
4.886373e+15
4.872148e+15
4.849175e+15
4.802923e+15
4.644079e+15
4.500182e+15
4.357467e+15
4.159881e+15
3.755748e+15
2.750706e+15
1.850199e+15
197.3414
16.44511
11.30602
84.2812
1.401936e+15
2.393764e+15
3.005601e+15
3.815957e+15
4.185208e+15
4.358229e+15
4.472887e+15
4.645747e+15
4.759845e+15
4.821815e+15
4.854049e+15
4.872543e+15
4.882745e+15
4.887835e+15
4.888965e+15
4.886358e+15
4.879623e+15
4.868251e+15
4.849187e+15
4.821512e+15
4.756035e+15
4.568193e+15
4.424327e+15
4.261134e+15
3.972806e+15
3.086618e+15
2.507095e+15
1.729915e+15
114.088
18.50075
5.139098
67.83609
1.193558e+15
1.983668e+15
2.707081e+15
3.589516e+15
4.038548e+15
4.264576e+15
4.393784e+15
4.515284e+15
4.675484e+15
4.765318e+15
4.813471e+15
4.841473e+15
4.856766e+15
4.865116e+15
4.867547e+15
4.864258e+15
4.853562e+15
4.838342e+15
4.802944e+15
4.756055e+15
4.608261e+15
4.464758e+15
4.320429e+15
4.125279e+15
3.741528e+15
2.757405e+15
2.058102e+15
1.518543e+15
96.61504
9.250376
9.250376
125.394
1.343655e+15
2.11873e+15
2.926374e+15
3.72124e+15
4.091846e+15
4.284883e+15
4.405719e+15
4.510112e+15
4.58799e+15
4.708869e+15
4.775094e+15
4.809097e+15
4.826556e+15
4.831959e+15
4.828243e+15
4.80254e+15
4.768011e+15
4.644067e+15
4.568206e+15
4.464801e+15
4.335767e+15
4.159204e+15
3.824765e+15
2.981576e+15
2.158168e+15
1.586356e+15
170.618
12.33383
7.194737
41.11278
157.2564
1.58844e+15
2.494358e+15
3.026608e+15
3.749879e+15
4.096412e+15
4.281051e+15
4.389771e+15
4.458462e+15
4.528985e+15
4.584299e+15
4.691015e+15
4.742734e+15
4.757785e+15
4.745082e+15
4.634662e+15
4.576968e+15
4.500224e+15
4.42445e+15
4.320626e+15
4.159371e+15
3.850715e+15
3.088185e+15
2.572314e+15
1.838616e+15
201.4526
42.1406
10.2782
5.139098
69.89173
1.25176e+15
1.999524e+15
2.594408e+15
3.035886e+15
3.730349e+15
4.072406e+15
4.241812e+15
4.332602e+15
4.395454e+15
4.435332e+15
4.48336e+15
4.509993e+15
4.519861e+15
4.516564e+15
4.470369e+15
4.42387e+15
4.357548e+15
4.261185e+15
4.125359e+15
3.8248e+15
3.088418e+15
2.628046e+15
2.062143e+15
1.553052e+15
96.61504
9.250376
2.055639
126.4218
1.38295e+15
2.027789e+15
2.544844e+15
2.941668e+15
3.658827e+15
3.963024e+15
4.13164e+15
4.227401e+15
4.272712e+15
4.30043e+15
4.314237e+15
4.318382e+15
4.313833e+15
4.288272e+15
4.241968e+15
4.160055e+15
3.9727e+15
3.741212e+15
2.981039e+15
2.57244e+15
2.061602e+15
1.609118e+15
162.3955
5.139098
4.111278
128.4774
1.305803e+15
1.80564e+15
2.183626e+15
2.749023e+15
3.070293e+15
3.667671e+15
3.881616e+15
3.958162e+15
3.98713e+15
3.997907e+15
3.998792e+15
3.990352e+15
3.964027e+15
3.904333e+15
3.756061e+15
3.086618e+15
2.756984e+15
2.157458e+15
1.839341e+15
1.554799e+15
163.4233
7.194737
3.083459
88.39248
166.5068
1.368485e+15
2.030115e+15
2.483946e+15
2.723591e+15
2.867386e+15
2.97697e+15
3.023154e+15
3.0396e+15
3.038858e+15
3.020371e+15
2.968181e+15
2.859547e+15
2.750341e+15
2.506946e+15
2.057937e+15
1.587065e+15
201.4526
97.64286
6.166917
5.139098
43.16842
128.4774
1.262253e+15
1.664407e+15
1.879595e+15
2.127564e+15
2.447815e+15
2.516887e+15
2.537388e+15
2.53737e+15
2.514797e+15
2.426888e+15
2.067055e+15
1.850682e+15
1.731815e+15
1.520771e+15
170.618
43.16842
9.250376
7.194737
12.33383
87.36466
114.088
164.4511
1.270326e+15
1.643784e+15
1.692343e+15
1.709298e+15
1.714024e+15
1.714841e+15
1.703766e+15
1.497118e+15
197.3414
114.088
96.61504
14.38947
11.30602
7.194737
16.44511
15.41729
43.16842
108.9489
108.9489
111.0045
111.0045
109.9767
107.9211
47.2797
17.47293
17.47293
9.250376
6.166917
16.44511
18.50075
18.50075
17.47293
10.2782
1.02782
6.166917
23.63985
29.80677
30.83459
30.83459
30.83459
24.66767
7.194737
3.083459
-1.02782
25.69549
31.86241
86.33684
133.6165
1.123676e+15
1.452302e+15
1.479177e+15
1.472516e+15
1.439851e+15
1.240765e+15
157.2564
87.36466
30.83459
25.69549
1.02782
15.41729
128.4774
1.154057e+15
1.468791e+15
1.545219e+15
1.7344e+15
2.125223e+15
2.523841e+15
2.629397e+15
2.632514e+15
2.550887e+15
2.185518e+15
1.73586e+15
1.524269e+15
1.443499e+15
1.259351e+15
149.0338
17.47293
3.083459
42.1406
1.233863e+15
1.724004e+15
2.186021e+15
2.586351e+15
2.807755e+15
3.312703e+15
3.499193e+15
3.629217e+15
3.67579e+15
3.681045e+15
3.655148e+15
3.58067e+15
3.402503e+15
2.822213e+15
2.593106e+15
2.201511e+15
1.694744e+15
1.351672e+15
53.44662
4.111278
1.02782
108.9489
1.321976e+15
2.141437e+15
2.72411e+15
3.369945e+15
3.637118e+15
3.766237e+15
3.928964e+15
4.079889e+15
4.156763e+15
4.18631e+15
4.19111e+15
4.178471e+15
4.141011e+15
4.051784e+15
3.83466e+15
3.676971e+15
3.48481e+15
2.760934e+15
2.162092e+15
1.450982e+15
132.5887
3.083459
3.083459
109.9767
1.351255e+15
2.210811e+15
2.827466e+15
3.545955e+15
3.899655e+15
4.114153e+15
4.224683e+15
4.297466e+15
4.367297e+15
4.408772e+15
4.427073e+15
4.430694e+15
4.423518e+15
4.40389e+15
4.363643e+15
4.281286e+15
4.18031e+15
4.045774e+15
3.705493e+15
2.938502e+15
2.273432e+15
1.480208e+15
134.6444
5.139098
2.055639
108.9489
1.35972e+15
2.270427e+15
3.288221e+15
3.703989e+15
3.981154e+15
4.219716e+15
4.370909e+15
4.516317e+15
4.584897e+15
4.622542e+15
4.642647e+15
4.651633e+15
4.65361e+15
4.650448e+15
4.641774e+15
4.624236e+15
4.585531e+15
4.454326e+15
4.343959e+15
4.158641e+15
3.833011e+15
3.453808e+15
2.348518e+15
1.492798e+15
134.6444
3.083459
2.055639
108.9489
1.351218e+15
2.270902e+15
3.322272e+15
3.843862e+15
4.131304e+15
4.305218e+15
4.499876e+15
4.611361e+15
4.693557e+15
4.749499e+15
4.778906e+15
4.792665e+15
4.798152e+15
4.79948e+15
4.798119e+15
4.793282e+15
4.782522e+15
4.758995e+15
4.689296e+15
4.613794e+15
4.439645e+15
4.251824e+15
4.025255e+15
3.539289e+15
2.359854e+15
1.488529e+15
134.6444
3.083459
42.1406
1.322025e+15
2.210449e+15
3.288761e+15
3.843925e+15
4.16883e+15
4.367904e+15
4.54623e+15
4.672472e+15
4.755396e+15
4.807457e+15
4.843081e+15
4.863228e+15
4.87431e+15
4.878753e+15
4.880138e+15
4.879863e+15
4.875476e+15
4.867763e+15
4.852727e+15
4.817762e+15
4.770711e+15
4.67215e+15
4.486304e+15
4.31303e+15
4.055113e+15
3.526357e+15
2.294305e+15
1.476189e+15
58.58572
14.38947
1.234764e+15
2.141105e+15
2.827276e+15
3.703791e+15
4.131192e+15
4.36794e+15
4.564244e+15
4.690572e+15
4.779401e+15
4.837784e+15
4.873025e+15
4.89694e+15
4.912135e+15
4.931648e+15
4.942026e+15
4.945979e+15
4.9463e+15
4.930663e+15
4.918286e+15
4.904158e+15
4.883214e+15
4.853184e+15
4.798252e+15
4.69065e+15
4.499692e+15