/*--------------------------------*- C++ -*----------------------------------*\
  =========                 |
  \\      /  F ield         | OpenFOAM: The Open Source CFD Toolbox
   \\    /   O peration     | Website:  https://openfoam.org
    \\  /    A nd           | Version:  6
     \\/     M anipulation  |
\*---------------------------------------------------------------------------*/
FoamFile
{
    version     2.0;
    format      ascii;
    class       volScalarField;
    location    "50/region0/neutronTransport";
    object      flux5;
}
// * * * * * * * * * * * * * * * * * * * * * * * * * * * * * * * * * * * * * //

dimensions      [0 -2 -1 0 0 0 0];

internalField   nonuniform List<scalar> 
203709
(
7188331
9121770
9120944
7192495
7644457
9820800
1.416386e+07
1.39264e+07
1.392479e+07
1.416435e+07
9821276
7644015
7417286
9857166
1.431847e+07
1.414976e+07
1.46151e+07
1.473263e+07
1.473198e+07
1.461329e+07
1.41465e+07
1.431261e+07
9851167
7411487
7418544
1.389884e+07
1.409808e+07
1.46956e+07
1.500224e+07
1.528015e+07
1.540023e+07
1.539996e+07
1.527618e+07
1.499543e+07
1.468623e+07
1.408621e+07
1.388525e+07
7409377
9857947
1.40986e+07
1.47944e+07
1.52737e+07
1.563835e+07
1.590242e+07
1.603251e+07
1.603124e+07
1.589622e+07
1.562918e+07
1.526196e+07
1.477969e+07
1.408198e+07
9844121
7646475
1.431968e+07
1.469713e+07
1.527371e+07
1.577034e+07
1.615951e+07
1.642889e+07
1.656029e+07
1.655821e+07
1.642302e+07
1.615156e+07
1.57589e+07
1.525976e+07
1.468152e+07
1.430262e+07
7634860
9821190
1.414959e+07
1.500155e+07
1.563437e+07
1.615555e+07
1.655929e+07
1.682663e+07
1.695074e+07
1.694961e+07
1.682414e+07
1.655394e+07
1.614738e+07
1.562386e+07
1.498701e+07
1.413185e+07
9806558
7189731
1.416421e+07
1.461628e+07
1.528048e+07
1.590011e+07
1.642345e+07
1.68225e+07
1.706537e+07
1.718804e+07
1.718932e+07
1.706817e+07
1.682255e+07
1.641987e+07
1.58908e+07
1.52652e+07
1.459689e+07
1.414338e+07
7173991
9116110
1.392206e+07
1.473202e+07
1.540204e+07
1.603262e+07
1.655708e+07
1.694718e+07
1.71866e+07
1.732272e+07
1.731906e+07
1.718994e+07
1.695045e+07
1.65569e+07
1.60253e+07
1.538756e+07
1.471393e+07
1.390143e+07
9100658
9116771
1.392456e+07
1.473248e+07
1.54013e+07
1.603303e+07
1.655908e+07
1.694912e+07
1.7189e+07
1.732927e+07
1.732471e+07
1.719159e+07
1.695171e+07
1.655807e+07
1.602741e+07
1.538947e+07
1.471511e+07
1.390394e+07
9102574
7184621
1.416345e+07
1.461521e+07
1.528075e+07
1.590309e+07
1.642957e+07
1.682994e+07
1.70732e+07
1.719547e+07
1.719387e+07
1.70725e+07
1.68286e+07
1.642558e+07
1.589567e+07
1.526866e+07
1.459844e+07
1.414217e+07
7176507
9818112
1.414854e+07
1.500346e+07
1.564098e+07
1.616435e+07
1.656911e+07
1.683602e+07
1.696062e+07
1.69569e+07
1.683161e+07
1.656113e+07
1.615399e+07
1.56279e+07
1.498781e+07
1.413136e+07
9805895
7645613
1.432098e+07
1.469985e+07
1.527989e+07
1.577867e+07
1.61704e+07
1.64386e+07
1.657107e+07
1.656645e+07
1.643047e+07
1.615633e+07
1.576173e+07
1.526094e+07
1.468e+07
1.429972e+07
7633479
9860564
1.410418e+07
1.480276e+07
1.528384e+07
1.564874e+07
1.591235e+07
1.604887e+07
1.604407e+07
1.590023e+07
1.563068e+07
1.526158e+07
1.477854e+07
1.408129e+07
9844026
7421459
1.390713e+07
1.410496e+07
1.470294e+07
1.500734e+07
1.528367e+07
1.540836e+07
1.54044e+07
1.527242e+07
1.499028e+07
1.468078e+07
1.407948e+07
1.388035e+07
7406377
7418511
9857523
1.431863e+07
1.414527e+07
1.460966e+07
1.47274e+07
1.472634e+07
1.460197e+07
1.413407e+07
1.430154e+07
9841537
7405675
7640436
9812826
1.415159e+07
1.391673e+07
1.391821e+07
1.414684e+07
9806703
7634496
7179849
9104908
9105699
7179302
6028793
7903647
8318240
8584911
8747417
8747842
8586456
8321049
7908308
6035376
6208492
8345242
1.240113e+07
1.276704e+07
1.328692e+07
1.39424e+07
1.446585e+07
1.446684e+07
1.394663e+07
1.329046e+07
1.27687e+07
1.240206e+07
8346882
6209494
6407151
1.213478e+07
1.278396e+07
1.390511e+07
1.508203e+07
1.607847e+07
1.778606e+07
1.909571e+07
1.909684e+07
1.779052e+07
1.608027e+07
1.508296e+07
1.390866e+07
1.278773e+07
1.213988e+07
6408618
6489358
1.235761e+07
1.353507e+07
1.499411e+07
1.654904e+07
1.93612e+07
2.311897e+07
2.925416e+07
3.079312e+07
3.079468e+07
2.92549e+07
2.312297e+07
1.936711e+07
1.655535e+07
1.499919e+07
1.353874e+07
1.235772e+07
6491067
6404076
1.235545e+07
1.369011e+07
1.539641e+07
1.890865e+07
2.348066e+07
3.09393e+07
3.49364e+07
3.793089e+07
4.261703e+07
4.26181e+07
3.79361e+07
3.494155e+07
3.094106e+07
2.348552e+07
1.890908e+07
1.539747e+07
1.368735e+07
1.234997e+07
6402110
6205931
1.213342e+07
1.353502e+07
1.539917e+07
2.054146e+07
2.986259e+07
3.489463e+07
3.90626e+07
4.569915e+07
4.862747e+07
5.036649e+07
5.036588e+07
4.86266e+07
4.569571e+07
3.90571e+07
3.48842e+07
2.984377e+07
2.052794e+07
1.538499e+07
1.352175e+07
1.212154e+07
6201058
8337336
1.277865e+07
1.499318e+07
1.89113e+07
2.986362e+07
3.705696e+07
4.493508e+07
4.92058e+07
5.254077e+07
5.45802e+07
5.561931e+07
5.561605e+07
5.457095e+07
5.252499e+07
4.918312e+07
4.490411e+07
3.702096e+07
2.982552e+07
1.888322e+07
1.497143e+07
1.276003e+07
8326629
6025989
1.23877e+07
1.389723e+07
1.654802e+07
2.348184e+07
3.490232e+07
4.493909e+07
5.076167e+07
5.444394e+07
5.6967e+07
5.855603e+07
5.933608e+07
5.933008e+07
5.853837e+07
5.693964e+07
5.440703e+07
5.071538e+07
4.488726e+07
3.485419e+07
2.344832e+07
1.652358e+07
1.387384e+07
1.236846e+07
6016517
7893686
1.275561e+07
1.507225e+07
1.936186e+07
3.094963e+07
3.907527e+07
4.921436e+07
5.444744e+07
5.775122e+07
5.995102e+07
6.133071e+07
6.199832e+07
6.199135e+07
6.131088e+07
5.992074e+07
5.771012e+07
5.439705e+07
4.91583e+07
3.902281e+07
3.090361e+07
1.932774e+07
1.504781e+07
1.273622e+07
7882583
8306062
1.327478e+07
1.60658e+07
2.311053e+07
3.494692e+07
4.571166e+07
5.25485e+07
5.696674e+07
5.9946e+07
6.196942e+07
6.324795e+07
6.387174e+07
6.386752e+07
6.32357e+07
6.194785e+07
5.991283e+07
5.692091e+07
5.249046e+07
4.564723e+07
3.488456e+07
2.307533e+07
1.60433e+07
1.325334e+07
8294014
8571160
1.392833e+07
1.777566e+07
2.92493e+07
3.793938e+07
4.864078e+07
5.458931e+07
5.855631e+07
6.132095e+07
6.323836e+07
6.445613e+07
6.505618e+07
6.505759e+07
6.445917e+07
6.323514e+07
6.1304e+07
5.851892e+07
5.453265e+07
4.85729e+07
3.787544e+07
2.920249e+07
1.774486e+07
1.390488e+07
8558505
8732014
1.44456e+07
1.907669e+07
3.07824e+07
4.261875e+07
5.03768e+07
5.563131e+07
5.934434e+07
6.199785e+07
6.386559e+07
6.505307e+07
6.564205e+07
6.564263e+07
6.506022e+07
6.386967e+07
6.198848e+07
5.931441e+07
5.558062e+07
5.031285e+07
4.255388e+07
3.073479e+07
1.904769e+07
1.442391e+07
8718642
8731328
1.444224e+07
1.907111e+07
3.077568e+07
4.261407e+07
5.037416e+07
5.563095e+07
5.934727e+07
6.200412e+07
6.387371e+07
6.506242e+07
6.565295e+07
6.565183e+07
6.506666e+07
6.387578e+07
6.199509e+07
5.932128e+07
5.558685e+07
5.031789e+07
4.255652e+07
3.073147e+07
1.904318e+07
1.442035e+07
8716740
8569810
1.392475e+07
1.777205e+07
2.924361e+07
3.792581e+07
4.863305e+07
5.458901e+07
5.856551e+07
6.134026e+07
6.326222e+07
6.448078e+07
6.507976e+07
6.507741e+07
6.447745e+07
6.32546e+07
6.132377e+07
5.853679e+07
5.454702e+07
4.858329e+07
3.788062e+07
2.920283e+07
1.774497e+07
1.390253e+07
8554231
8307034
1.327515e+07
1.606683e+07
2.310781e+07
3.493612e+07
4.570614e+07
5.255119e+07
5.698066e+07
5.997028e+07
6.200071e+07
6.328155e+07
6.390599e+07
6.389914e+07
6.326585e+07
6.197569e+07
5.993667e+07
5.69392e+07
5.250278e+07
4.565493e+07
3.489334e+07
2.306955e+07
1.60367e+07
1.325162e+07
8290501
7896950
1.27597e+07
1.507482e+07
1.935804e+07
3.095052e+07
3.907888e+07
4.922424e+07
5.446688e+07
5.77807e+07
5.998916e+07
6.137195e+07
6.203921e+07
6.202777e+07
6.13428e+07
5.994476e+07
5.772582e+07
5.440665e+07
4.916288e+07
3.902119e+07
3.08999e+07
1.9325e+07
1.50432e+07
1.273337e+07
7879626
6029180
1.239584e+07
1.390169e+07
1.654977e+07
2.349005e+07
3.49151e+07
4.496073e+07
5.079121e+07
5.448007e+07
5.700649e+07
5.859522e+07
5.936837e+07
5.935497e+07
5.855825e+07
5.695034e+07
5.441041e+07
5.07158e+07
4.488682e+07
3.485142e+07
2.344102e+07
1.651547e+07
1.38695e+07
1.236596e+07
6015370
8344381
1.278357e+07
1.499746e+07
1.891755e+07
2.987919e+07
3.707769e+07
4.496047e+07
4.923351e+07
5.256628e+07
5.460151e+07
5.562784e+07
5.561629e+07
5.456783e+07
5.25147e+07
4.916861e+07
4.489029e+07
3.701099e+07
2.981849e+07
1.887423e+07
1.496399e+07
1.275307e+07
8321431
6210331
1.213604e+07
1.353752e+07
1.540016e+07
2.054502e+07
2.986831e+07
3.490417e+07
3.90743e+07
4.57044e+07
4.862787e+07
5.035378e+07
5.034698e+07
4.860431e+07
4.56684e+07
3.903023e+07
3.485982e+07
2.982464e+07
2.050623e+07
1.536778e+07
1.350904e+07
1.210994e+07
6192859
6408153
1.23603e+07
1.369072e+07
1.539218e+07
1.890044e+07
2.347139e+07
3.093569e+07
3.492559e+07
3.791208e+07
4.258378e+07
4.258171e+07
3.790046e+07
3.490515e+07
3.090788e+07
2.344738e+07
1.887753e+07
1.536904e+07
1.366683e+07
1.233671e+07
6393065
6489677
1.235501e+07
1.35272e+07
1.498304e+07
1.65337e+07
1.933571e+07
2.308668e+07
2.922374e+07
3.075356e+07
3.075271e+07
2.921588e+07
2.307794e+07
1.932857e+07
1.652044e+07
1.496773e+07
1.351105e+07
1.233846e+07
6479838
6400443
1.212412e+07
1.276708e+07
1.38804e+07
1.505076e+07
1.604749e+07
1.775412e+07
1.905541e+07
1.905536e+07
1.775324e+07
1.604375e+07
1.505024e+07
1.387908e+07
1.276158e+07
1.211546e+07
6395225
6202637
8331102
1.237603e+07
1.274153e+07
1.326019e+07
1.391318e+07
1.443471e+07
1.443593e+07
1.391559e+07
1.326192e+07
1.274267e+07
1.238047e+07
8332020
6201447
6018737
7884317
8296120
8561994
8725267
8725966
8566822
8302570
7890408
6020025
5100872
6666880
6927782
7019286
7018107
6924728
6660323
5094228
5126420
7164784
8043247
1.171964e+07
1.216071e+07
1.242838e+07
1.254723e+07
1.25458e+07
1.242412e+07
1.215524e+07
1.172117e+07
8048348
7172823
5138009
5860589
1.128151e+07
1.249157e+07
1.436322e+07
1.626836e+07
1.707177e+07
1.755715e+07
1.777841e+07
1.777695e+07
1.75534e+07
1.706754e+07
1.626697e+07
1.436796e+07
1.249864e+07
1.129101e+07
5870974
5368972
7739003
1.219112e+07
1.542799e+07
1.929279e+07
2.575007e+07
2.807571e+07
2.928189e+07
3.006011e+07
3.045704e+07
3.045413e+07
3.005254e+07
2.927227e+07
2.806674e+07
2.574475e+07
1.929594e+07
1.54365e+07
1.21923e+07
7739754
5366070
5438583
1.094085e+07
1.30211e+07
1.782255e+07
2.627666e+07
3.10208e+07
3.499431e+07
4.116336e+07
4.396858e+07
4.560703e+07
4.640751e+07
4.640491e+07
4.560112e+07
4.396257e+07
4.116078e+07
3.499896e+07
3.102703e+07
2.627911e+07
1.782051e+07
1.302065e+07
1.093211e+07
5433860
5365545
1.094228e+07
1.35219e+07
1.867194e+07
2.855292e+07
3.459407e+07
4.251709e+07
4.755457e+07
5.194197e+07
5.521858e+07
5.752237e+07
5.864742e+07
5.864595e+07
5.752028e+07
5.521413e+07
5.193634e+07
4.755031e+07
4.251103e+07
3.45869e+07
2.854556e+07
1.866911e+07
1.351346e+07
1.092869e+07
5359564
7738607
1.301861e+07
1.867045e+07
2.904305e+07
3.588191e+07
4.52141e+07
5.196985e+07
5.746921e+07
6.227303e+07
6.622384e+07
6.933795e+07
7.056905e+07
7.056864e+07
6.933623e+07
6.622169e+07
6.227151e+07
5.746776e+07
5.196399e+07
4.520524e+07
3.586805e+07
2.90236e+07
1.865917e+07
1.300915e+07
7730798
5866263
1.218286e+07
1.781067e+07
2.854821e+07
3.587499e+07
4.601873e+07
5.405337e+07
6.116133e+07
6.734098e+07
7.285632e+07
7.685885e+07
7.973863e+07
8.138281e+07
8.138344e+07
7.973989e+07
7.685932e+07
7.285368e+07
6.73344e+07
6.114816e+07
5.403794e+07
4.599789e+07
3.585381e+07
2.852713e+07
1.779843e+07
1.217108e+07
5856983
5125448
1.127445e+07
1.541477e+07
2.625714e+07
3.458713e+07
4.521315e+07
5.405602e+07
6.254748e+07
7.051658e+07
7.684038e+07
8.206549e+07
8.639189e+07
8.943271e+07
9.107773e+07
9.107647e+07
8.942927e+07
8.638465e+07
8.205143e+07
7.68162e+07
7.048132e+07
6.250817e+07
5.401272e+07
4.517099e+07
3.455107e+07
2.622353e+07
1.540083e+07
1.125987e+07
5114428
7159664
1.247776e+07
1.926773e+07
3.100065e+07
4.250072e+07
5.196834e+07
6.116466e+07
7.051949e+07
7.834304e+07
8.512114e+07
9.056554e+07
9.478175e+07
9.76081e+07
9.90501e+07
9.904511e+07
9.759432e+07
9.475691e+07
9.052826e+07
8.506945e+07
7.827741e+07
7.044386e+07
6.108705e+07
5.189726e+07
4.244143e+07
3.094975e+07
1.924531e+07
1.246194e+07
7145622
8031221
1.433852e+07
2.570381e+07
3.497172e+07
4.753505e+07
5.746782e+07
6.734659e+07
7.685011e+07
8.51277e+07
9.211312e+07
9.749333e+07
1.014439e+08
1.040361e+08
1.053241e+08
1.05314e+08
1.040074e+08
1.01398e+08
9.743079e+07
9.203312e+07
8.503223e+07
7.674422e+07
6.724206e+07
5.737422e+07
4.746146e+07
3.491507e+07
2.568083e+07
1.432328e+07
8018668
5090031
1.170043e+07
1.623394e+07
2.802467e+07
4.112612e+07
5.191714e+07
6.226991e+07
7.286885e+07
8.208342e+07
9.057971e+07
9.750054e+07
1.027214e+08
1.064688e+08
1.08898e+08
1.100917e+08
1.100793e+08
1.088626e+08
1.064129e+08
1.026459e+08
9.740751e+07
9.047271e+07
8.196873e+07
7.275548e+07
6.216882e+07
5.184054e+07
4.107037e+07
2.800225e+07
1.622015e+07
1.168096e+07
5083708
6650343
1.213589e+07
1.703948e+07
2.923469e+07
4.392452e+07
5.518783e+07
6.621264e+07
7.687074e+07
8.641252e+07
9.47979e+07
1.014502e+08
1.064654e+08
1.100593e+08
1.123893e+08
1.135366e+08
1.135289e+08
1.123661e+08
1.100186e+08
1.064021e+08
1.01363e+08
9.468879e+07
8.628973e+07
7.674808e+07
6.610942e+07
5.510724e+07
4.386651e+07
2.920495e+07
1.701994e+07
1.211934e+07
6641337
6915165
1.240565e+07
1.752657e+07
3.001853e+07
4.556157e+07
5.748773e+07
6.932262e+07
7.974642e+07
8.945365e+07
9.762785e+07
1.040438e+08
1.088862e+08
1.123747e+08
1.146425e+08
1.157652e+08
1.157674e+08
1.146455e+08
1.123671e+08
1.088537e+08
1.039722e+08
9.752109e+07
8.932659e+07
7.961892e+07
6.921276e+07
5.740007e+07
4.549719e+07
2.997884e+07
1.750229e+07
1.238589e+07
6902042
7009911
1.252984e+07
1.775295e+07
3.042293e+07
4.63644e+07
5.86074e+07
7.054588e+07
8.138237e+07
9.10952e+07
9.907471e+07
1.053453e+08
1.10097e+08
1.135287e+08
1.157597e+08
1.168657e+08
1.168708e+08
1.15772e+08
1.135332e+08
1.100761e+08
1.052867e+08
9.897883e+07
9.097585e+07
8.125918e+07
7.043704e+07
5.851863e+07
4.62938e+07
3.037391e+07
1.772155e+07
1.250405e+07
6994119
7010269
1.253145e+07
1.775559e+07
3.042813e+07
4.636785e+07
5.860628e+07
7.054053e+07
8.13751e+07
9.108973e+07
9.907363e+07
1.053506e+08
1.101084e+08
1.135436e+08
1.157756e+08
1.168806e+08
1.168832e+08
1.157823e+08
1.135434e+08
1.100871e+08
1.052979e+08
9.898879e+07
9.098324e+07
8.126265e+07
7.043634e+07
5.851688e+07
4.6292e+07
3.037132e+07
1.771886e+07
1.250164e+07
6992880
6918104
1.241222e+07
1.75353e+07
3.003395e+07
4.557222e+07
5.748981e+07
6.931517e+07
7.973071e+07
8.944131e+07
9.762648e+07
1.040588e+08
1.089195e+08
1.124155e+08
1.146835e+08
1.158027e+08
1.158004e+08
1.146766e+08
1.123987e+08
1.088853e+08
1.040009e+08
9.754389e+07
8.934167e+07
7.962528e+07
6.92126e+07
5.73983e+07
4.549094e+07
2.996845e+07
1.749418e+07
1.23794e+07
6898938
6658371
1.214684e+07
1.705287e+07
2.926032e+07
4.394297e+07
5.519724e+07
6.621093e+07
7.685983e+07
8.640493e+07
9.480223e+07
1.014714e+08
1.065041e+08
1.101116e+08
1.124461e+08
1.135929e+08
1.135824e+08
1.124167e+08
1.100646e+08
1.064407e+08
1.013919e+08
9.470738e+07
8.629933e+07
7.675112e+07
6.610417e+07
5.51003e+07
4.385567e+07
2.918498e+07
1.700783e+07
1.211187e+07
6637855
5102112
1.171181e+07
1.625521e+07
2.806238e+07
4.115142e+07
5.193678e+07
6.227516e+07
7.28721e+07
8.209127e+07
9.059803e+07
9.753495e+07
1.02773e+08
1.065341e+08
1.089684e+08
1.101592e+08
1.101397e+08
1.089138e+08
1.064513e+08
1.026707e+08
9.742133e+07
9.047869e+07
8.196951e+07
7.275395e+07
6.216623e+07
5.183449e+07
4.106198e+07
2.797915e+07
1.620807e+07
1.167767e+07
5082896
8041411
1.435932e+07
2.574725e+07
3.499616e+07
4.75646e+07
5.748518e+07
6.736705e+07
7.687752e+07
8.516622e+07
9.216418e+07
9.755488e+07
1.0151e+08
1.040987e+08
1.053741e+08
1.053501e+08
1.040304e+08
1.014059e+08
9.742652e+07
9.202386e+07
8.502381e+07
7.674013e+07
6.724153e+07
5.737246e+07
4.745899e+07
3.491769e+07
2.566272e+07
1.43133e+07
8015370
7164191
1.249304e+07
1.929527e+07
3.103117e+07
4.253725e+07
5.199449e+07
6.119203e+07
7.055297e+07
7.838038e+07
8.516241e+07
9.060826e+07
9.48192e+07
9.763365e+07
9.905544e+07
9.9034e+07
9.757173e+07
9.472387e+07
9.04894e+07
8.503102e+07
7.824464e+07
7.041909e+07
6.10704e+07
5.188393e+07
4.243465e+07
3.095976e+07
1.923529e+07
1.245416e+07
7144410
5123512
1.128931e+07
1.543535e+07
2.628414e+07
3.461493e+07
4.523396e+07
5.407333e+07
6.256407e+07
7.05299e+07
7.685235e+07
8.2075e+07
8.639095e+07
8.941664e+07
9.104128e+07
9.102679e+07
8.937313e+07
8.63229e+07
8.198961e+07
7.675838e+07
7.043106e+07
6.246401e+07
5.397876e+07
4.514523e+07
3.453197e+07
2.622646e+07
1.53885e+07
1.125174e+07
5115343
5864488
1.219626e+07
1.782676e+07
2.856177e+07
3.589119e+07
4.602787e+07
5.405679e+07
6.115438e+07
6.732627e+07
7.28351e+07
7.682457e+07
7.96889e+07
8.131575e+07
8.130862e+07
7.966543e+07
7.678534e+07
7.278405e+07
6.726931e+07
6.109186e+07
5.399058e+07
4.596432e+07
3.583491e+07
2.851217e+07
1.778785e+07
1.216272e+07
5850672
7741459
1.302771e+07
1.867972e+07
2.905122e+07
3.588028e+07
4.52107e+07
5.195401e+07
5.743971e+07
6.222695e+07
6.616493e+07
6.927033e+07
7.049255e+07
7.049055e+07
6.926275e+07
6.615151e+07
6.220821e+07
5.741187e+07
5.191977e+07
4.517273e+07
3.584541e+07
2.901542e+07
1.864838e+07
1.300139e+07
7724797
5370752
1.094903e+07
1.352652e+07
1.867439e+07
2.855649e+07
3.458978e+07
4.249068e+07
4.751453e+07
5.188757e+07
5.515375e+07
5.745193e+07
5.857258e+07
5.857418e+07
5.745787e+07
5.515905e+07
5.189013e+07
4.751333e+07
4.248695e+07
3.457891e+07
2.853978e+07
1.865811e+07
1.350931e+07
1.093044e+07
5361607
5439087
1.094699e+07
1.302323e+07
1.781076e+07
2.625279e+07
3.098519e+07
3.495547e+07
4.110658e+07
4.390206e+07
4.553933e+07
4.634099e+07
4.634394e+07
4.555403e+07
4.39239e+07
4.112819e+07
3.496983e+07
3.100231e+07
2.626447e+07
1.781232e+07
1.301713e+07
1.093809e+07
5433235
5366776
7738268
1.218052e+07
1.54127e+07
1.926004e+07
2.570325e+07
2.801606e+07
2.921774e+07
3.000148e+07
3.042027e+07
3.041955e+07
3.002143e+07
2.924799e+07
2.804862e+07
2.57323e+07
1.927984e+07
1.542273e+07
1.218723e+07
7736495
5365799
5860194
1.127067e+07
1.247247e+07
1.433459e+07
1.622847e+07
1.702813e+07
1.751586e+07
1.774513e+07
1.774247e+07
1.752639e+07
1.704327e+07
1.624552e+07
1.434877e+07
1.248179e+07
1.128115e+07
5861267
5118956
7155562
8028130
1.169625e+07
1.21306e+07
1.239969e+07
1.253194e+07
1.253208e+07
1.240509e+07
1.213793e+07
1.170677e+07
8034623
7159156
5124026
5092798
6649570
6911524
7009354
7009720
6913688
6651473
5088534
4611664
5948277
6151982
6151160
5943567
4610451
4389165
6386445
7397699
8779137
1.258567e+07
1.322727e+07
1.345645e+07
1.34518e+07
1.321606e+07
1.257357e+07
8786152
7410913
6399482
4402648
4428862
6800938
1.148937e+07
1.402676e+07
1.653459e+07
2.197683e+07
2.416549e+07
2.496617e+07
2.534608e+07
2.533791e+07
2.494705e+07
2.415323e+07
2.198653e+07
1.654801e+07
1.403938e+07
1.150723e+07
6816307
4444073
5140757
1.071377e+07
1.473866e+07
2.229438e+07
2.575126e+07
2.917173e+07
3.238694e+07
3.765638e+07
3.963477e+07
4.041069e+07
4.040281e+07
3.961563e+07
3.76382e+07
3.237954e+07
2.91684e+07
2.575525e+07
2.229254e+07
1.475623e+07
1.072487e+07
5153183
5677871
1.244141e+07
1.75961e+07
2.61181e+07
3.176596e+07
3.929324e+07
4.418768e+07
4.790587e+07
5.101026e+07
5.289719e+07
5.375999e+07
5.375242e+07
5.287795e+07
5.098866e+07
4.789219e+07
4.418494e+07
3.929771e+07
3.177066e+07
2.611034e+07
1.760111e+07
1.243722e+07
5679120
5977505
1.405185e+07
2.318344e+07
2.91005e+07
3.51105e+07
4.50622e+07
5.219228e+07
5.804019e+07
6.203595e+07
6.501218e+07
6.692448e+07
6.784524e+07
6.783824e+07
6.690641e+07
6.499044e+07
6.201763e+07
5.802727e+07
5.218396e+07
4.505944e+07
3.51015e+07
2.907446e+07
2.315145e+07
1.402788e+07
5968996
5680830
1.40541e+07
2.447988e+07
3.148747e+07
4.135899e+07
4.96615e+07
5.820567e+07
6.517682e+07
7.096594e+07
7.579285e+07
7.932029e+07
8.156648e+07
8.265422e+07
8.264905e+07
8.155355e+07
7.930541e+07
7.578083e+07
7.095715e+07
6.516596e+07
5.818996e+07
4.963172e+07
4.131697e+07
3.143684e+07
2.441635e+07
1.402167e+07
5670138
5146124
1.244259e+07
2.319205e+07
3.148551e+07
4.256192e+07
5.239439e+07
6.178246e+07
6.995416e+07
7.750485e+07
8.388983e+07
8.913307e+07
9.301977e+07
9.556141e+07
9.680081e+07
9.679849e+07
9.555613e+07
9.301362e+07
8.912766e+07
8.388373e+07
7.749241e+07
6.993255e+07
6.174586e+07
5.234418e+07
4.249878e+07
3.142148e+07
2.313221e+07
1.241571e+07
5136042
4432544
1.071541e+07
1.760514e+07
2.90982e+07
4.135523e+07
5.239146e+07
6.299444e+07
7.229364e+07
8.121074e+07
8.928477e+07
9.609338e+07
1.016514e+08
1.058716e+08
1.086932e+08
1.100315e+08
1.10032e+08
1.08695e+08
1.058744e+08
1.016541e+08
9.609248e+07
8.927438e+07
8.118937e+07
7.225651e+07
6.294071e+07
5.232746e+07
4.128621e+07
2.903796e+07
1.756813e+07
1.069351e+07
4421902
6804116
1.474551e+07
2.610556e+07
3.511513e+07
4.965112e+07
6.177229e+07
7.228771e+07
8.239811e+07
9.184816e+07
1.00273e+08
1.074455e+08
1.132994e+08
1.177285e+08
1.207256e+08
1.222568e+08
1.222586e+08
1.207307e+08
1.177348e+08
1.133033e+08
1.074416e+08
1.002571e+08
9.182114e+07
8.235821e+07
7.223575e+07
6.17099e+07
4.958394e+07
3.505135e+07
2.605635e+07
1.471387e+07
6790777
4395241
1.148581e+07
2.227844e+07
3.175552e+07
4.505439e+07
5.818347e+07
6.993369e+07
8.119956e+07
9.184616e+07
1.016453e+08
1.103745e+08
1.177862e+08
1.238441e+08
1.285567e+08
1.317959e+08
1.33465e+08
1.334644e+08
1.317947e+08
1.285526e+08
1.238319e+08
1.177607e+08
1.103331e+08
1.015916e+08
9.178307e+07
8.113221e+07
6.986335e+07
5.810749e+07
4.497998e+07
3.168247e+07
2.223443e+07
1.14598e+07
4389292
6381192
1.40164e+07
2.572662e+07
3.92761e+07
5.215972e+07
6.513543e+07
7.746799e+07
8.92684e+07
1.002721e+08
1.103783e+08
1.193005e+08
1.270273e+08
1.333767e+08
1.382702e+08
1.415883e+08
1.4327e+08
1.432646e+08
1.41573e+08
1.382409e+08
1.333309e+08
1.269619e+08
1.192146e+08
1.102763e+08
1.001622e+08
8.916213e+07
7.73722e+07
6.504162e+07
5.207211e+07
3.918725e+07
2.56639e+07
1.398258e+07
6368266
7394516
1.652244e+07
2.915003e+07
4.416079e+07
5.798459e+07
7.09072e+07
8.384024e+07
9.607485e+07
1.074484e+08
1.177975e+08
1.270355e+08
1.350461e+08
1.415588e+08
1.464869e+08
1.497837e+08
1.514322e+08
1.514188e+08
1.497453e+08
1.464244e+08
1.414733e+08
1.349352e+08
1.268997e+08
1.176425e+08
1.072886e+08
9.592888e+07
8.372266e+07
7.080304e+07
5.789039e+07
4.406251e+07
2.907056e+07
1.647596e+07
7371910
8773865
2.197404e+07
3.23746e+07
4.786823e+07
6.196645e+07
7.571567e+07
8.906964e+07
1.016255e+08
1.13305e+08
1.238624e+08
1.333937e+08
1.415689e+08
1.481335e+08
1.530373e+08
1.562894e+08
1.579046e+08
1.578871e+08
1.562386e+08
1.529554e+08
1.480229e+08
1.414325e+08
1.33235e+08
1.23689e+08
1.131308e+08
1.01472e+08
8.895125e+07
7.561643e+07
6.187487e+07
4.777073e+07
3.228391e+07
2.189355e+07
8744043
4609825
1.256916e+07
2.415964e+07
3.763771e+07
5.09646e+07
6.493566e+07
7.923054e+07
9.294328e+07
1.058325e+08
1.177291e+08
1.285778e+08
1.382914e+08
1.464998e+08
1.530372e+08
1.578942e+08
1.611106e+08
1.627094e+08
1.626983e+08
1.610763e+08
1.578332e+08
1.529417e+08
1.463695e+08
1.381296e+08
1.283953e+08
1.175467e+08
1.056755e+08
9.282034e+07
7.912739e+07
6.483778e+07
5.086176e+07
3.753625e+07
2.407655e+07
1.253141e+07
4594373
5937820
1.321332e+07
2.495515e+07
3.961278e+07
5.285102e+07
6.685033e+07
8.147414e+07
9.547677e+07
1.086416e+08
1.207165e+08
1.318157e+08
1.416154e+08
1.498006e+08
1.562791e+08
1.610927e+08
1.642821e+08
1.658742e+08
1.658766e+08
1.642839e+08
1.610785e+08
1.562279e+08
1.496916e+08
1.414562e+08
1.316276e+08
1.205279e+08
1.084779e+08
9.534317e+07
8.135789e+07
6.673849e+07
5.273997e+07
3.950859e+07
2.48766e+07
1.31747e+07
5925212
6147257
1.344798e+07
2.533516e+07
4.039392e+07
5.372387e+07
6.778317e+07
8.256982e+07
9.671486e+07
1.099696e+08
1.22235e+08
1.334793e+08
1.433037e+08
1.514682e+08
1.57919e+08
1.627019e+08
1.658668e+08
1.674483e+08
1.67456e+08
1.658824e+08
1.627042e+08
1.578832e+08
1.513767e+08
1.431587e+08
1.333011e+08
1.220523e+08
1.098052e+08
9.657258e+07
8.243917e+07
6.765619e+07
5.360252e+07
4.028768e+07
2.526434e+07
1.341125e+07
6132692
6147081
1.345028e+07
2.534291e+07
4.03997e+07
5.373179e+07
6.779344e+07
8.258007e+07
9.67204e+07
1.099672e+08
1.222268e+08
1.334718e+08
1.433024e+08
1.514761e+08
1.57936e+08
1.627235e+08
1.658886e+08
1.674674e+08
1.674715e+08
1.658954e+08
1.627168e+08
1.578966e+08
1.513903e+08
1.431707e+08
1.333094e+08
1.220559e+08
1.098049e+08
9.657077e+07
8.243682e+07
6.765379e+07
5.360172e+07
4.028841e+07
2.526725e+07
1.341266e+07
6133301
5944096
1.321999e+07
2.49633e+07
3.962445e+07
5.287211e+07
6.687955e+07
8.150371e+07
9.549503e+07
1.086393e+08
1.206988e+08
1.317997e+08
1.416145e+08
1.49822e+08
1.56326e+08
1.611494e+08
1.643373e+08
1.659233e+08
1.659195e+08
1.643238e+08
1.611181e+08
1.562667e+08
1.497263e+08
1.414827e+08
1.31643e+08
1.205321e+08
1.084742e+08
9.53362e+07
8.134853e+07
6.672935e+07
5.273735e+07
3.95114e+07
2.488572e+07
1.317973e+07
5928040
4621833
1.257221e+07
2.416119e+07
3.765125e+07
5.099398e+07
6.498057e+07
7.927713e+07
9.297686e+07
1.058393e+08
1.177175e+08
1.285688e+08
1.382991e+08
1.465294e+08
1.530898e+08
1.579656e+08
1.611879e+08
1.627849e+08
1.627689e+08
1.611413e+08
1.578906e+08
1.529884e+08
1.464024e+08
1.381479e+08
1.284005e+08
1.175417e+08
1.056636e+08
9.28057e+07
7.911044e+07
6.482154e+07
5.085859e+07
3.754195e+07
2.408784e+07
1.253236e+07
4606855
8781372
2.196849e+07
3.239079e+07
4.790355e+07
6.202372e+07
7.577586e+07
8.912044e+07
1.016485e+08
1.133136e+08
1.238752e+08
1.334217e+08
1.416194e+08
1.482069e+08
1.531278e+08
1.563857e+08
1.579954e+08
1.579659e+08
1.563018e+08
1.530002e+08
1.480492e+08
1.414435e+08
1.332354e+08
1.236829e+08
1.13121e+08
1.014601e+08
8.893766e+07
7.560188e+07
6.185967e+07
4.777217e+07
3.22946e+07
2.190743e+07
8749963
7398644
1.653392e+07
2.917122e+07
4.419474e+07
5.804659e+07
7.097406e+07
8.390569e+07
9.611842e+07
1.074838e+08
1.178383e+08
1.270902e+08
1.351174e+08
1.416428e+08
1.465745e+08
1.498639e+08
1.514945e+08
1.514585e+08
1.497608e+08
1.464175e+08
1.414496e+08
1.349053e+08
1.268727e+08
1.176236e+08
1.072775e+08
9.592135e+07
8.371779e+07
7.080171e+07
5.788451e+07
4.407187e+07
2.908147e+07
1.64772e+07
7370183
6390636
1.403183e+07
2.575572e+07
3.930591e+07
5.22128e+07
6.520191e+07
7.753865e+07
8.932532e+07
1.003206e+08
1.104256e+08
1.193493e+08
1.270786e+08
1.334261e+08
1.38309e+08
1.416072e+08
1.432617e+08
1.432298e+08
1.415155e+08
1.381682e+08
1.33251e+08
1.268838e+08
1.191462e+08
1.102215e+08
1.001231e+08
8.913689e+07
7.736093e+07
6.504347e+07
5.207047e+07
3.919918e+07
2.566857e+07
1.397961e+07
6362651
4402747
1.149851e+07
2.231419e+07
3.17767e+07
4.508873e+07
5.823633e+07
6.999122e+07
8.124732e+07
9.188185e+07
1.016709e+08
1.103901e+08
1.17793e+08
1.238394e+08
1.285333e+08
1.317473e+08
1.33389e+08
1.333673e+08
1.316843e+08
1.284354e+08
1.237162e+08
1.176539e+08
1.102414e+08
1.01517e+08
9.172881e+07
8.109731e+07
6.984698e+07
5.81089e+07
4.497966e+07
3.169863e+07
2.222616e+07
1.145698e+07
4382712
6809446
1.475393e+07
2.61355e+07
3.512904e+07
4.969153e+07
6.181549e+07
7.232442e+07
8.24217e+07
9.185504e+07
1.002596e+08
1.074127e+08
1.132461e+08
1.176514e+08
1.206242e+08
1.221338e+08
1.221233e+08
1.205924e+08
1.175999e+08
1.131782e+08
1.073318e+08
1.00168e+08
9.175485e+07
8.23178e+07
7.221913e+07
6.171275e+07
4.959804e+07
3.506071e+07
2.606673e+07
1.471003e+07
6785521
4431579
1.072509e+07
1.761795e+07
2.913368e+07
4.139395e+07
5.24261e+07
6.302157e+07
7.230686e+07
8.120404e+07
8.925114e+07
9.603308e+07
1.015643e+08
1.057608e+08
1.085644e+08
1.098911e+08
1.098895e+08
1.085591e+08
1.057499e+08
1.015458e+08
9.600473e+07
8.921258e+07
8.115493e+07
7.224961e+07
6.295661e+07
5.235566e+07
4.132187e+07
2.906992e+07
1.757425e+07
1.069503e+07
4423907
5144449
1.245686e+07
2.321814e+07
3.150752e+07
4.258223e+07
5.241122e+07
6.17879e+07
6.993952e+07
7.7459e+07
8.381645e+07
8.903433e+07
9.290139e+07
9.543212e+07
9.666843e+07
9.667261e+07
9.544538e+07
9.291985e+07
8.90529e+07
8.383136e+07
7.74669e+07
6.993421e+07
6.176908e+07
5.238282e+07
4.254529e+07
3.146935e+07
2.316855e+07
1.242799e+07
5136458
5680640
1.406089e+07
2.450471e+07
3.149414e+07
4.137101e+07
4.965918e+07
5.818463e+07
6.512787e+07
7.089377e+07
7.569844e+07
7.921085e+07
8.145369e+07
8.254673e+07
8.255309e+07
8.147698e+07
7.924753e+07
7.574142e+07
7.093668e+07
6.516482e+07
5.820549e+07
4.966324e+07
4.136605e+07
3.148037e+07
2.448028e+07
1.404288e+07
5672477
5976045
1.40555e+07
2.320911e+07
2.911352e+07
3.511474e+07
4.50525e+07
5.215645e+07
5.798018e+07
6.196058e+07
6.492837e+07
6.684471e+07
6.778032e+07
6.778499e+07
6.686922e+07
6.49683e+07
6.200919e+07
5.803202e+07
5.219811e+07
4.507569e+07
3.511746e+07
2.911776e+07
2.320556e+07
1.405042e+07
5972015
5675381
1.244203e+07
1.760651e+07
2.61145e+07
3.174492e+07
3.926764e+07
4.415355e+07
4.786689e+07
5.096619e+07
5.285622e+07
5.372638e+07
5.372804e+07
5.287091e+07
5.099112e+07
4.789837e+07
4.419197e+07
3.930556e+07
3.177756e+07
2.612901e+07
1.760947e+07
1.244859e+07
5675387
5138802
1.071148e+07
1.474094e+07
2.228224e+07
2.572544e+07
2.914196e+07
3.237124e+07
3.763801e+07
3.961804e+07
4.039806e+07
4.039975e+07
3.962951e+07
3.765752e+07
3.239209e+07
2.917558e+07
2.576334e+07
2.230768e+07
1.474442e+07
1.071632e+07
5138534
4423571
6799287
1.147984e+07
1.400871e+07
1.651443e+07
2.19633e+07
2.41568e+07
2.495936e+07
2.534258e+07
2.53407e+07
2.496724e+07
2.417537e+07
2.199174e+07
1.653843e+07
1.402828e+07
1.149167e+07
6800590
4426590
4397199
6375744
7387313
8770995
1.256533e+07
1.321304e+07
1.344876e+07
1.344852e+07
1.321795e+07
1.257643e+07
8778693
7397819
6384536
4389571
4615085
5936973
6144815
6144351
5937831
4610187
3716446
5301571
6435678
7103628
7316681
7324939
7126207
6481584
5344403
3733461
3872097
6480999
8039777
1.182874e+07
1.420096e+07
1.913662e+07
2.046372e+07
2.092323e+07
2.091182e+07
2.044882e+07
1.913051e+07
1.421583e+07
1.186111e+07
8054781
6503932
3882906
5858085
1.239542e+07
1.881844e+07
2.177683e+07
2.470787e+07
2.779073e+07
3.059041e+07
3.527864e+07
3.6697e+07
3.66846e+07
3.525562e+07
3.057377e+07
2.777288e+07
2.471598e+07
2.181587e+07
1.886112e+07
1.242048e+07
5867292
4382052
8682218
1.898556e+07
2.478648e+07
2.960886e+07
3.686272e+07
4.172323e+07
4.605069e+07
4.913478e+07