/*--------------------------------*- C++ -*----------------------------------*\
  =========                 |
  \\      /  F ield         | OpenFOAM: The Open Source CFD Toolbox
   \\    /   O peration     | Website:  https://openfoam.org
    \\  /    A nd           | Version:  6
     \\/     M anipulation  |
\*---------------------------------------------------------------------------*/
FoamFile
{
    version     2.0;
    format      ascii;
    class       volScalarField;
    location    "50/region0/neutronTransport";
    object      flux7;
}
// * * * * * * * * * * * * * * * * * * * * * * * * * * * * * * * * * * * * * //

dimensions      [0 -2 -1 0 0 0 0];

internalField   nonuniform List<scalar> 
203709
(
6.145036
16.38676
15.36259
6.145036
4.096691
15.36259
47.11194
39.94273
38.91856
48.13612
14.33842
7.169209
5.120863
13.31424
46.08777
36.87022
34.82187
36.87022
36.87022
36.87022
36.87022
48.13612
13.31424
7.169209
5.120863
47.11194
37.89439
35.84604
35.84604
32.77353
34.82187
35.84604
32.77353
35.84604
36.87022
39.94273
48.13612
8.193381
14.33842
38.91856
33.7977
36.87022
35.84604
33.7977
35.84604
34.82187
33.7977
37.89439
35.84604
34.82187
40.96691
18.43511
4.096691
46.08777
35.84604
36.87022
35.84604
34.82187
33.7977
34.82187
34.82187
33.7977
34.82187
34.82187
36.87022
36.87022
51.20863
8.193381
14.33842
36.87022
34.82187
35.84604
34.82187
33.7977
34.82187
33.7977
33.7977
34.82187
33.7977
33.7977
36.87022
36.87022
38.91856
18.43511
5.120863
46.08777
33.7977
33.7977
32.77353
32.77353
34.82187
31.74935
31.74935
32.77353
30.72518
34.82187
33.7977
33.7977
34.82187
36.87022
51.20863
9.217554
16.38676
39.94273
37.89439
34.82187
33.7977
33.7977
33.7977
31.74935
32.77353
33.7977
32.77353
33.7977
34.82187
34.82187
35.84604
36.87022
40.96691
21.50763
14.33842
37.89439
37.89439
35.84604
34.82187
33.7977
33.7977
31.74935
33.7977
32.77353
30.72518
33.7977
34.82187
34.82187
35.84604
37.89439
40.96691
22.5318
7.169209
47.11194
34.82187
34.82187
32.77353
34.82187
34.82187
31.74935
32.77353
31.74935
31.74935
34.82187
33.7977
33.7977
34.82187
34.82187
49.16029
12.29007
14.33842
37.89439
35.84604
36.87022
33.7977
33.7977
34.82187
34.82187
33.7977
34.82187
33.7977
33.7977
35.84604
36.87022
37.89439
18.43511
7.169209
48.13612
35.84604
35.84604
35.84604
33.7977
34.82187
34.82187
33.7977
33.7977
34.82187
34.82187
36.87022
36.87022
48.13612
12.29007
13.31424
39.94273
34.82187
35.84604
36.87022
34.82187
34.82187
34.82187
33.7977
35.84604
35.84604
34.82187
39.94273
18.43511
7.169209
48.13612
40.96691
36.87022
36.87022
34.82187
36.87022
36.87022
35.84604
36.87022
36.87022
39.94273
50.18446
12.29007
8.193381
17.41094
51.20863
38.91856
35.84604
37.89439
36.87022
34.82187
36.87022
48.13612
18.43511
12.29007
8.193381
18.43511
49.16029
40.96691
41.99108
50.18446
18.43511
12.29007
9.217554
21.50763
22.5318
13.31424
5.120863
11.2659
11.2659
13.31424
13.31424
12.29007
13.31424
11.2659
12.29007
7.169209
5.120863
14.33842
44.03942
37.89439
36.87022
36.87022
37.89439
36.87022
36.87022
36.87022
37.89439
46.08777
14.33842
7.169209
4.096691
41.99108
35.84604
34.82187
35.84604
32.77353
56.3295
69.64374
68.61957
58.37784
32.77353
35.84604
34.82187
34.82187
43.01525
6.145036
4.096691
41.99108
33.7977
33.7977
31.74935
57.35367
113.6832
9.473983e+14
1.223584e+15
1.218845e+15
1.052684e+15
136.215
62.47453
32.77353
34.82187
34.82187
45.0636
6.145036
4.096691
41.99108
33.7977
32.77353
58.37784
116.7557
9.79495e+14
1.388938e+15
1.730775e+15
2.051778e+15
2.080088e+15
1.780041e+15
1.398974e+15
1.091814e+15
138.2633
60.42619
31.74935
35.84604
44.03942
6.145036
4.096691
43.01525
33.7977
31.74935
89.10302
9.775106e+14
1.389705e+15
1.755073e+15
2.133947e+15
2.287499e+15
2.407609e+15
2.426152e+15
2.358962e+15
2.196424e+15
1.809912e+15
1.399456e+15
1.088983e+15
112.659
31.74935
35.84604
44.03942
7.169209
14.33842
34.82187
34.82187
58.37784
9.774333e+14
1.709178e+15
2.121484e+15
2.295745e+15
2.444683e+15
2.514047e+15
2.555269e+15
2.564115e+15
2.542182e+15
2.483268e+15
2.371389e+15
2.175945e+15
1.752763e+15
1.131011e+15
79.88547
35.84604
37.89439
17.41094
5.120863
43.01525
34.82187
31.74935
115.7315
1.389931e+15
2.121529e+15
2.397156e+15
2.506546e+15
2.57037e+15
2.603946e+15
2.621507e+15
2.625031e+15
2.614874e+15
2.588554e+15
2.537314e+15
2.435571e+15
2.214645e+15
1.607742e+15
146.4567
31.74935
34.82187
48.13612
8.193381
11.2659
36.87022
34.82187
58.37784
9.798135e+14
1.755502e+15
2.295944e+15
2.506625e+15
2.586719e+15
2.624457e+15
2.643175e+15
2.651867e+15
2.653232e+15
2.647483e+15
2.632604e+15
2.601845e+15
2.536468e+15
2.377824e+15
1.888847e+15
1.14979e+15
79.88547
34.82187
39.94273
16.38676
11.2659
36.87022
32.77353
114.7073
1.389403e+15
2.134299e+15
2.444898e+15
2.570493e+15
2.624537e+15
2.64948e+15
2.661319e+15
2.666852e+15
2.667582e+15
2.663502e+15
2.653538e+15
2.632878e+15
2.589572e+15
2.491406e+15
2.252928e+15
1.614282e+15
146.4567
32.77353
38.91856
17.41094
14.33842
35.84604
57.35367
9.473843e+14
1.731083e+15
2.287784e+15
2.514233e+15
2.604066e+15
2.643293e+15
2.661408e+15
2.670129e+15
2.674216e+15
2.674471e+15
2.67117e+15
2.663689e+15
2.647985e+15
2.615857e+15
2.54505e+15
2.373701e+15
1.867274e+15
1.120704e+15
75.78878
38.91856
19.45928
12.29007
37.89439
69.64374
1.223551e+15
2.051884e+15
2.407777e+15
2.555386e+15
2.62161e+15
2.652009e+15
2.667007e+15
2.674326e+15
2.677287e+15
2.677339e+15
2.674687e+15
2.668286e+15
2.654346e+15
2.627526e+15
2.570603e+15
2.447395e+15
2.166896e+15
1.46666e+15
94.22389
38.91856
18.43511
12.29007
37.89439
69.64374
1.218483e+15
2.079895e+15
2.426131e+15
2.564163e+15
2.625105e+15
2.653338e+15
2.66771e+15
2.674659e+15
2.67768e+15
2.677542e+15
2.674747e+15
2.668063e+15
2.653779e+15
2.625927e+15
2.566394e+15
2.438874e+15
2.152436e+15
1.505755e+15
95.24806
38.91856
18.43511
13.31424
35.84604
58.37784
1.052935e+15
1.77965e+15
2.358841e+15
2.542178e+15
2.614878e+15
2.647527e+15
2.663574e+15
2.6713e+15
2.674897e+15
2.674811e+15
2.671334e+15
2.662993e+15
2.646282e+15
2.611293e+15
2.53356e+15
2.349194e+15
1.817657e+15
1.341302e+15
85.00633
37.89439
18.43511
11.2659
36.87022
31.74935
136.215
1.398779e+15
2.196377e+15
2.483169e+15
2.588462e+15
2.632574e+15
2.653603e+15
2.663821e+15
2.668465e+15
2.668142e+15
2.66306e+15
2.652019e+15
2.629572e+15
2.581705e+15
2.473834e+15
2.218231e+15
1.619104e+15
178.206
31.74935
38.91856
17.41094
11.2659
36.87022
35.84604
61.45036
1.092325e+15
1.810299e+15
2.371502e+15
2.537317e+15
2.601823e+15
2.632963e+15
2.648133e+15
2.654405e+15
2.653732e+15
2.646382e+15
2.62967e+15
2.596035e+15
2.526294e+15
2.355557e+15
1.836065e+15
1.365736e+15
90.1272
36.87022
39.94273
17.41094
7.169209
46.08777
34.82187
31.74935
137.2391
1.399774e+15
2.176241e+15
2.435651e+15
2.536528e+15
2.589724e+15
2.615981e+15
2.627098e+15
2.625301e+15
2.611293e+15
2.581801e+15
2.526318e+15
2.42814e+15
2.201085e+15
1.617838e+15
182.3027
33.7977
34.82187
46.08777
11.2659
14.33842
37.89439
34.82187
61.45036
1.089318e+15
1.753107e+15
2.214758e+15
2.377999e+15
2.491651e+15
2.545211e+15
2.569887e+15
2.565603e+15
2.533592e+15
2.473877e+15
2.355579e+15
2.201199e+15
1.791006e+15
1.364881e+15
88.07885
35.84604
34.82187
18.43511
7.169209
45.0636
36.87022
32.77353
112.659
1.131332e+15
1.607889e+15
1.889138e+15
2.253356e+15
2.373951e+15
2.446821e+15
2.43824e+15
2.349246e+15
2.218243e+15
1.836158e+15
1.61819e+15
1.365193e+15
152.6017
33.7977
35.84604
45.0636
12.29007
6.145036
44.03942
35.84604
32.77353
80.90964
146.4567
1.150016e+15
1.615085e+15
1.867348e+15
2.166046e+15
2.151768e+15
1.817735e+15
1.618986e+15
1.365647e+15
182.3027
89.10302
32.77353
35.84604
44.03942
9.217554
5.120863
46.08777
35.84604
35.84604
31.74935
79.88547
144.4083
1.120575e+15
1.466072e+15
1.505701e+15
1.340971e+15
179.2302
90.1272
32.77353
35.84604
35.84604
44.03942
9.217554
6.145036
45.0636
38.91856
34.82187
34.82187
31.74935
76.81295
95.24806
96.27223
85.00633
33.7977
35.84604
34.82187
36.87022
45.0636
9.217554
7.169209
17.41094
48.13612
38.91856
38.91856
38.91856
40.96691
39.94273
37.89439
37.89439
39.94273
47.11194
17.41094
11.2659
7.169209
16.38676
17.41094
20.48345
18.43511
18.43511
20.48345
17.41094
17.41094
12.29007
3.072518
12.29007
12.29007
11.2659
11.2659
12.29007
13.31424
5.120863
3.072518
12.29007
12.29007
44.03942
38.91856
38.91856
37.89439
36.87022
38.91856
38.91856
47.11194
12.29007
13.31424
5.120863
3.072518
46.08777
32.77353
57.35367
71.69209
71.69209
72.71626
71.69209
71.69209
71.69209
72.71626
70.66791
58.37784
33.7977
45.0636
6.145036
6.145036
12.29007
38.91856
59.40201
116.7557
1.002066e+15
1.289038e+15
1.306966e+15
1.304394e+15
1.301647e+15
1.300375e+15
1.299706e+15
1.297089e+15
1.277239e+15
1.110604e+15
139.2875
63.49871
40.96691
13.31424
7.169209
6.145036
44.03942
32.77353
94.22389
1.034365e+15
1.467466e+15
1.843281e+15
2.192491e+15
2.310965e+15
2.35245e+15
2.360345e+15
2.357501e+15
2.343735e+15
2.303086e+15
2.214975e+15
1.887925e+15
1.476507e+15
1.155663e+15
118.804
33.7977
44.03942
8.193381
5.120863
43.01525
33.7977
98.32058
1.136627e+15
1.83067e+15
2.24937e+15
2.445155e+15
2.621955e+15
2.728483e+15
2.829692e+15
2.850353e+15
2.846517e+15
2.819e+15
2.712761e+15
2.632297e+15
2.505127e+15
2.298143e+15
1.876134e+15
1.274866e+15
124.9491
33.7977
45.0636
8.193381
12.29007
33.7977
100.3689
1.140327e+15
1.856951e+15
2.33078e+15
2.61523e+15
2.778037e+15
2.947727e+15
3.085126e+15
3.501211e+15
3.608463e+15
3.615852e+15
3.560483e+15
3.099087e+15
2.951885e+15
2.786374e+15
2.643243e+15
2.420538e+15
1.93228e+15
1.282456e+15
125.9732
34.82187
16.38676
5.120863
38.91856
95.24806
1.137029e+15
1.856847e+15
2.347769e+15
2.679456e+15
2.922807e+15
3.100845e+15
3.551509e+15
3.720423e+15
3.861045e+15
3.985816e+15
4.013291e+15
3.968443e+15
3.788087e+15
3.630328e+15
3.126773e+15
2.936983e+15
2.70847e+15
2.444244e+15
1.935448e+15
1.282072e+15
120.8524
41.99108
6.145036
3.072518
43.01525
59.40201
1.033884e+15
1.831048e+15
2.331215e+15
2.679797e+15
3.003397e+15
3.523308e+15
3.720194e+15
3.883646e+15
4.040394e+15
4.126765e+15
4.190331e+15
4.209831e+15
4.189622e+15
4.113817e+15
4.007279e+15
3.793243e+15
3.601981e+15
3.033997e+15
2.711389e+15
2.430103e+15
1.907731e+15
1.205499e+15
81.93381
46.08777
7.169209
13.31424
32.77353
117.7799
1.467706e+15
2.249534e+15
2.615632e+15
2.923042e+15
3.523202e+15
3.830439e+15
4.027129e+15
4.134109e+15
4.218093e+15
4.266887e+15
4.297109e+15
4.306817e+15
4.29687e+15
4.263215e+15
4.206853e+15
4.103907e+15
3.962355e+15
3.656406e+15
2.95298e+15
2.657646e+15
2.349736e+15
1.695425e+15
150.5534
34.82187
16.38676
12.29007
57.35367
1.000596e+15
1.843572e+15
2.445389e+15
2.778345e+15
3.100896e+15
3.720204e+15
4.027134e+15
4.182778e+15
4.261142e+15
4.30954e+15
4.337496e+15
4.352907e+15
4.357231e+15
4.350872e+15
4.332307e+15
4.298954e+15
4.239922e+15
4.139438e+15
3.924297e+15
3.166745e+15
2.799357e+15
2.520553e+15
1.979264e+15
1.186585e+15
79.88547
17.41094
3.072518
46.08777
70.66791
1.287627e+15
2.192255e+15
2.622056e+15
2.947929e+15
3.551691e+15
3.883854e+15
4.134231e+15
4.261206e+15
4.322789e+15
4.355555e+15
4.373209e+15
4.381986e+15
4.383885e+15
4.379288e+15
4.367055e+15
4.344202e+15
4.30344e+15
4.228425e+15
4.076866e+15
3.708412e+15
2.977632e+15
2.657397e+15
2.307027e+15
1.543791e+15
98.32058
49.16029
5.120863
12.29007
38.91856
72.71626
1.306142e+15
2.310533e+15
2.728384e+15
3.085027e+15
3.720559e+15
4.040583e+15
4.218234e+15
4.309633e+15
4.355601e+15
4.379385e+15
4.391853e+15
4.397822e+15
4.398712e+15
4.394845e+15
4.385578e+15
4.368335e+15
4.337669e+15
4.282384e+15
4.174296e+15
3.934327e+15
3.149375e+15
2.742865e+15
2.388016e+15
1.605527e+15
100.3689
41.99108
18.43511
12.29007
39.94273
71.69209
1.303968e+15
2.352074e+15
2.829565e+15
3.501088e+15
3.861124e+15
4.126927e+15
4.267004e+15
4.337583e+15
4.373285e+15
4.391904e+15
4.401583e+15
4.406001e+15
4.406387e+15
4.403089e+15
4.395328e+15
4.381115e+15
4.355955e+15
4.311159e+15
4.226744e+15
4.056722e+15
3.655571e+15
2.859095e+15
2.429887e+15
1.619445e+15
100.3689
40.96691
18.43511
11.2659
35.84604
71.69209
1.301456e+15
2.360137e+15
2.850206e+15
3.608392e+15
3.985856e+15
4.190427e+15
4.29719e+15
4.352988e+15
4.382074e+15
4.397907e+15
4.406063e+15
4.409758e+15
4.409853e+15
4.406877e+15
4.399716e+15
4.386809e+15
4.364333e+15
4.324985e+15
4.255211e+15
4.120701e+15
3.821626e+15
2.908774e+15
2.448293e+15
1.624964e+15
100.3689
39.94273
17.41094
10.24173
37.89439
71.69209
1.300332e+15
2.357492e+15
2.846473e+15
3.615683e+15
4.013169e+15
4.209822e+15
4.306852e+15
4.357285e+15
4.383957e+15
4.398794e+15
4.40649e+15
4.409971e+15
4.409908e+15
4.406871e+15
4.399653e+15
4.386719e+15
4.364221e+15
4.32502e+15
4.256533e+15
4.125488e+15
3.843924e+15
2.922052e+15
2.453512e+15
1.62749e+15
100.3689
39.94273
16.38676
12.29007
38.91856
72.71626
1.299707e+15
2.343733e+15
2.818972e+15
3.560609e+15
3.968333e+15
4.189577e+15
4.296857e+15
4.350882e+15
4.379329e+15
4.394905e+15
4.403173e+15
4.406981e+15
4.406911e+15
4.40325e+15
4.395287e+15
4.381014e+15
4.355894e+15
4.311778e+15
4.231749e+15
4.084716e+15
3.752104e+15
2.907421e+15
2.446885e+15
1.628386e+15
99.34475
40.96691
17.41094
12.29007
37.89439
71.69209
1.297042e+15
2.302811e+15
2.712553e+15
3.099139e+15
3.788139e+15
4.113813e+15
4.263172e+15
4.332276e+15
4.36706e+15
4.385623e+15
4.395411e+15
4.399799e+15
4.399696e+15
4.395322e+15
4.385857e+15
4.368642e+15
4.338406e+15
4.284187e+15
4.176957e+15
3.947783e+15
3.184223e+15
2.780517e+15
2.402535e+15
1.624758e+15
100.3689
40.96691
18.43511
5.120863
46.08777
71.69209
1.277307e+15
2.214533e+15
2.632181e+15
2.951946e+15
3.630558e+15
4.007446e+15
4.206938e+15
4.298976e+15
4.344213e+15
4.368392e+15
4.381183e+15
4.386782e+15
4.386679e+15
4.381046e+15
4.368679e+15
4.346558e+15
4.308277e+15
4.238147e+15
4.10447e+15
3.795551e+15
3.025242e+15
2.675044e+15
2.300304e+15
1.601933e+15
98.32058
47.11194
11.2659
12.29007
58.37784
1.110865e+15
1.887383e+15
2.505124e+15
2.786333e+15
3.126625e+15
3.793382e+15
4.104025e+15
4.239977e+15
4.303497e+15
4.337755e+15
4.355967e+15
4.363957e+15
4.363893e+15
4.355852e+15
4.338431e+15
4.308293e+15
4.257209e+15
4.16133e+15
3.945958e+15
3.199925e+15
2.83067e+15
2.518541e+15
1.938267e+15
1.417978e+15
88.07885
16.38676
12.29007
32.77353
140.3117
1.475921e+15
2.298447e+15
2.643348e+15
2.936745e+15
3.602018e+15
3.962439e+15
4.139521e+15
4.228543e+15
4.282528e+15
4.311211e+15
4.324538e+15
4.324632e+15
4.311718e+15
4.284188e+15
4.238184e+15
4.161384e+15
4.048278e+15
3.767513e+15
3.002785e+15
2.669726e+15
2.337744e+15
1.709174e+15
184.3511
36.87022
17.41094
5.120863
45.0636
62.47453
1.155056e+15
1.876541e+15
2.420583e+15
2.707975e+15
3.033614e+15
3.65648e+15
3.92441e+15
4.077028e+15
4.174478e+15
4.226793e+15
4.254721e+15
4.256148e+15
4.231722e+15
4.176952e+15
4.104497e+15
3.946074e+15
3.767594e+15
3.111919e+15
2.745751e+15
2.422943e+15
1.91651e+15
1.440923e+15
91.15137
48.13612
10.24173
6.145036
39.94273
117.7799
1.274442e+15
1.93211e+15
2.443633e+15
2.710954e+15
2.952896e+15
3.166775e+15
3.708473e+15
3.934467e+15
4.056659e+15
4.120201e+15
4.125187e+15
4.084733e+15
3.947786e+15
3.795471e+15
3.199863e+15
3.002731e+15
2.745788e+15
2.4432e+15
1.940055e+15
1.495594e+15
160.7951
40.96691
9.217554
12.29007
32.77353
124.9491
1.282893e+15
1.934968e+15
2.430081e+15
2.657722e+15
2.799371e+15
2.977607e+15
3.149326e+15
3.65543e+15
3.821354e+15
3.84385e+15
3.752155e+15
3.184393e+15
3.025142e+15
2.830647e+15
2.669913e+15
2.423294e+15
1.940015e+15
1.49843e+15
165.916
33.7977
16.38676
8.193381
45.0636
33.7977
128.0216
1.282275e+15
1.908265e+15
2.349912e+15
2.52056e+15
2.657355e+15
2.742748e+15
2.858924e+15
2.908313e+15
2.921495e+15
2.907447e+15
2.780745e+15
2.675164e+15
2.518713e+15
2.338079e+15
1.917397e+15
1.495993e+15
167.9643
35.84604
47.11194
12.29007
8.193381
46.08777
33.7977
119.8282
1.205683e+15
1.695276e+15
1.979073e+15
2.306494e+15
2.38727e+15
2.429291e+15
2.447529e+15
2.452456e+15
2.446828e+15
2.402952e+15
2.300727e+15
1.938066e+15
1.708456e+15
1.440549e+15
159.7709
34.82187
47.11194
11.2659
9.217554
17.41094
41.99108
81.93381
150.5534
1.185827e+15
1.542406e+15
1.603991e+15
1.618415e+15
1.625447e+15
1.627025e+15
1.628397e+15
1.625463e+15
1.603194e+15
1.419703e+15
184.3511
92.17554
40.96691
17.41094
13.31424
6.145036
46.08777
34.82187
78.8613
98.32058
100.3689
100.3689
101.3931
101.3931
99.34475
100.3689
98.32058
89.10302
35.84604
47.11194
9.217554
6.145036
16.38676
16.38676
48.13612
41.99108
39.94273
38.91856
39.94273
39.94273
39.94273
48.13612
15.36259
18.43511
10.24173
6.145036
17.41094
16.38676
17.41094
17.41094
17.41094
18.43511
11.2659
4.096691
11.2659
13.31424
13.31424
11.2659
5.120863
3.072518
11.2659
10.24173
25.60432
78.8613
76.81295
78.8613
77.83712
76.81295
78.8613
27.65266
10.24173
11.2659
4.096691
5.120863
12.29007
62.47453
82.95799
124.9491
1.058278e+15
1.367612e+15
1.382133e+15
1.377472e+15
1.375311e+15
1.374705e+15
1.365624e+15
1.179106e+15
148.505
82.95799
67.5954
9.217554
5.120863
4.096691
40.96691
100.3689
1.074626e+15
1.411289e+15
1.583348e+15
1.949256e+15
2.301919e+15
2.406104e+15
2.429859e+15
2.429284e+15
2.408146e+15
2.331301e+15
2.004261e+15
1.588325e+15
1.397332e+15
1.187803e+15
123.9249
40.96691
6.145036
1.024173
67.5954
129.0458
1.209197e+15
1.946165e+15
2.381735e+15
2.617551e+15
2.73129e+15
2.863474e+15
2.922012e+15
2.942402e+15
2.943528e+15
2.928958e+15
2.888525e+15
2.797809e+15
2.636626e+15
2.386371e+15
1.97803e+15
1.338599e+15
156.6984
69.64374
3.072518
2.048345
102.4173
1.119928e+15
1.580732e+15
2.046627e+15
2.606379e+15
2.951608e+15
3.47159e+15
3.627101e+15
3.686454e+15
3.710587e+15
3.718836e+15
3.718962e+15
3.712599e+15
3.695985e+15
3.655809e+15
3.548224e+15
2.995302e+15
2.698494e+15
2.112462e+15
1.581719e+15
1.245746e+15
122.9007
2.048345
2.048345
101.3931
1.232493e+15
1.971331e+15
2.456668e+15
2.824396e+15
3.458299e+15
3.716298e+15
3.908574e+15
4.060712e+15
4.12498e+15
4.149622e+15
4.156785e+15
4.157053e+15
4.15241e+15
4.137826e+15
4.103704e+15
4.024367e+15
3.802799e+15
3.577617e+15
2.916747e+15
2.485483e+15
1.992576e+15
1.375451e+15
126.9974
3.072518
3.072518
66.57122
1.120693e+15
1.971343e+15
2.519726e+15
2.958418e+15
3.553849e+15
3.875666e+15
4.086212e+15
4.202246e+15
4.287528e+15
4.333923e+15
4.363107e+15
4.372056e+15
4.373383e+15
4.369833e+15
4.348668e+15
4.321553e+15
4.272548e+15
4.170329e+15
4.024375e+15
3.708359e+15
3.01614e+15
2.585875e+15
2.021222e+15
1.299636e+15
87.05468
5.120863
4.096691
38.91856
130.0699
1.580684e+15
2.456358e+15
2.958519e+15
3.583817e+15
3.906929e+15
4.137746e+15
4.280259e+15
4.361076e+15
4.422488e+15
4.464744e+15
4.549993e+15
4.584589e+15
4.593492e+15
4.588354e+15
4.502089e+15
4.455404e+15
4.405318e+15
4.342779e+15
4.249559e+15
4.077545e+15
3.736629e+15
3.02526e+15
2.53569e+15
1.798918e+15
163.8676
43.01525
7.169209
10.24173
99.34475
1.207383e+15
2.04681e+15
2.824423e+15
3.554075e+15
3.906993e+15
4.146485e+15
4.301141e+15
4.404769e+15
4.471836e+15
4.574689e+15
4.62922e+15
4.677901e+15
4.715532e+15
4.729939e+15
4.725775e+15
4.678139e+15
4.634704e+15
4.526505e+15
4.457162e+15
4.378482e+15
4.270025e+15
4.08202e+15
3.71699e+15
2.931348e+15
2.17623e+15
1.363235e+15
126.9974
13.31424
4.096691
63.49871
1.072862e+15
1.945095e+15
2.606677e+15
3.45824e+15
3.875895e+15
4.138012e+15
4.301299e+15
4.420694e+15
4.555961e+15
4.627806e+15
4.688293e+15
4.737982e+15
4.771885e+15
4.796937e+15
4.807924e+15
4.805641e+15
4.78268e+15
4.751995e+15
4.687811e+15
4.629326e+15
4.4995e+15
4.390318e+15
4.265876e+15
4.057763e+15
3.645799e+15
2.739322e+15
2.022976e+15
1.257831e+15
88.07885
6.145036
12.29007
82.95799
1.409761e+15
2.381313e+15
2.95158e+15
3.716267e+15
4.086296e+15
4.280491e+15
4.4049e+15
4.55595e+15
4.661527e+15
4.730477e+15
4.774828e+15
4.808631e+15
4.830699e+15
4.845192e+15
4.851527e+15
4.849929e+15
4.838367e+15
4.819319e+15
4.784494e+15
4.742963e+15
4.658942e+15
4.494193e+15
4.374168e+15
4.226683e+15
3.949018e+15
3.059393e+15
2.474972e+15
1.658143e+15
113.6832
16.38676
10.24173
124.9491
1.582469e+15
2.617761e+15
3.470973e+15
3.908572e+15
4.202349e+15
4.361254e+15
4.471894e+15
4.62781e+15
4.730479e+15
4.792014e+15
4.827463e+15
4.850338e+15
4.864494e+15
4.872872e+15
4.876173e+15
4.874641e+15
4.867669e+15
4.855241e+15
4.834318e+15
4.804688e+15
4.748391e+15
4.571721e+15
4.442636e+15
4.317233e+15
4.117105e+15
3.654749e+15
2.713714e+15
1.873383e+15
163.8676
15.36259
25.60432
1.05916e+15
1.950103e+15
2.732179e+15
3.626752e+15
4.060597e+15
4.287574e+15
4.422584e+15
4.574751e+15
4.688353e+15
4.774869e+15
4.827486e+15
4.856736e+15
4.873574e+15
4.883246e+15
4.888441e+15
4.890156e+15
4.888676e+15
4.883699e+15
4.874634e+15
4.859761e+15
4.836793e+15
4.79635e+15
4.692151e+15
4.512911e+15
4.379904e+15
4.212647e+15
3.868043e+15
2.856538e+15
2.119433e+15
1.265109e+15
41.99108
3.072518
77.83712
1.368505e+15
2.303453e+15
2.864517e+15
3.68639e+15
4.124802e+15
4.333873e+15
4.46471e+15
4.629246e+15
4.73804e+15
4.808683e+15
4.850374e+15
4.873592e+15
4.88651e+15
4.893653e+15
4.897272e+15
4.898226e+15
4.896778e+15
4.89276e+15
4.885518e+15
4.873712e+15
4.855218e+15
4.824254e+15
4.758142e+15
4.568061e+15
4.419702e+15
4.257838e+15
3.944304e+15
2.965543e+15
2.43831e+15
1.637263e+15
108.5623
6.145036
11.2659
77.83712
1.382669e+15
2.407323e+15
2.92272e+15
3.710612e+15
4.149468e+15
4.363027e+15
4.549932e+15
4.677909e+15
4.771935e+15
4.830745e+15
4.864531e+15
4.883275e+15
4.89367e+15
4.89934e+15
4.902094e+15
4.902664e+15
4.90129e+15
4.897776e+15
4.891547e+15
4.8814e+15
4.865419e+15
4.839538e+15
4.792077e+15
4.674457e+15
4.467604e+15
4.285381e+15
3.973e+15
3.011612e+15
2.507079e+15
1.685522e+15
107.5381
16.38676
13.31424
78.8613
1.377426e+15
2.430238e+15
2.942706e+15
3.71888e+15
4.156726e+15
4.371998e+15
4.584553e+15
4.715537e+15
4.796971e+15
4.845226e+15
4.872905e+15
4.888474e+15
4.897301e+15
4.902113e+15
4.904415e+15
4.90478e+15
4.903455e+15
4.900169e+15
4.894431e+15
4.88516e+15
4.870633e+15
4.848018e+15
4.809608e+15
4.726079e+15
4.494398e+15
4.29939e+15
3.983825e+15
3.028884e+15
2.528378e+15
1.702838e+15
109.5865
17.41094
13.31424
77.83712
1.375586e+15
2.42948e+15
2.94374e+15
3.719059e+15
4.157113e+15
4.373393e+15
4.593457e+15
4.729909e+15
4.807924e+15
4.851543e+15
4.876196e+15
4.890184e+15
4.898257e+15
4.902696e+15
4.904809e+15
4.90507e+15
4.903716e+15
4.900453e+15
4.894814e+15
4.885774e+15
4.871756e+15
4.850425e+15
4.814945e+15
4.741004e+15
4.504186e+15
4.303549e+15
3.984928e+15
3.028844e+15
2.528889e+15
1.708113e+15
109.5865
18.43511
11.2659
77.83712
1.375316e+15
2.408307e+15
2.929175e+15
3.712713e+15
4.15244e+15
4.369806e+15
4.588372e+15
4.725755e+15
4.805631e+15
4.849928e+15
4.874649e+15
4.888694e+15
4.896802e+15
4.901319e+15
4.903487e+15
4.90373e+15
4.902222e+15
4.898775e+15
4.89287e+15
4.883466e+15
4.869067e+15
4.847041e+15
4.811129e+15
4.728231e+15
4.500592e+15
4.298687e+15
3.976361e+15
3.009894e+15
2.505641e+15
1.708363e+15
108.5623
18.43511
4.096691
81.93381
1.365458e+15
2.331574e+15
2.888759e+15
3.696051e+15
4.137691e+15
4.348559e+15
4.502107e+15
4.678162e+15
4.782683e+15
4.838359e+15
4.867664e+15
4.883705e+15
4.892776e+15
4.897801e+15
4.900192e+15
4.900466e+15
4.898783e+15
4.894962e+15
4.888404e+15
4.878085e+15
4.862319e+15
4.836351e+15
4.785498e+15
4.618165e+15
4.454396e+15
4.272948e+15
3.949961e+15
2.957951e+15
2.417919e+15
1.696805e+15
107.5381
9.217554
27.65266
1.17703e+15
2.004465e+15
2.797803e+15
3.65581e+15
4.103437e+15
4.321462e+15
4.455396e+15
4.634744e+15
4.752033e+15
4.819342e+15
4.85525e+15
4.874641e+15
4.885535e+15
4.891563e+15
4.89442e+15
4.894798e+15
4.892872e+15
4.888411e+15
4.880811e+15
4.869032e+15
4.850971e+15
4.821172e+15
4.751115e+15
4.560734e+15
4.408075e+15
4.226707e+15
3.890319e+15
2.849873e+15
2.059644e+15
1.490433e+15
47.11194
9.217554
147.4809
1.588303e+15
2.636527e+15
3.548379e+15
4.024083e+15
4.272507e+15
4.405278e+15
4.526445e+15
4.687823e+15
4.784519e+15
4.834335e+15
4.85978e+15
4.873735e+15
4.881396e+15
4.885054e+15
4.88567e+15
4.883434e+15
4.878084e+15
4.869035e+15
4.854861e+15
4.831969e+15
4.785881e+15
4.627601e+15
4.484215e+15
4.342006e+15
4.145121e+15
3.742422e+15
2.740946e+15
1.843634e+15
196.6412
16.38676
11.2659
83.98216
1.396962e+15
2.385271e+15
2.994936e+15
3.802417e+15
4.170358e+15
4.342765e+15
4.457017e+15
4.629263e+15
4.742956e+15
4.804707e+15
4.836826e+15
4.855255e+15
4.86542e+15
4.870492e+15
4.871618e+15
4.86902e+15
4.862309e+15
4.850977e+15
4.831982e+15
4.804404e+15
4.739159e+15
4.551984e+15
4.408628e+15
4.246015e+15
3.95871e+15
3.075666e+15
2.498199e+15
1.723777e+15
113.6832
18.43511
5.120863
67.5954
1.189323e+15
1.976629e+15
2.697476e+15
3.57678e+15
4.024218e+15
4.249445e+15
4.378194e+15
4.499263e+15
4.658895e+15
4.74841e+15
4.796392e+15
4.824295e+15
4.839533e+15
4.847854e+15
4.850276e+15
4.846999e+15
4.836341e+15
4.821174e+15
4.785903e+15
4.73918e+15
4.59191e+15
4.448917e+15
4.305099e+15
4.110642e+15
3.728253e+15
2.747621e+15
2.0508e+15
1.513155e+15
96.27223
9.217554
9.217554
124.9491
1.338887e+15
2.111212e+15
2.91599e+15
3.708036e+15
4.077327e+15
4.26968e+15
4.390087e+15
4.494109e+15
4.571711e+15
4.692161e+15
4.758151e+15
4.792034e+15
4.80943e+15
4.814815e+15
4.811111e+15
4.7855e+15
4.751093e+15
4.627589e+15
4.551997e+15
4.448959e+15
4.320382e+15
4.144447e+15
3.811194e+15
2.970997e+15
2.150511e+15
1.580728e+15
170.0127
12.29007
7.169209
40.96691
156.6984
1.582804e+15
2.485508e+15
3.015869e+15
3.736573e+15
4.081877e+15
4.265861e+15
4.374195e+15
4.442642e+15
4.512915e+15
4.568033e+15
4.674371e+15
4.725906e+15
4.740904e+15
4.728246e+15
4.618217e+15
4.560728e+15
4.484256e+15
4.408751e+15
4.305296e+15
4.144613e+15
3.837052e+15
3.077227e+15
2.563187e+15
1.832092e+15
200.7378
41.99108
10.24173
5.120863
69.64374
1.247318e+15
1.992429e+15
2.585203e+15
3.025114e+15
3.717113e+15
4.057956e+15
4.226761e+15
4.317229e+15
4.379858e+15
4.419595e+15
4.467452e+15
4.49399e+15
4.503824e+15
4.500538e+15
4.454507e+15
4.408173e+15
4.342087e+15
4.246066e+15
4.110721e+15
3.811229e+15
3.07746e+15
2.618721e+15
2.054826e+15
1.547541e+15
96.27223
9.217554
2.048345
125.9732
1.378043e+15
2.020594e+15
2.535814e+15
2.931231e+15
3.645845e+15
3.948962e+15
4.11698e+15
4.212402e+15
4.257551e+15
4.285171e+15
4.298929e+15
4.30306e+15
4.298527e+15
4.273057e+15
4.226917e+15
4.145294e+15
3.958604e+15
3.727937e+15
2.970462e+15
2.563312e+15
2.054287e+15
1.603408e+15
161.8193
5.120863
4.096691
128.0216
1.30117e+15
1.799233e+15
2.175879e+15
2.739269e+15
3.059399e+15
3.654657e+15
3.867844e+15
3.944118e+15
3.972983e+15
3.983721e+15
3.984603e+15
3.976194e+15
3.949961e+15
3.89048e+15
3.742734e+15
3.075666e+15
2.747202e+15
2.149803e+15
1.832815e+15
1.549283e+15
162.8435
7.169209
3.072518
88.07885
165.916
1.363629e+15
2.022911e+15
2.475133e+15
2.713927e+15
2.857212e+15
2.966408e+15
3.012427e+15
3.028815e+15
3.028076e+15
3.009654e+15
2.957649e+15
2.8494e+15
2.740582e+15
2.498051e+15
2.050636e+15
1.581433e+15
200.7378
97.2964
6.145036
5.120863
43.01525
128.0216
1.257775e+15
1.658502e+15
1.872926e+15
2.120015e+15
2.439129e+15
2.507957e+15
2.528385e+15
2.528367e+15
2.505874e+15
2.418277e+15
2.059721e+15
1.844116e+15
1.725671e+15
1.515375e+15
170.0127
43.01525
9.217554
7.169209
12.29007
87.05468
113.6832
163.8676
1.265819e+15
1.637952e+15
1.686338e+15
1.703233e+15
1.707943e+15
1.708757e+15
1.697721e+15
1.491806e+15
196.6412
113.6832
96.27223
14.33842
11.2659
7.169209
16.38676
15.36259
43.01525
108.5623
108.5623
110.6106
110.6106
109.5865
107.5381
47.11194
17.41094
17.41094
9.217554
6.145036
16.38676
18.43511
18.43511
17.41094
10.24173
1.024173
6.145036
23.55597
29.70101
30.72518
30.72518
30.72518
24.58014
7.169209
3.072518
-1.024173
25.60432
31.74935
86.0305
133.1424
1.119689e+15
1.447149e+15
1.473929e+15
1.467292e+15
1.434742e+15
1.236363e+15
156.6984
87.05468
30.72518
25.60432
1.024173
15.36259
128.0216
1.149962e+15
1.46358e+15
1.539737e+15
1.728246e+15
2.117682e+15
2.514886e+15
2.620067e+15
2.623173e+15
2.541836e+15
2.177763e+15
1.729701e+15
1.518861e+15
1.438377e+15
1.254883e+15
148.505
17.41094
3.072518
41.99108
1.229485e+15
1.717887e+15
2.178265e+15
2.577174e+15
2.797792e+15
3.300949e+15
3.486777e+15
3.616339e+15
3.662748e+15
3.667984e+15
3.642179e+15
3.567965e+15
3.390431e+15
2.812199e+15
2.583905e+15
2.193699e+15
1.688731e+15
1.346876e+15
53.25698
4.096691
1.024173
108.5623
1.317286e+15
2.133839e+15
2.714444e+15
3.357988e+15
3.624213e+15
3.752874e+15
3.915023e+15
4.065413e+15
4.142014e+15
4.171456e+15
4.17624e+15
4.163645e+15
4.126318e+15
4.037407e+15
3.821054e+15
3.663925e+15
3.472445e+15
2.751138e+15
2.154421e+15
1.445834e+15
132.1183
3.072518
3.072518
109.5865
1.346461e+15
2.202967e+15
2.817433e+15
3.533373e+15
3.885818e+15
4.099555e+15
4.209693e+15
4.282218e+15
4.351801e+15
4.393129e+15
4.411365e+15
4.414973e+15
4.407822e+15
4.388264e+15
4.34816e+15
4.266095e+15
4.165477e+15
4.031419e+15
3.692345e+15
2.928075e+15
2.265365e+15
1.474956e+15
134.1666
5.120863
2.048345
108.5623
1.354895e+15
2.262371e+15
3.276554e+15
3.690846e+15
3.967028e+15
4.204744e+15
4.355401e+15
4.500292e+15
4.568629e+15
4.60614e+15
4.626174e+15
4.635129e+15
4.637098e+15
4.633947e+15
4.625305e+15
4.607828e+15
4.569261e+15
4.438521e+15
4.328546e+15
4.143885e+15
3.81941e+15
3.441553e+15
2.340185e+15
1.487502e+15
134.1666
3.072518
2.048345
108.5623
1.346424e+15
2.262844e+15
3.310484e+15
3.830223e+15
4.116646e+15
4.289942e+15
4.483909e+15
4.594999e+15
4.676903e+15
4.732647e+15
4.76195e+15
4.77566e+15
4.781127e+15
4.782451e+15
4.781095e+15
4.776274e+15
4.765553e+15
4.742109e+15
4.672657e+15
4.597424e+15
4.423892e+15
4.236738e+15
4.010973e+15
3.526731e+15
2.351481e+15
1.483247e+15
134.1666
3.072518
41.99108
1.317334e+15
2.202606e+15
3.277092e+15
3.830286e+15
4.154038e+15
4.352406e+15
4.5301e+15
4.655893e+15
4.738523e+15
4.790399e+15
4.825897e+15
4.845972e+15
4.857015e+15
4.861443e+15
4.862823e+15
4.862549e+15
4.858177e+15
4.850491e+15
4.835509e+15
4.800668e+15
4.753784e+15
4.655573e+15
4.470386e+15
4.297726e+15
4.040724e+15
3.513844e+15
2.286164e+15
1.470951e+15
58.37784
14.33842
1.230383e+15
2.133508e+15
2.817244e+15
3.69065e+15
4.116534e+15
4.352442e+15
4.548049e+15
4.673929e+15
4.762443e+15
4.820619e+15
4.855734e+15
4.879565e+15
4.894705e+15
4.91415e+15
4.924491e+15
4.92843e+15
4.92875e+15
4.913168e+15
4.900835e+15
4.886758e+15