/*--------------------------------*- C++ -*----------------------------------*\
  =========                 |
  \\      /  F ield         | OpenFOAM: The Open Source CFD Toolbox
   \\    /   O peration     | Website:  https://openfoam.org
    \\  /    A nd           | Version:  6
     \\/     M anipulation  |
\*---------------------------------------------------------------------------*/
FoamFile
{
    version     2.0;
    format      ascii;
    class       volScalarField;
    location    "50/region0/neutronTransport";
    object      flux5;
}
// * * * * * * * * * * * * * * * * * * * * * * * * * * * * * * * * * * * * * //

dimensions      [0 -2 -1 0 0 0 0];

internalField   nonuniform List<scalar> 
203709
(
7263695
9218200
9217725
7269147
7722069
9923264
1.431538e+07
1.407795e+07
1.407774e+07
1.432057e+07
9929386
7728345
7484645
9950544
1.446175e+07
1.429634e+07
1.477141e+07
1.489394e+07
1.489589e+07
1.477752e+07
1.430598e+07
1.4474e+07
9961363
7493296
7483236
1.402549e+07
1.423142e+07
1.484047e+07
1.515542e+07
1.544158e+07
1.556754e+07
1.557081e+07
1.544789e+07
1.516507e+07
1.485261e+07
1.424497e+07
1.404025e+07
7490852
9944758
1.422793e+07
1.493483e+07
1.542374e+07
1.579676e+07
1.60683e+07
1.620428e+07
1.620682e+07
1.607283e+07
1.580403e+07
1.54327e+07
1.494382e+07
1.423641e+07
9950278
7711633
1.444732e+07
1.483304e+07
1.542007e+07
1.592622e+07
1.632323e+07
1.659848e+07
1.673432e+07
1.673542e+07
1.660135e+07
1.632809e+07
1.593064e+07
1.542432e+07
1.483752e+07
1.445282e+07
7713788
9904840
1.427628e+07
1.514237e+07
1.578831e+07
1.631978e+07
1.672953e+07
1.700002e+07
1.712571e+07
1.712599e+07
1.700153e+07
1.673057e+07
1.632096e+07
1.579241e+07
1.514903e+07
1.428459e+07
9911696
7248548
1.428451e+07
1.474601e+07
1.542349e+07
1.605694e+07
1.659203e+07
1.699794e+07
1.724306e+07
1.736568e+07
1.736675e+07
1.724629e+07
1.700165e+07
1.659829e+07
1.606598e+07
1.543458e+07
1.475877e+07
1.429952e+07
7252412
9189866
1.403839e+07
1.485998e+07
1.554304e+07
1.618736e+07
1.672361e+07
1.712071e+07
1.736205e+07
1.749747e+07
1.749226e+07
1.736229e+07
1.712285e+07
1.672895e+07
1.619544e+07
1.555361e+07
1.487408e+07
1.405292e+07
9199073
9189882
1.403956e+07
1.485766e+07
1.553773e+07
1.618319e+07
1.672207e+07
1.712007e+07
1.736169e+07
1.750034e+07
1.7493e+07
1.735782e+07
1.711702e+07
1.672244e+07
1.618996e+07
1.554871e+07
1.486965e+07
1.405113e+07
9198724
7241358
1.427899e+07
1.473785e+07
1.54144e+07
1.604908e+07
1.658699e+07
1.69957e+07
1.724259e+07
1.736431e+07
1.735982e+07
1.723536e+07
1.698912e+07
1.658388e+07
1.605142e+07
1.542097e+07
1.474632e+07
1.428695e+07
7250144
9896221
1.426561e+07
1.51328e+07
1.578159e+07
1.631501e+07
1.67277e+07
1.699969e+07
1.712627e+07
1.712183e+07
1.699401e+07
1.671985e+07
1.630865e+07
1.577838e+07
1.513367e+07
1.427061e+07
9903159
7705250
1.443725e+07
1.482366e+07
1.541353e+07
1.592157e+07
1.632131e+07
1.659571e+07
1.673203e+07
1.672865e+07
1.659135e+07
1.631361e+07
1.591395e+07
1.540749e+07
1.482087e+07
1.443776e+07
7707349
9938823
1.422088e+07
1.493001e+07
1.542035e+07
1.579346e+07
1.606381e+07
1.620488e+07
1.620195e+07
1.605716e+07
1.578418e+07
1.540989e+07
1.492048e+07
1.421529e+07
9937046
7480864
1.402277e+07
1.422728e+07
1.483547e+07
1.514719e+07
1.542985e+07
1.555835e+07
1.555571e+07
1.542254e+07
1.513669e+07
1.482248e+07
1.421367e+07
1.401071e+07
7475032
7482742
9945250
1.444981e+07
1.427801e+07
1.474908e+07
1.486934e+07
1.486868e+07
1.474267e+07
1.426931e+07
1.443666e+07
9933705
7474096
7710422
9903640
1.428362e+07
1.40472e+07
1.404844e+07
1.427825e+07
9897567
7704829
7244610
9186647
9187141
7243553
6079118
7970604
8390064
8660305
8825071
8825532
8661630
8391774
7972825
6083079
6260362
8416812
1.250949e+07
1.288203e+07
1.340945e+07
1.407327e+07
1.460303e+07
1.460408e+07
1.407733e+07
1.341187e+07
1.288113e+07
1.250753e+07
8414658
6259176
6460502
1.223889e+07
1.289845e+07
1.403338e+07
1.522585e+07
1.623594e+07
1.796346e+07
1.928786e+07
1.928912e+07
1.796809e+07
1.623735e+07
1.522552e+07
1.403525e+07
1.289999e+07
1.224394e+07
6461696
6542067
1.246185e+07
1.365442e+07
1.513317e+07
1.670883e+07
1.955532e+07
2.335738e+07
2.95616e+07
3.11199e+07
3.112254e+07
2.956547e+07
2.336382e+07
1.956428e+07
1.671855e+07
1.514184e+07
1.366319e+07
1.246895e+07
6548535
6453703
1.245515e+07
1.380568e+07
1.553314e+07
1.90867e+07
2.371324e+07
3.125843e+07
3.530838e+07
3.834318e+07
4.308964e+07
4.309399e+07
3.835733e+07
3.532733e+07
3.127807e+07
2.373415e+07
1.910381e+07
1.555084e+07
1.382004e+07
1.246808e+07
6462400
6251624
1.222588e+07
1.364203e+07
1.552742e+07
2.072382e+07
3.014529e+07
3.52419e+07
3.946709e+07
4.619199e+07
4.916664e+07
5.093614e+07
5.094301e+07
4.918652e+07
4.622105e+07
3.95004e+07
3.527561e+07
3.017382e+07
2.074731e+07
1.554434e+07
1.365846e+07
1.224149e+07
6260526
8397774
1.287455e+07
1.511097e+07
1.906954e+07
3.013265e+07
3.740833e+07
4.538327e+07
4.971638e+07
5.31056e+07
5.518474e+07
5.625026e+07
5.625821e+07
5.520719e+07
5.314038e+07
4.975835e+07
4.542545e+07
3.744367e+07
3.016033e+07
1.908817e+07
1.512922e+07
1.28907e+07
8409228
6069397
1.247877e+07
1.400254e+07
1.668069e+07
2.368331e+07
3.522245e+07
4.537323e+07
5.127216e+07
5.501075e+07
5.757865e+07
5.920217e+07
6.000663e+07
6.001354e+07
5.922137e+07
5.760846e+07
5.50463e+07
5.13079e+07
4.540495e+07
3.524611e+07
2.370259e+07
1.669638e+07
1.401477e+07
1.249103e+07
6074169
7951206
1.285225e+07
1.519022e+07
1.95219e+07
3.122387e+07
3.943852e+07
4.96963e+07
5.500097e+07
5.835683e+07
6.059604e+07
6.200401e+07
6.26913e+07
6.269547e+07
6.201629e+07
6.061488e+07
5.83783e+07
5.502193e+07
4.97143e+07
3.945272e+07
3.123649e+07
1.952833e+07
1.51998e+07
1.286156e+07
7957340
8366764
1.337803e+07
1.619536e+07
2.33055e+07
3.525926e+07
4.614338e+07
5.306909e+07
5.755514e+07
6.058434e+07
6.264154e+07
6.394043e+07
6.457604e+07
6.4578e+07
6.394662e+07
6.264992e+07
6.059494e+07
5.756912e+07
5.308667e+07
4.616172e+07
3.527124e+07
2.332522e+07
1.621245e+07
1.338945e+07
8375935
8632909
1.403709e+07
1.792155e+07
2.950119e+07
3.827849e+07
4.909916e+07
5.512897e+07
5.916239e+07
6.197937e+07
6.392974e+07
6.516421e+07
6.577031e+07
6.577262e+07
6.517269e+07
6.394343e+07
6.199919e+07
5.918845e+07
5.515864e+07
4.912864e+07
3.830268e+07
2.952691e+07
1.793739e+07
1.405264e+07
8646817
8793400
1.45567e+07
1.923265e+07
3.104712e+07
4.300022e+07
5.084543e+07
5.617272e+07
5.994804e+07
6.265234e+07
6.455417e+07
6.575812e+07
6.635081e+07
6.634808e+07
6.575961e+07
6.456101e+07
6.266727e+07
5.997202e+07
5.620275e+07
5.087824e+07
4.30303e+07
3.107399e+07
1.925454e+07
1.457844e+07
8810467
8790809
1.455014e+07
1.922377e+07
3.103715e+07
4.299185e+07
5.083596e+07
5.615934e+07
5.993583e+07
6.264545e+07
6.45522e+07
6.575831e+07
6.635104e+07
6.634361e+07
6.574891e+07
6.454689e+07
6.26517e+07
5.995667e+07
5.618878e+07
5.086669e+07
4.302091e+07
3.1063e+07
1.924552e+07
1.457181e+07
8807171
8626271
1.402499e+07
1.790951e+07
2.948627e+07
3.825347e+07
4.907193e+07
5.509961e+07
5.913524e+07
6.195937e+07
6.391882e+07
6.515973e+07
6.576565e+07
6.575849e+07
6.514726e+07
6.390979e+07
6.196064e+07
5.914888e+07
5.512209e+07
4.90984e+07
3.828039e+07
2.950876e+07
1.792734e+07
1.404327e+07
8639387
8360251
1.336723e+07
1.618592e+07
2.329092e+07
3.523071e+07
4.610995e+07
5.303387e+07
5.752388e+07
6.056105e+07
6.262781e+07
6.393363e+07
6.457136e+07
6.456641e+07
6.392513e+07
6.261898e+07
6.055696e+07
5.752821e+07
5.30468e+07
4.612866e+07
3.525323e+07
2.330475e+07
1.619716e+07
1.338159e+07
8369912
7946793
1.284576e+07
1.518259e+07
1.950551e+07
3.120374e+07
3.94126e+07
4.966598e+07
5.497364e+07
5.833573e+07
6.058176e+07
6.199252e+07
6.267767e+07
6.26732e+07
6.198387e+07
6.057026e+07
5.832491e+07
5.49674e+07
4.966607e+07
3.941616e+07
3.121128e+07
1.951757e+07
1.519086e+07
1.285581e+07
7953416
6067256
1.247832e+07
1.399879e+07
1.667179e+07
2.367448e+07
3.520651e+07
4.535459e+07
5.125406e+07
5.499462e+07
5.756243e+07
5.918217e+07
5.997528e+07
5.996973e+07
5.916821e+07
5.754274e+07
5.497239e+07
5.123401e+07
4.533972e+07
3.519713e+07
2.367161e+07
1.667632e+07
1.400297e+07
1.248273e+07
6070962
8400028
1.287283e+07
1.510703e+07
1.906359e+07
3.012719e+07
3.739894e+07
4.536966e+07
4.969845e+07
5.30784e+07
5.514634e+07
5.619226e+07
5.61859e+07
5.5128e+07
5.305141e+07
4.966612e+07
4.533853e+07
3.737323e+07
3.010694e+07
1.905473e+07
1.51059e+07
1.287284e+07
8398422
6253327
1.222342e+07
1.363949e+07
1.552245e+07
2.071741e+07
3.013181e+07
3.522313e+07
3.944089e+07
4.614622e+07
4.910622e+07
5.085433e+07
5.084933e+07
4.908784e+07
4.61187e+07
3.940737e+07
3.519302e+07
3.010602e+07
2.069773e+07
1.550964e+07
1.363273e+07
1.221977e+07
6248346
6455400
1.245511e+07
1.380063e+07
1.552127e+07
1.906528e+07
2.368267e+07
3.122002e+07
3.525201e+07
3.827003e+07
4.29904e+07
4.298777e+07
3.825644e+07
3.523034e+07
3.119225e+07
2.366094e+07
1.904725e+07
1.550563e+07
1.378703e+07
1.244443e+07
6449020
6538955
1.245157e+07
1.363692e+07
1.510875e+07
1.66767e+07
1.950685e+07
2.329406e+07
2.94866e+07
3.102976e+07
3.102732e+07
2.947446e+07
2.328014e+07
1.949545e+07
1.666094e+07
1.509312e+07
1.362298e+07
1.243958e+07
6533322
6448274
1.221744e+07
1.286844e+07
1.39937e+07
1.517629e+07
1.618326e+07
1.790491e+07
1.921631e+07
1.921436e+07
1.789896e+07
1.617276e+07
1.516852e+07
1.398625e+07
1.285896e+07
1.220633e+07
6443478
6248123
8393544
1.247051e+07
1.284038e+07
1.336373e+07
1.402149e+07
1.454573e+07
1.454484e+07
1.401798e+07
1.335686e+07
1.283155e+07
1.246475e+07
8388438
6243012
6061406
7940210
8354648
8621510
8784545
8783600
8621596
8353904
7937824
6055959
5136131
6712946
6976654
7069795
7068931
6974133
6706219
5127928
5163628
7216589
8101870
1.180607e+07
1.225209e+07
1.252386e+07
1.264537e+07
1.264445e+07
1.252053e+07
1.224661e+07
1.180577e+07
8103450
7221109
5172947
5904113
1.136695e+07
1.258823e+07
1.447645e+07
1.639863e+07
1.721096e+07
1.770311e+07
1.792841e+07
1.792755e+07
1.770043e+07
1.720671e+07
1.639489e+07
1.44773e+07
1.259144e+07
1.137549e+07
5915332
5406883
7796400
1.228485e+07
1.555174e+07
1.945185e+07
2.596897e+07
2.831906e+07
2.954058e+07
3.033024e+07
3.073412e+07
3.073238e+07
3.032529e+07
2.953327e+07
2.831053e+07
2.596273e+07
1.945217e+07
1.555972e+07
1.228996e+07
7802985
5411647
5475959
1.102031e+07
1.312195e+07
1.796694e+07
2.649941e+07
3.129259e+07
3.530883e+07
4.154755e+07
4.43883e+07
4.604935e+07
4.686185e+07
4.686028e+07
4.604572e+07
4.438447e+07
4.154586e+07
3.53153e+07
3.130154e+07
2.650839e+07
1.797032e+07
1.312941e+07
1.102593e+07
5481500
5400605
1.101925e+07
1.362451e+07
1.882277e+07
2.879533e+07
3.489901e+07
4.291083e+07
4.801024e+07
5.245562e+07
5.577749e+07
5.81137e+07
5.925512e+07
5.925432e+07
5.811326e+07
5.577534e+07
5.245261e+07
4.801049e+07
4.291193e+07
3.490411e+07
2.880261e+07
1.883107e+07
1.362947e+07
1.102529e+07
5407064
7790619
1.311406e+07
1.881781e+07
2.928625e+07
3.619518e+07
4.563072e+07
5.2471e+07
5.804485e+07
6.291798e+07
6.692737e+07
7.00871e+07
7.133816e+07
7.133905e+07
7.008945e+07
6.693247e+07
6.292695e+07
5.805738e+07
5.248317e+07
4.564527e+07
3.620738e+07
2.929288e+07
1.882601e+07
1.31243e+07
7798995
5902882
1.226672e+07
1.79455e+07
2.878036e+07
3.618048e+07
4.64328e+07
5.456338e+07
6.176541e+07
6.80338e+07
7.363325e+07
7.770238e+07
8.063179e+07
8.230593e+07
8.231101e+07
8.064624e+07
7.772517e+07
7.366263e+07
6.806641e+07
6.179723e+07
5.459749e+07
4.646267e+07
3.620627e+07
2.880337e+07
1.796279e+07
1.228058e+07
5909372
5153990
1.134585e+07
1.552421e+07
2.646125e+07
3.487069e+07
4.560432e+07
5.454576e+07
6.31406e+07
7.121711e+07
7.763754e+07
8.295056e+07
8.735524e+07
9.045556e+07
9.213734e+07
9.214656e+07
9.048231e+07
8.739753e+07
8.300378e+07
7.769428e+07
7.127242e+07
6.319501e+07
5.459312e+07
4.564511e+07
3.490324e+07
2.64833e+07
1.554517e+07
1.136409e+07
5161811
7200009
1.255878e+07
1.940753e+07
3.124462e+07
4.285349e+07
5.241742e+07
6.171727e+07
7.11869e+07
7.911997e+07
8.600315e+07
9.154155e+07
9.58389e+07
9.872835e+07
1.002119e+08
1.002241e+08
9.876387e+07
9.589464e+07
9.161057e+07
8.607674e+07
7.919137e+07
7.125265e+07
6.177462e+07
5.246808e+07
4.289551e+07
3.12691e+07
1.943438e+07
1.258027e+07
7212992
8077135
1.443335e+07
2.58944e+07
3.524808e+07
4.793193e+07
5.796641e+07
6.795834e+07
7.758211e+07
8.597633e+07
9.306983e+07
9.85433e+07
1.025722e+08
1.052261e+08
1.065574e+08
1.065692e+08
1.052604e+08
1.026252e+08
9.860786e+07
9.313772e+07
8.604106e+07
7.763969e+07
6.80094e+07
5.801247e+07
4.797491e+07
3.527894e+07
2.59396e+07
1.446097e+07
8094365
5115724
1.176757e+07
1.634142e+07
2.823335e+07
4.145873e+07
5.235834e+07
6.281844e+07
7.353969e+07
8.287464e+07
9.149181e+07
9.852023e+07
1.038307e+08
1.076503e+08
1.101338e+08
1.11365e+08
1.113729e+08
1.101575e+08
1.076864e+08
1.038732e+08
9.856306e+07
9.153032e+07
8.290911e+07
7.357422e+07
6.285467e+07
5.23994e+07
4.150009e+07
2.828317e+07
1.637495e+07
1.179034e+07
5130711
6683670
1.220568e+07
1.715185e+07
2.94521e+07
4.428475e+07
5.566593e+07
6.680555e+07
7.758429e+07
8.725079e+07
9.575988e+07
1.025218e+08
1.076253e+08
1.112842e+08
1.136555e+08
1.148277e+08
1.148321e+08
1.136688e+08
1.113031e+08
1.076483e+08
1.025493e+08
9.579377e+07
8.728993e+07
7.76277e+07
6.685653e+07
5.571764e+07
4.433882e+07
2.950512e+07
1.718571e+07
1.22334e+07
6701884
6949898
1.247674e+07
1.764102e+07
3.023993e+07
4.593469e+07
5.799055e+07
6.994868e+07
8.048765e+07
9.031817e+07
9.86142e+07
1.051431e+08
1.100805e+08
1.136311e+08
1.159326e+08
1.17069e+08
1.170736e+08
1.159472e+08
1.136559e+08
1.10116e+08
1.051881e+08
9.866606e+07
9.037356e+07
8.054497e+07
7.000807e+07
5.804847e+07
4.599941e+07
3.029705e+07
1.76801e+07
1.250686e+07
6966376
7045255
1.260119e+07
1.786717e+07
3.064385e+07
4.673917e+07
5.911597e+07
7.11829e+07
8.213664e+07
9.196601e+07
1.000605e+08
1.064391e+08
1.112833e+08
1.147805e+08
1.170462e+08
1.181622e+08
1.181623e+08
1.17051e+08
1.147943e+08
1.11311e+08
1.064815e+08
1.001129e+08
9.202354e+07
8.219367e+07
7.124037e+07
5.917753e+07
4.680638e+07
3.070091e+07
1.790707e+07
1.263085e+07
7061962
7045762
1.260239e+07
1.786795e+07
3.064464e+07
4.673451e+07
5.910464e+07
7.11698e+07
8.212409e+07
9.195137e+07
1.000396e+08
1.064177e+08
1.112703e+08
1.147763e+08
1.17046e+08
1.181603e+08
1.181538e+08
1.170346e+08
1.14772e+08
1.112856e+08
1.064557e+08
1.000888e+08
9.200246e+07
8.217467e+07
7.122181e+07
5.916175e+07
4.679473e+07
3.06939e+07
1.790398e+07
1.263001e+07
7062671
6953270
1.248227e+07
1.764473e+07
3.024316e+07
4.592312e+07
5.796515e+07
6.991926e+07
8.045193e+07
9.027636e+07
9.856628e+07
1.050957e+08
1.100434e+08
1.13609e+08
1.15922e+08
1.170595e+08
1.170528e+08
1.159097e+08
1.136033e+08
1.100534e+08
1.051222e+08
9.860347e+07
9.031882e+07
8.04977e+07
6.996565e+07
5.801371e+07
4.596944e+07
3.027535e+07
1.766979e+07
1.250183e+07
6965611
6692306
1.221531e+07
1.715836e+07
2.946053e+07
4.427236e+07
5.563961e+07
6.677086e+07
7.753778e+07
8.719479e+07
9.569874e+07
1.024641e+08
1.075794e+08
1.112536e+08
1.136364e+08
1.148112e+08
1.148079e+08
1.136303e+08
1.112499e+08
1.075836e+08
1.024789e+08
9.572343e+07
8.722703e+07
7.757592e+07
6.680942e+07
5.567842e+07
4.430481e+07
2.947373e+07
1.717125e+07
1.222597e+07
6699282
5128349
1.177767e+07
1.635554e+07
2.825227e+07
4.145281e+07
5.234138e+07
6.278622e+07
7.349701e+07
8.282243e+07
9.143533e+07
9.846773e+07
1.037876e+08
1.076165e+08
1.101033e+08
1.113292e+08
1.11325e+08
1.100936e+08
1.076048e+08
1.037784e+08
9.846524e+07
9.144171e+07
8.283756e+07
7.352143e+07
6.281693e+07
5.236843e+07
4.14744e+07
2.825012e+07
1.635987e+07
1.178429e+07
5128493
8086446
1.44479e+07
2.592055e+07
3.524637e+07
4.792777e+07
5.794601e+07
6.793087e+07
7.754675e+07
8.593691e+07
9.303036e+07
9.850526e+07
1.025317e+08
1.051761e+08
1.064886e+08
1.064807e+08
1.051547e+08
1.025016e+08
9.847254e+07
9.300174e+07
8.591692e+07
7.753828e+07
6.793595e+07
5.795945e+07
4.79369e+07
3.525871e+07
2.590697e+07
1.444522e+07
8087238
7204291
1.256988e+07
1.942423e+07
3.125248e+07
4.285905e+07
5.240659e+07
6.169889e+07
7.116394e+07
7.908908e+07
8.596469e+07
9.149331e+07
9.577457e+07
9.864205e+07
1.000968e+08
1.000858e+08
9.861086e+07
9.572849e+07
9.143979e+07
8.591287e+07
7.904521e+07
7.113215e+07
6.168308e+07
5.239856e+07
4.284883e+07
3.125387e+07
1.941392e+07
1.25666e+07
7207232
5152066
1.135803e+07
1.55381e+07
2.647314e+07
3.487674e+07
4.559655e+07
5.452841e+07
6.311437e+07
7.117499e+07
7.757974e+07
8.287476e+07
8.725379e+07
9.032614e+07
9.197799e+07
9.196713e+07
9.029354e+07
8.720408e+07
8.281561e+07
7.75217e+07
7.112286e+07
6.307161e+07
5.44975e+07
4.557247e+07
3.485115e+07
2.646508e+07
1.55253e+07
1.134948e+07
5159054
5899713
1.227502e+07
1.795176e+07
2.877631e+07
3.617418e+07
4.641099e+07
5.452593e+07
6.170423e+07
6.794988e+07
7.352629e+07
7.756754e+07
8.046935e+07
8.21171e+07
8.210861e+07
8.044256e+07
7.752549e+07
7.347607e+07
6.790077e+07
6.165837e+07
5.448512e+07
4.637779e+07
3.614889e+07
2.875883e+07
1.793869e+07
1.226381e+07
5899184
7789728
1.311531e+07
1.881403e+07
2.927167e+07
3.616463e+07
4.558674e+07
5.240175e+07
5.794909e+07
6.279112e+07
6.677388e+07
6.991224e+07
7.114523e+07
7.113857e+07
6.989208e+07
6.674399e+07
6.275685e+07
5.791102e+07
5.236445e+07
4.555216e+07
3.613689e+07
2.924811e+07
1.879454e+07
1.310154e+07
7783820
5401856
1.101723e+07
1.361733e+07
1.880804e+07
2.8771e+07
3.485997e+07
4.283654e+07
4.791189e+07
5.232967e+07
5.562842e+07
5.794672e+07
5.907332e+07
5.906872e+07
5.79353e+07
5.560903e+07
5.23055e+07
4.788673e+07
4.281409e+07
3.48358e+07
2.874783e+07
1.879039e+07
1.3603e+07
1.100514e+07
5398404
5471305
1.101612e+07
1.311093e+07
1.793747e+07
2.644572e+07
3.121892e+07
3.5224e+07
4.142893e+07
4.424759e+07
4.589538e+07
4.669834e+07
4.669496e+07
4.589186e+07
4.424203e+07
4.141853e+07
3.520784e+07
3.120929e+07
2.643582e+07
1.792467e+07
1.309783e+07
1.100466e+07
5466531
5398968
7787369
1.226106e+07
1.551824e+07
1.939414e+07
2.588306e+07
2.821148e+07
2.941959e+07
3.020531e+07
3.06225e+07
3.061678e+07
3.021071e+07
2.942709e+07
2.821597e+07
2.588358e+07
1.938941e+07
1.550841e+07
1.225349e+07
7778544
5395129
5896007
1.133968e+07
1.254999e+07
1.442418e+07
1.632806e+07
1.713038e+07
1.761815e+07
1.784547e+07
1.783939e+07
1.761864e+07
1.712972e+07
1.632561e+07
1.441888e+07
1.254199e+07
1.133486e+07
5889611
5146743
7193949
8070839
1.175592e+07
1.219085e+07
1.245905e+07
1.258953e+07
1.258733e+07
1.245753e+07
1.218738e+07
1.175331e+07
8066781
7188495
5145787
5114333
6675996
6937563
7034461
7033702
6936440
6673003
5105573
4639256
5984034
6189795
6189516
5980367
4638348
4417239
6426971
7444796
8835351
1.266725e+07
1.331532e+07
1.354813e+07
1.354453e+07
1.330641e+07
1.265704e+07
8840633
7453876
6434919
4426564
4456773
6845404
1.156718e+07
1.412345e+07
1.664977e+07
2.213356e+07
2.43394e+07
2.514957e+07
2.553605e+07
2.552985e+07
2.513522e+07
2.433209e+07
2.21441e+07
1.665961e+07
1.413096e+07
1.158079e+07
6858302
4471488
5173570
1.078519e+07
1.484178e+07
2.245791e+07
2.594338e+07
2.939313e+07
3.263613e+07
3.795408e+07
3.995468e+07
4.074245e+07
4.073713e+07
3.994181e+07
3.794255e+07
3.263272e+07
2.939199e+07
2.595038e+07
2.246158e+07
1.486479e+07
1.080322e+07
5191132
5713369
1.252441e+07
1.772127e+07
2.631443e+07
3.201362e+07
3.961149e+07
4.455419e+07
4.830971e+07
5.144639e+07
5.335633e+07
5.423247e+07
5.422717e+07
5.33426e+07
5.143079e+07
4.830091e+07
4.455783e+07
3.96276e+07
3.203592e+07
2.633062e+07
1.774762e+07
1.254264e+07
5727517
6013160
1.414328e+07
2.334802e+07
2.932025e+07
3.538787e+07
4.543864e+07
5.264336e+07
5.85557e+07
6.259764e+07
6.56089e+07
6.754539e+07
6.847949e+07
6.847331e+07
6.75288e+07
6.558779e+07
6.258013e+07
5.85487e+07
5.265127e+07
4.546448e+07
3.541713e+07
2.933961e+07
2.336572e+07
1.415622e+07
6022014
5712368
1.414157e+07
2.464905e+07
3.172177e+07
4.168967e+07
5.007903e+07
5.871796e+07
6.577183e+07
7.163478e+07
7.652516e+07
8.009886e+07
8.237414e+07
8.347556e+07
8.346836e+07
8.235479e+07
8.007399e+07
7.650393e+07
7.162526e+07
6.577526e+07
5.87344e+07
5.009804e+07
4.170808e+07
3.173601e+07
2.465128e+07
1.415282e+07
5720770
5171914
1.251478e+07
2.334471e+07
3.17128e+07
4.289629e+07
5.283193e+07
6.232453e+07
7.059675e+07
7.824666e+07
8.472277e+07
9.004431e+07
9.39889e+07
9.65664e+07
9.782064e+07
9.781339e+07
9.654699e+07
9.396271e+07
9.001959e+07
8.470748e+07
7.824239e+07
7.060445e+07
6.233895e+07
5.284904e+07
4.291359e+07
3.17322e+07
2.336235e+07
1.253326e+07
5181885
4452336
1.077136e+07
1.771219e+07
2.929768e+07
4.166929e+07
5.28194e+07
6.353907e+07
7.294982e+07
8.198384e+07
9.017269e+07
9.708776e+07
1.027382e+08
1.070294e+08
1.098967e+08
1.11254e+08
1.1125e+08
1.098848e+08
1.070139e+08
1.027256e+08
9.70832e+07
9.017636e+07
8.199692e+07
7.296874e+07
6.35599e+07
5.284501e+07
4.169824e+07
2.932745e+07
1.774042e+07
1.079384e+07
4461595
6835709
1.482666e+07
2.627191e+07
3.536428e+07
5.004107e+07
6.229199e+07
7.292912e+07
8.316496e+07
9.274411e+07
1.012964e+08
1.085895e+08
1.145503e+08
1.190642e+08
1.221196e+08
1.236802e+08
1.236815e+08
1.221241e+08
1.190741e+08
1.145677e+08
1.086144e+08
1.013272e+08
9.278163e+07
8.320585e+07
7.297104e+07
6.233494e+07
5.008126e+07
3.53998e+07
2.63158e+07
1.485751e+07
6854648
4413886
1.154175e+07
2.240671e+07
3.196373e+07
4.538747e+07
5.865236e+07
7.053439e+07
8.193133e+07
9.271002e+07
1.026452e+08
1.115113e+08
1.190539e+08
1.252306e+08
1.300431e+08
1.333551e+08
1.350662e+08
1.350749e+08
1.333811e+08
1.300859e+08
1.252879e+08
1.191205e+08
1.115822e+08
1.027188e+08
9.278203e+07
8.199952e+07
7.059635e+07
5.87053e+07
4.543464e+07
3.200098e+07
2.245718e+07
1.157174e+07
4431481
6408568
1.408706e+07
2.587794e+07
3.954289e+07
5.255415e+07
6.567024e+07
7.814191e+07
9.007445e+07
1.012132e+08
1.114605e+08
1.205247e+08
1.283893e+08
1.348653e+08
1.398679e+08
1.432708e+08
1.450072e+08
1.450227e+08
1.433161e+08
1.399397e+08
1.349566e+08
1.284911e+08
1.206285e+08
1.115615e+08
1.013079e+08
9.016097e+07
7.821851e+07
6.573485e+07
5.261392e+07
3.958948e+07
2.592513e+07
1.412159e+07
6430520
7427258
1.660812e+07
2.932475e+07
4.446588e+07
5.842944e+07
7.149702e+07
8.457558e+07
9.694234e+07
1.084565e+08
1.189529e+08
1.283384e+08
1.3649e+08
1.431305e+08
1.481688e+08
1.515541e+08
1.532647e+08
1.532819e+08
1.516042e+08
1.482461e+08
1.432262e+08
1.365935e+08
1.284407e+08
1.190484e+08
1.085445e+08
9.702573e+07
8.465558e+07
7.157036e+07
5.850152e+07
4.451876e+07
2.936707e+07
1.664013e+07
7443764
8814170
2.209226e+07
3.257107e+07
4.820151e+07
6.244537e+07
7.635217e+07
8.986033e+07
1.025533e+08
1.14377e+08
1.25087e+08
1.347701e+08
1.430865e+08
1.497748e+08
1.547822e+08
1.581156e+08
1.597873e+08
1.597999e+08
1.581532e+08
1.548396e+08
1.49843e+08
1.431564e+08
1.348352e+08
1.251492e+08
1.144423e+08
1.026258e+08
8.994013e+07
7.643484e+07
6.252615e+07
4.826239e+07
3.260871e+07
2.210966e+07
8827296
4628924
1.262826e+07
2.429078e+07
3.787118e+07
5.132004e+07
6.543791e+07
7.990012e+07
9.377949e+07
1.068137e+08
1.188531e+08
1.29855e+08
1.397252e+08
1.480789e+08
1.547391e+08
1.596915e+08
1.629712e+08
1.646092e+08
1.646168e+08
1.629936e+08
1.597234e+08
1.547772e+08
1.481245e+08
1.397813e+08
1.299209e+08
1.189287e+08
1.069005e+08
9.387539e+07
8.000327e+07
6.553264e+07
5.13908e+07
3.79157e+07
2.431106e+07
1.264803e+07
4635671
5961928
1.327631e+07
2.509153e+07
3.985989e+07
5.32184e+07
6.73642e+07
8.216004e+07
9.633914e+07
1.096577e+08
1.218721e+08
1.331195e+08
1.430748e+08
1.51412e+08
1.580243e+08
1.629284e+08
1.661685e+08
1.677828e+08
1.677898e+08
1.661897e+08
1.629646e+08
1.580763e+08
1.514781e+08
1.431524e+08
1.33205e+08
1.219633e+08
1.097554e+08
9.644836e+07
8.22815e+07
6.747549e+07
5.330494e+07
3.991729e+07
2.5121e+07
1.32971e+07
5977549
6171840
1.351222e+07
2.547411e+07
4.064602e+07
5.409466e+07
6.829785e+07
8.325597e+07
9.758e+07
1.109968e+08
1.234031e+08
1.347863e+08
1.447577e+08
1.530687e+08
1.596499e+08
1.645296e+08
1.677487e+08
1.693481e+08
1.6935e+08
1.677576e+08
1.64552e+08
1.596928e+08
1.531315e+08
1.448354e+08
1.34872e+08
1.234902e+08
1.110896e+08
9.768918e+07
8.3379e+07
6.841404e+07
5.418981e+07
4.071554e+07
2.551898e+07
1.353899e+07
6188047
6171158
1.351414e+07
2.548182e+07
4.065122e+07
5.409936e+07
6.830018e+07
8.325268e+07
9.756851e+07
1.109812e+08
1.233873e+08
1.347677e+08
1.447306e+08
1.530374e+08
1.5963e+08
1.645222e+08
1.67748e+08
1.693464e+08
1.693406e+08
1.677379e+08
1.645234e+08
1.596585e+08
1.530953e+08
1.448007e+08
1.348408e+08
1.234619e+08
1.110626e+08
9.766404e+07
8.335749e+07
6.839881e+07
5.418323e+07
4.071601e+07
2.552432e+07
1.354252e+07
6188259
5966764
1.328176e+07
2.509928e+07
3.986983e+07
5.323061e+07
6.73715e+07
8.215241e+07
9.631015e+07
1.096178e+08
1.218265e+08
1.330651e+08
1.4301e+08
1.513443e+08
1.579686e+08
1.628932e+08
1.661509e+08
1.677697e+08
1.677653e+08
1.661445e+08
1.628977e+08
1.579928e+08
1.513866e+08
1.430623e+08
1.331236e+08
1.218916e+08
1.096898e+08
9.638877e+07
8.222996e+07
6.743886e+07
5.328846e+07
3.991559e+07
2.513087e+07
1.330377e+07
5980110
4639218
1.262905e+07
2.429116e+07
3.788178e+07
5.133668e+07
6.545192e+07
7.989432e+07
9.374816e+07
1.067649e+08
1.1879e+08
1.297793e+08
1.396405e+08
1.479951e+08
1.546683e+08
1.596399e+08
1.62935e+08
1.645773e+08
1.64577e+08
1.629365e+08
1.596477e+08
1.54686e+08
1.48023e+08
1.396767e+08
1.29824e+08
1.188453e+08
1.068275e+08
9.381139e+07
7.994829e+07
6.549112e+07
5.137188e+07
3.791098e+07
2.431646e+07
1.26465e+07
4647129
8820144
2.208525e+07
3.258379e+07
4.822238e+07
6.24687e+07
7.635534e+07
8.984157e+07
1.025122e+08
1.143169e+08
1.250118e+08
1.34687e+08
1.430066e+08
1.497053e+08
1.547229e+08
1.580585e+08
1.597223e+08
1.597191e+08
1.580509e+08
1.547149e+08
1.497018e+08
1.430112e+08
1.347015e+08
1.250371e+08
1.143546e+08
1.025578e+08
8.988477e+07
7.638851e+07
6.248609e+07
4.8243e+07
3.260118e+07
2.210973e+07
8827318
7430215
1.661864e+07
2.934254e+07
4.448555e+07
5.845904e+07
7.150981e+07
8.457301e+07
9.691788e+07
1.084139e+08
1.188953e+08
1.282726e+08
1.364223e+08
1.430615e+08
1.480929e+08
1.514622e+08
1.531477e+08
1.531372e+08
1.514336e+08
1.48053e+08
1.430195e+08
1.36387e+08
1.282502e+08
1.188887e+08
1.084223e+08
9.693459e+07
8.458808e+07
7.152143e+07
5.845808e+07
4.449677e+07
2.935148e+07
1.662516e+07
7433883
6417352
1.4102e+07
2.590401e+07
3.956032e+07
5.258024e+07
6.569102e+07
7.815114e+07
9.006283e+07
1.011837e+08
1.11416e+08
1.204651e+08
1.283141e+08
1.347706e+08
1.397467e+08
1.431164e+08
1.448162e+08
1.448e+08
1.430707e+08
1.396798e+08
1.346943e+08
1.282406e+08
1.204035e+08
1.113719e+08
1.011571e+08
9.004554e+07
7.813606e+07
6.568155e+07
5.25693e+07
3.956477e+07
2.589964e+07
1.410144e+07
6416358
4420727
1.155371e+07
2.24396e+07
3.197523e+07
4.540044e+07
5.867003e+07
7.054425e+07
8.192332e+07
9.268259e+07
1.025947e+08
1.114315e+08
1.189422e+08
1.250831e+08
1.298559e+08
1.331277e+08
1.348021e+08
1.347852e+08
1.330793e+08
1.297834e+08
1.24998e+08
1.188561e+08
1.113527e+08
1.02528e+08
9.262942e+07
8.188008e+07
7.050835e+07
5.864854e+07
4.538771e+07
3.197725e+07
2.241724e+07
1.155244e+07
4418611
6840914
1.483266e+07
2.629354e+07
3.536072e+07
5.005114e+07
6.229322e+07
7.291448e+07
8.312681e+07
9.267391e+07
1.011856e+08
1.084354e+08
1.143516e+08
1.188218e+08
1.218386e+08
1.233691e+08
1.233552e+08
1.217982e+08
1.187608e+08
1.142793e+08
1.083606e+08
1.011139e+08
9.260773e+07
8.306807e+07
7.28639e+07
6.225354e+07
5.00245e+07
3.535289e+07
2.628071e+07
1.482777e+07
6838858
4450847
1.077866e+07
1.77176e+07
2.931724e+07
4.167983e+07
5.281379e+07
6.351475e+07
7.290077e+07
8.189977e+07
9.004273e+07
9.690915e+07
1.025104e+08
1.06759e+08
1.095942e+08
1.109309e+08
1.109204e+08
1.095642e+08
1.067135e+08
1.024558e+08
9.685026e+07
8.998391e+07
8.184171e+07
7.284654e+07
6.346645e+07
5.277251e+07
4.164558e+07
2.92925e+07
1.770551e+07
1.077348e+07
4456239
5168885
1.252299e+07
2.335563e+07
3.171063e+07
4.288035e+07
5.280172e+07
6.227154e+07
7.050893e+07
7.810959e+07
8.453746e+07
8.981158e+07
9.371691e+07
9.626757e+07
9.750664e+07
9.749912e+07
9.624727e+07
9.368539e+07
8.977207e+07
8.449378e+07
7.806536e+07
7.046109e+07
6.222531e+07
5.276369e+07
4.285e+07
3.168966e+07
2.332873e+07
1.251133e+07
5170827
5709031
1.413878e+07
2.465387e+07
3.169974e+07
4.166147e+07
5.0025e+07
5.862821e+07
6.563599e+07
7.145622e+07
7.630326e+07
7.984198e+07
8.209601e+07
8.318744e+07
8.31817e+07
8.208383e+07
7.982377e+07
7.627901e+07
7.142751e+07
6.560691e+07
5.859327e+07
4.999044e+07
4.16357e+07
3.16811e+07
2.463528e+07
1.412874e+07
5706650
6007545
1.413598e+07
2.335088e+07
2.930159e+07
3.535009e+07
4.536648e+07
5.252585e+07
5.839439e+07
6.240153e+07
6.538479e+07
6.730632e+07
6.823838e+07
6.823221e+07
6.729894e+07
6.537487e+07
6.23887e+07
5.838072e+07
5.250868e+07
4.534124e+07
3.532095e+07
2.928659e+07
2.333929e+07
1.412935e+07
6004763
5706118
1.251239e+07
1.771075e+07
2.62729e+07
3.193978e+07
3.951296e+07
4.443016e+07
4.816314e+07
5.127535e+07
5.316951e+07
5.40367e+07
5.402998e+07
5.315964e+07
5.126253e+07
4.814952e+07
4.442202e+07
3.951064e+07
3.194159e+07
2.626568e+07
1.770103e+07
1.251273e+07
5704276
5165580
1.076787e+07
1.482001e+07
2.240148e+07
2.586172e+07
2.929502e+07
3.253766e+07
3.782949e+07
3.981479e+07
4.059317e+07
4.058941e+07
3.981043e+07
3.782549e+07
3.2533e+07
2.930364e+07
2.587893e+07
2.241028e+07
1.481319e+07
1.076694e+07
5163064
4444100
6830700
1.153161e+07
1.407116e+07
1.658651e+07
2.205743e+07
2.425578e+07
2.505805e+07
2.543961e+07
2.543502e+07
2.50582e+07
2.426295e+07
2.207318e+07
1.659996e+07
1.408279e+07
1.153803e+07
6829218
4446360
4413866
6398826
7413020
8800253
1.260537e+07
1.325386e+07
1.348893e+07
1.348764e+07
1.325582e+07
1.261232e+07
8804663
7420763
6406201
4405964
4626911
5951144
6158888
6158137
5951244
4621257
3737211
5330812
6471143
7143238
7358404
7367613
7167928
6518722
5373129
3752411
3894138
6519322
8087937
1.189991e+07
1.428729e+07
1.925531e+07
2.059255e+07
2.105797e+07
2.104894e+07
2.058322e+07
1.925389e+07
1.430197e+07
1.192854e+07
8096874
6536599
3901221
5892673
1.247103e+07
1.894008e+07
2.191986e+07
2.487201e+07
2.797671e+07
3.079664e+07
3.552406e+07
3.69582e+07
3.694926e+07
3.550906e+07
3.078757e+07
2.796164e+07
2.487848e+07
2.19552e+07
1.897924e+07
1.249267e+07
5899556
4405580
8733322
1.91053e+07
2.495174e+07
2.981487e+07
3.712931e+07
4.203057e+07
4.639206e+07