/*--------------------------------*- C++ -*----------------------------------*\
  =========                 |
  \\      /  F ield         | OpenFOAM: The Open Source CFD Toolbox
   \\    /   O peration     | Website:  https://openfoam.org
    \\  /    A nd           | Version:  6
     \\/     M anipulation  |
\*---------------------------------------------------------------------------*/
FoamFile
{
    version     2.0;
    format      ascii;
    class       volScalarField;
    location    "50/region0/neutronTransport";
    object      flux1;
}
// * * * * * * * * * * * * * * * * * * * * * * * * * * * * * * * * * * * * * //

dimensions      [0 -2 -1 0 0 0 0];

internalField   nonuniform List<scalar> 
203709
(
1.298674e+17
1.438433e+17
1.438324e+17
1.299143e+17
1.358201e+17
1.531192e+17
1.921806e+17
1.899761e+17
1.899631e+17
1.921999e+17
1.531471e+17
1.358717e+17
1.325816e+17
1.536327e+17
1.945671e+17
1.937714e+17
1.994674e+17
2.008771e+17
2.008824e+17
1.994917e+17
1.938091e+17
1.94629e+17
1.536985e+17
1.326521e+17
1.325725e+17
1.890132e+17
1.928792e+17
2.005916e+17
2.04559e+17
2.080845e+17
2.096472e+17
2.096666e+17
2.081115e+17
2.046004e+17
2.006584e+17
1.929603e+17
1.891131e+17
1.326537e+17
1.535863e+17
1.928501e+17
2.017076e+17
2.079572e+17
2.12692e+17
2.161227e+17
2.178353e+17
2.178525e+17
2.161454e+17
2.127333e+17
2.080205e+17
2.017795e+17
1.929308e+17
1.536564e+17
1.357341e+17
1.94475e+17
2.005381e+17
2.07929e+17
2.143636e+17
2.194424e+17
2.229701e+17
2.247226e+17
2.247316e+17
2.229942e+17
2.194867e+17
2.144115e+17
2.079876e+17
2.00612e+17
1.945639e+17
1.357881e+17
1.529819e+17
1.936375e+17
2.044631e+17
2.126249e+17
2.194142e+17
2.24689e+17
2.282021e+17
2.298627e+17
2.298684e+17
2.282268e+17
2.247166e+17
2.19449e+17
2.126887e+17
2.045474e+17
1.937303e+17
1.530704e+17
1.29758e+17
1.920117e+17
1.993187e+17
2.079681e+17
2.160459e+17
2.229235e+17
2.281869e+17
2.314467e+17
2.330658e+17
2.330706e+17
2.31466e+17
2.282066e+17
2.229653e+17
2.161127e+17
2.080561e+17
1.994241e+17
1.92144e+17
1.298133e+17
1.436591e+17
1.897591e+17
2.006827e+17
2.095041e+17
2.1773e+17
2.246483e+17
2.298303e+17
2.330538e+17
2.348164e+17
2.347658e+17
2.330531e+17
2.298495e+17
2.246947e+17
2.177932e+17
2.095854e+17
2.007949e+17
1.898731e+17
1.437426e+17
1.436683e+17
1.897866e+17
2.006837e+17
2.094805e+17
2.17708e+17
2.246361e+17
2.298161e+17
2.330456e+17
2.348491e+17
2.347907e+17
2.330375e+17
2.298239e+17
2.246624e+17
2.177691e+17
2.095631e+17
2.00775e+17
1.898782e+17
1.437557e+17
1.297042e+17
1.9201e+17
1.99292e+17
2.079289e+17
2.160045e+17
2.228878e+17
2.281594e+17
2.314331e+17
2.330602e+17
2.330385e+17
2.31419e+17
2.281586e+17
2.229028e+17
2.160461e+17
2.0799e+17
1.99363e+17
1.920702e+17
1.29791e+17
1.529369e+17
1.935934e+17
2.044214e+17
2.125911e+17
2.193756e+17
2.246577e+17
2.28176e+17
2.298494e+17
2.298265e+17
2.281728e+17
2.246504e+17
2.193788e+17
2.12606e+17
2.04453e+17
1.9365e+17
1.530104e+17
1.356895e+17
1.944262e+17
2.004808e+17
2.078803e+17
2.143139e+17
2.194033e+17
2.229209e+17
2.246897e+17
2.246747e+17
2.229258e+17
2.193978e+17
2.143166e+17
2.07892e+17
2.005096e+17
1.944714e+17
1.357355e+17
1.535421e+17
1.927953e+17
2.016592e+17
2.079124e+17
2.12644e+17
2.160752e+17
2.178742e+17
2.178629e+17
2.160586e+17
2.126265e+17
2.078976e+17
2.016566e+17
1.928217e+17
1.535728e+17
1.325493e+17
1.889874e+17
1.928324e+17
2.005408e+17
2.044862e+17
2.080026e+17
2.096344e+17
2.096268e+17
2.079821e+17
2.044594e+17
2.005045e+17
1.927975e+17
1.88968e+17
1.325263e+17
1.325679e+17
1.535886e+17
1.944902e+17
1.936497e+17
1.99346e+17
2.007856e+17
2.007946e+17
1.99328e+17
1.936343e+17
1.944467e+17
1.535319e+17
1.325204e+17
1.357326e+17
1.529851e+17
1.920283e+17
1.898769e+17
1.898996e+17
1.92016e+17
1.529652e+17
1.357015e+17
1.297375e+17
1.436672e+17
1.436768e+17
1.297349e+17
1.086336e+17
1.24392e+17
1.295914e+17
1.33154e+17
1.353872e+17
1.353914e+17
1.331669e+17
1.296094e+17
1.244169e+17
1.086704e+17
1.108597e+17
1.302156e+17
1.682388e+17
1.737126e+17
1.801205e+17
1.873021e+17
1.930014e+17
1.930097e+17
1.873349e+17
1.801377e+17
1.737014e+17
1.682133e+17
1.301784e+17
1.108396e+17
1.134576e+17
1.653068e+17
1.746334e+17
1.884397e+17
2.016619e+17
2.12726e+17
2.273793e+17
2.393712e+17
2.393784e+17
2.274059e+17
2.127117e+17
2.01627e+17
1.884288e+17
1.746289e+17
1.653484e+17
1.134846e+17
1.145699e+17
1.683889e+17
1.838037e+17
2.008478e+17
2.186246e+17
2.444782e+17
2.766783e+17
3.097537e+17
3.21313e+17
3.213193e+17
3.09745e+17
2.76681e+17
2.445044e+17
2.186703e+17
2.008979e+17
1.838608e+17
1.684309e+17
1.146247e+17
1.134165e+17
1.683416e+17
1.856659e+17
2.056589e+17
2.395475e+17
2.806223e+17
3.259529e+17
3.585766e+17
3.829176e+17
4.221952e+17
4.22201e+17
3.829577e+17
3.586254e+17
3.259982e+17
2.807047e+17
2.396182e+17
2.057535e+17
1.857433e+17
1.684165e+17
1.134901e+17
1.108068e+17
1.652755e+17
1.837506e+17
2.056361e+17
2.522737e+17
3.155577e+17
3.58272e+17
3.934468e+17
4.498878e+17
4.751534e+17
4.90078e+17
4.900876e+17
4.751859e+17
4.499405e+17
3.935255e+17
3.583566e+17
3.156278e+17
2.52364e+17
2.057146e+17
1.838403e+17
1.653697e+17
1.108859e+17
1.300922e+17
1.745167e+17
2.007484e+17
2.394724e+17
3.155076e+17
3.753406e+17
4.430161e+17
4.804179e+17
5.096357e+17
5.27676e+17
5.368779e+17
5.368903e+17
5.277097e+17
5.09702e+17
4.805129e+17
4.431194e+17
3.754464e+17
3.156146e+17
2.395719e+17
2.00868e+17
1.746391e+17
1.301897e+17
1.085762e+17
1.680949e+17
1.882778e+17
2.184921e+17
2.804902e+17
3.582149e+17
4.429768e+17
4.93737e+17
5.264307e+17
5.490323e+17
5.633889e+17
5.704861e+17
5.705009e+17
5.634285e+17
5.491102e+17
5.265415e+17
4.938684e+17
4.431266e+17
3.583722e+17
2.806589e+17
2.186385e+17
1.883979e+17
1.681817e+17
1.086147e+17
1.243051e+17
1.736002e+17
2.014831e+17
2.443368e+17
3.258621e+17
3.933756e+17
4.803485e+17
5.263904e+17
5.56023e+17
5.760046e+17
5.886431e+17
5.948159e+17
5.948316e+17
5.886905e+17
5.760897e+17
5.561376e+17
5.265305e+17
4.805069e+17
3.935356e+17
3.260156e+17
2.444312e+17
2.01594e+17
1.736694e+17
1.243466e+17
1.294832e+17
1.800099e+17
2.125368e+17
2.764527e+17
3.58455e+17
4.497555e+17
5.095151e+17
5.489431e+17
5.759611e+17
5.945e+17
6.062742e+17
6.120436e+17
6.120581e+17
6.06322e+17
5.945762e+17
5.760659e+17
5.490812e+17
5.096736e+17
4.49906e+17
3.585464e+17
2.766215e+17
2.126824e+17
1.800818e+17
1.295415e+17
1.330184e+17
1.871753e+17
2.272317e+17
3.095834e+17
3.827681e+17
4.749873e+17
5.275141e+17
5.632609e+17
5.885624e+17
6.062403e+17
6.174837e+17
6.230065e+17
6.230119e+17
6.175164e+17
6.06297e+17
5.886551e+17
5.633952e+17
5.276771e+17
4.751524e+17
3.829045e+17
3.097459e+17
2.273425e+17
1.872716e+17
1.331167e+17
1.352157e+17
1.928076e+17
2.391553e+17
3.211142e+17
4.219861e+17
4.898648e+17
5.366797e+17
5.703226e+17
5.946989e+17
6.119805e+17
6.229873e+17
6.284263e+17
6.284039e+17
6.230019e+17
6.120332e+17
5.947933e+17
5.704561e+17
5.368442e+17
4.900463e+17
4.221609e+17
3.212843e+17
2.393136e+17
1.929547e+17
1.353434e+17
1.351867e+17
1.92756e+17
2.390956e+17
3.210661e+17
4.219665e+17
4.898533e+17
5.36665e+17
5.703046e+17
5.946806e+17
6.119616e+17
6.22978e+17
6.284413e+17
6.28417e+17
6.229961e+17
6.120196e+17
5.947751e+17
5.704369e+17
5.368267e+17
4.900362e+17
4.221537e+17
3.212408e+17
2.392614e+17
1.929124e+17
1.353157e+17
1.329454e+17
1.870862e+17
2.271787e+17
3.095494e+17
3.826895e+17
4.749388e+17
5.274722e+17
5.632154e+17
5.885155e+17
6.061971e+17
6.174548e+17
6.229972e+17
6.229926e+17
6.174842e+17
6.062603e+17
5.886106e+17
5.633445e+17
5.276292e+17
4.751197e+17
3.828822e+17
3.09712e+17
2.273268e+17
1.872377e+17
1.330635e+17
1.29415e+17
1.799412e+17
2.125232e+17
2.764369e+17
3.583784e+17
4.496953e+17
5.094576e+17
5.488844e+17
5.758991e+17
5.944431e+17
6.062267e+17
6.120123e+17
6.120116e+17
6.062633e+17
5.945055e+17
5.759878e+17
5.490023e+17
5.096017e+17
4.498576e+17
3.585574e+17
2.765527e+17
2.126248e+17
1.800801e+17
1.295195e+17
1.242586e+17
1.735607e+17
2.014806e+17
2.442841e+17
3.25841e+17
3.933376e+17
4.802931e+17
5.263244e+17
5.559506e+17
5.759385e+17
5.885819e+17
5.947622e+17
5.947632e+17
5.886175e+17
5.759973e+17
5.560316e+17
5.264277e+17
4.804096e+17
3.934319e+17
3.259318e+17
2.444049e+17
2.015617e+17
1.736747e+17
1.243441e+17
1.085438e+17
1.680881e+17
1.882859e+17
2.184599e+17
2.804989e+17
3.58195e+17
4.42938e+17
4.936806e+17
5.263672e+17
5.48966e+17
5.633262e+17
5.704047e+17
5.704058e+17
5.633455e+17
5.490051e+17
5.264222e+17
4.937524e+17
4.430137e+17
3.582426e+17
2.805438e+17
2.18548e+17
1.883405e+17
1.681665e+17
1.086117e+17
1.301258e+17
1.745208e+17
2.007232e+17
2.394564e+17
3.155038e+17
3.75312e+17
4.429713e+17
4.803677e+17
5.095673e+17
5.276031e+17
5.367556e+17
5.367572e+17
5.276081e+17
5.095802e+17
4.80384e+17
4.430008e+17
3.753391e+17
3.155085e+17
2.394755e+17
2.00787e+17
1.74549e+17
1.301226e+17
1.10836e+17
1.652558e+17
1.83733e+17
2.05617e+17
2.522548e+17
3.155185e+17
3.582451e+17
3.934244e+17
4.498163e+17
4.750771e+17
4.899517e+17
4.899619e+17
4.750735e+17
4.498047e+17
3.933887e+17
3.582329e+17
3.155173e+17
2.522349e+17
2.056066e+17
1.837587e+17
1.652678e+17
1.107896e+17
1.134408e+17
1.6838e+17
1.856685e+17
2.056111e+17
2.39463e+17
2.805364e+17
3.259153e+17
3.584988e+17
3.828086e+17
4.220238e+17
4.22041e+17
3.828028e+17
3.584578e+17
3.258418e+17
2.804994e+17
2.394383e+17
2.05581e+17
1.856365e+17
1.683603e+17
1.13405e+17
1.145753e+17
1.683578e+17
1.837372e+17
2.007663e+17
2.185161e+17
2.442971e+17
2.764785e+17
3.096146e+17
3.211293e+17
3.211297e+17
3.095676e+17
2.764313e+17
2.442804e+17
2.184578e+17
2.007031e+17
1.83685e+17
1.683192e+17
1.145456e+17
1.133865e+17
1.652494e+17
1.745218e+17
1.882733e+17
2.014568e+17
2.125443e+17
2.272125e+17
2.391571e+17
2.391491e+17
2.271806e+17
2.124784e+17
2.014246e+17
1.882553e+17
1.744847e+17
1.65196e+17
1.133549e+17
1.108038e+17
1.300963e+17
1.680795e+17
1.735716e+17
1.799762e+17
1.871314e+17
1.928048e+17
1.928022e+17
1.871144e+17
1.799337e+17
1.735201e+17
1.680718e+17
1.30083e+17
1.107742e+17
1.085171e+17
1.242379e+17
1.294069e+17
1.329463e+17
1.351761e+17
1.351719e+17
1.329616e+17
1.294188e+17
1.242359e+17
1.084952e+17
9.196331e+16
1.050814e+17
1.082808e+17
1.094993e+17
1.09479e+17
1.082197e+17
1.049677e+17
9.187902e+16
9.185376e+16
1.112105e+17
1.221749e+17
1.560894e+17
1.620021e+17
1.65461e+17
1.670333e+17
1.670139e+17
1.653978e+17
1.619002e+17
1.560599e+17
1.221691e+17
1.11228e+17
9.192591e+16
1.015341e+17
1.51148e+17
1.660002e+17
1.838648e+17
2.033264e+17
2.12259e+17
2.177326e+17
2.20297e+17
2.202807e+17
2.176835e+17
2.121811e+17
2.032474e+17
1.838339e+17
1.659964e+17
1.5118e+17
1.016259e+17
9.496568e+16
1.192377e+17
1.627737e+17
1.949603e+17
2.299243e+17
2.700324e+17
2.89946e+17
3.014341e+17
3.090667e+17
3.130234e+17
3.130038e+17
3.090114e+17
3.013521e+17
2.898525e+17
2.699552e+17
2.298856e+17
1.949916e+17
1.627847e+17
1.192842e+17
9.500643e+16
9.586614e+16
1.479433e+17
1.725116e+17
2.168156e+17
2.750386e+17
3.156638e+17
3.496602e+17
4.031482e+17
4.280843e+17
4.427784e+17
4.500912e+17
4.500763e+17
4.427438e+17
4.280468e+17
4.031329e+17
3.497071e+17
3.157262e+17
2.750833e+17
2.168126e+17
1.725675e+17
1.479678e+17
9.589823e+16
9.49394e+16
1.479564e+17
1.783141e+17
2.257867e+17
2.956001e+17
3.463964e+17
4.152178e+17
4.596913e+17
4.982983e+17
5.269984e+17
5.465379e+17
5.562811e+17
5.562702e+17
5.465217e+17
5.269617e+17
4.982595e+17
4.596852e+17
4.152257e+17
3.464205e+17
2.956398e+17
2.258398e+17
1.783214e+17
1.479734e+17
9.497847e+16
1.192346e+17
1.725111e+17
2.25781e+17
3.003694e+17
3.582203e+17
4.392809e+17
4.986749e+17
5.470989e+17
5.885594e+17
6.22137e+17
6.462656e+17
6.561594e+17
6.5615e+17
6.462373e+17
6.221061e+17
5.885572e+17
5.471396e+17
4.987326e+17
4.393546e+17
3.582824e+17
3.003882e+17
2.258135e+17
1.725555e+17
1.19279e+17
1.015658e+17
1.627064e+17
2.167277e+17
2.955911e+17
3.581719e+17
4.464831e+17
5.16869e+17
5.787324e+17
6.321621e+17
6.774747e+17
7.112303e+17
7.35271e+17
7.49139e+17
7.491383e+17
7.352723e+17
7.112415e+17
6.775117e+17
6.322321e+17
5.788237e+17
5.169984e+17
4.466067e+17
3.582894e+17
2.956742e+17
2.168056e+17
1.627736e+17
1.015923e+17
9.179641e+16
1.510754e+17
1.948694e+17
2.749299e+17
3.463875e+17
4.392732e+17
5.168578e+17
5.900681e+17
6.568347e+17
7.111339e+17
7.559016e+17
7.932244e+17
8.194933e+17
8.337183e+17
8.337243e+17
8.195146e+17
7.932704e+17
7.559809e+17
7.112331e+17
6.569551e+17
5.902239e+17
5.170098e+17
4.394135e+17
3.465025e+17
2.74992e+17
1.949811e+17
1.511519e+17
9.183916e+16
1.111491e+17
1.659085e+17
2.297584e+17
3.155922e+17
4.151392e+17
4.986243e+17
5.786574e+17
6.567734e+17
7.233398e+17
7.820333e+17
8.294909e+17
8.663728e+17
8.911712e+17
9.038556e+17
9.038668e+17
8.912096e+17
8.664504e+17
8.296087e+17
7.821801e+17
7.235153e+17
6.569721e+17
5.788554e+17
4.988184e+17
4.15309e+17
3.156674e+17
2.299133e+17
1.66027e+17
1.112187e+17
1.220695e+17
1.836928e+17
2.697576e+17
3.49596e+17
4.595729e+17
5.469866e+17
6.32016e+17
7.110222e+17
7.819712e+17
8.428144e+17
8.900634e+17
9.249241e+17
9.478918e+17
9.593704e+17
9.593876e+17
9.479472e+17
9.250293e+17
8.902195e+17
8.430139e+17
7.822097e+17
7.112905e+17
6.322956e+17
5.472469e+17
4.598056e+17
3.497371e+17
2.700299e+17
1.838711e+17
1.221693e+17
9.186223e+16
1.559627e+17
2.030766e+17
2.896606e+17
4.030026e+17
4.981405e+17
5.88391e+17
6.773137e+17
7.557624e+17
8.293793e+17
8.900024e+17
9.360753e+17
9.693149e+17
9.909451e+17
1.001646e+18
1.001667e+18
9.910133e+17
9.69438e+17
9.362547e+17
8.902329e+17
8.296509e+17
7.56062e+17
6.77623e+17
5.886751e+17
4.984052e+17
4.032204e+17
2.899615e+17
2.032945e+17
1.560575e+17
9.19322e+16
1.04898e+17
1.617907e+17
2.120266e+17
3.01188e+17
4.279051e+17
5.268137e+17
6.219046e+17
7.110237e+17
7.930318e+17
8.662031e+17
9.248009e+17
9.692532e+17
1.001225e+18
1.021974e+18
1.032224e+18
1.032246e+18
1.022045e+18
1.00135e+18
9.694358e+17
9.250401e+17
8.664853e+17
7.933364e+17
7.113375e+17
6.222423e+17
5.27104e+17
4.28159e+17
3.014615e+17
2.12225e+17
1.619471e+17
1.050115e+17
1.081243e+17
1.652607e+17
2.175134e+17
3.088594e+17
4.425971e+17
5.463552e+17
6.4604e+17
7.350363e+17
8.192578e+17
8.909503e+17
9.477142e+17
9.908286e+17
1.021921e+18
1.042105e+18
1.052069e+18
1.052085e+18
1.042165e+18
1.022032e+18
9.910022e+17
9.479513e+17
8.912373e+17
8.195724e+17
7.353662e+17
6.463793e+17
5.466454e+17
4.428661e+17
3.09108e+17
2.177186e+17
1.654257e+17
1.082276e+17
1.093809e+17
1.668815e+17
2.201128e+17
3.128525e+17
4.499132e+17
5.560723e+17
6.559197e+17
7.488767e+17
8.334471e+17
9.035962e+17
9.591504e+17
1.001484e+18
1.032127e+18
1.052033e+18
1.061859e+18
1.061866e+18
1.052082e+18
1.032233e+18
1.001654e+18
9.593853e+17
9.038842e+17
8.337688e+17
7.492133e+17
6.562588e+17
5.563813e+17
4.50184e+17
3.130779e+17
2.203029e+17
1.670275e+17
1.094824e+17
1.09392e+17
1.668932e+17
2.201206e+17
3.12865e+17
4.499071e+17
5.560524e+17
6.559008e+17
7.488608e+17
8.334354e+17
9.035853e+17
9.591371e+17
1.001468e+18
1.032111e+18
1.052021e+18
1.061856e+18
1.061863e+18
1.052073e+18
1.032221e+18
1.001639e+18
9.593689e+17
9.038687e+17
8.337568e+17
7.491981e+17
6.562315e+17
5.563574e+17
4.501658e+17
3.130587e+17
2.202895e+17
1.670245e+17
1.094917e+17
1.081687e+17
1.653145e+17
2.175505e+17
3.089019e+17
4.425866e+17
5.463375e+17
6.460352e+17
7.350068e+17
8.192274e+17
8.909202e+17
9.47679e+17
9.907886e+17
1.02188e+18
1.04207e+18
1.052043e+18
1.052057e+18
1.04213e+18
1.021993e+18
9.909589e+17
9.479062e+17
8.911961e+17
8.195395e+17
7.353326e+17
6.463408e+17
5.466233e+17
4.428204e+17
3.090362e+17
2.17678e+17
1.654155e+17
1.082466e+17
1.049853e+17
1.618789e+17
2.120925e+17
3.012764e+17
4.279062e+17
5.268176e+17
6.219285e+17
7.110162e+17
7.930054e+17
8.661662e+17
9.247545e+17
9.691992e+17
1.001169e+18
1.02192e+18
1.032173e+18
1.032188e+18
1.021981e+18
1.001279e+18
9.69362e+17
9.249701e+17
8.664253e+17
7.932909e+17
7.113073e+17
6.221893e+17
5.270645e+17
4.281028e+17
3.013286e+17
2.121676e+17
1.619469e+17
1.050376e+17
9.196178e+16
1.560298e+17
2.032045e+17
2.89827e+17
4.030211e+17
4.981724e+17
5.884003e+17
6.773283e+17
7.557569e+17
8.293527e+17
8.899577e+17
9.360192e+17
9.692546e+17
9.908811e+17
1.001574e+18
1.001587e+18
9.909361e+17
9.693545e+17
9.361669e+17
8.901512e+17
8.295787e+17
7.559966e+17
6.775792e+17
5.886539e+17
4.983756e+17
4.031871e+17
2.897997e+17
2.032372e+17
1.560997e+17
9.198639e+16
1.221418e+17
1.838179e+17
2.699677e+17
3.496014e+17
4.596312e+17
5.469906e+17
6.320443e+17
7.110369e+17
7.819594e+17
8.427802e+17
8.900171e+17
9.248684e+17
9.478236e+17
9.592702e+17
9.592811e+17
9.478651e+17
9.249468e+17
8.901359e+17
8.429379e+17
7.821409e+17
7.112263e+17
6.322563e+17
5.472044e+17
4.59767e+17
3.4975e+17
2.698808e+17
1.83808e+17
1.221686e+17
1.111757e+17
1.659878e+17
2.299053e+17
3.156614e+17
4.152272e+17
4.986295e+17
5.786631e+17
6.567844e+17
7.233261e+17
7.82005e+17
8.294581e+17
8.663249e+17
8.911022e+17
9.037359e+17
9.037438e+17
8.911277e+17
8.663738e+17
8.295375e+17
7.821217e+17
7.234651e+17
6.569281e+17
5.788275e+17
4.987723e+17
4.152829e+17
3.157586e+17
2.298576e+17
1.659956e+17
1.112259e+17
9.17861e+16
1.511759e+17
1.949928e+17
2.750274e+17
3.46464e+17
4.392863e+17
5.16855e+17
5.900649e+17
6.568094e+17
7.111077e+17
7.558854e+17
7.931854e+17
8.194308e+17
8.336083e+17
8.336165e+17
8.194426e+17
7.932021e+17
7.559199e+17
7.111848e+17
6.569112e+17
5.901702e+17
5.169627e+17
4.393582e+17
3.464313e+17
2.75075e+17
1.949332e+17
1.511404e+17
9.186329e+16
1.015376e+17
1.627725e+17
2.168125e+17
2.956056e+17
3.582234e+17
4.46495e+17
5.168676e+17
5.786998e+17
6.321198e+17
6.774467e+17
7.11181e+17
7.351949e+17
7.490197e+17
7.49028e+17
7.35198e+17
7.111718e+17
6.774466e+17
6.321594e+17
5.787565e+17
5.169264e+17
4.465543e+17
3.582624e+17
2.956372e+17
2.167968e+17
1.627442e+17
1.015545e+17
1.192445e+17
1.725521e+17
2.258149e+17
3.003878e+17
3.58199e+17
4.393044e+17
4.986815e+17
5.470732e+17
5.884835e+17
6.220441e+17
6.461839e+17
6.560607e+17
6.560591e+17
6.461702e+17
6.220275e+17
5.884839e+17
5.470669e+17
4.986813e+17
4.39312e+17
3.582144e+17
3.003844e+17
2.2578e+17
1.72497e+17
1.192109e+17
9.497934e+16
1.479861e+17
1.783345e+17
2.257949e+17
2.956556e+17
3.464608e+17
4.151973e+17
4.596468e+17
4.982198e+17
5.269027e+17
5.464413e+17
5.561612e+17
5.561558e+17
5.464401e+17
5.268857e+17
4.982009e+17
4.596432e+17
4.152224e+17
3.46459e+17
2.956345e+17
2.257641e+17
1.782897e+17
1.479373e+17
9.494062e+16
9.585669e+16
1.479845e+17
1.725605e+17
2.167637e+17
2.749363e+17
3.155427e+17
3.495855e+17
4.03009e+17
4.279029e+17
4.425927e+17
4.498937e+17
4.498851e+17
4.426207e+17
4.279482e+17
4.030429e+17
3.495844e+17
3.156038e+17
2.749934e+17
2.167685e+17
1.725206e+17
1.479434e+17
9.582834e+16
9.496968e+16
1.192616e+17
1.627188e+17
1.94903e+17
2.2976e+17
2.69807e+17
2.89645e+17
3.010952e+17
3.087558e+17
3.128675e+17
3.128307e+17
3.088344e+17
3.012136e+17
2.897587e+17
2.699e+17
2.298104e+17
1.949007e+17
1.627083e+17
1.19211e+17
9.494824e+16
1.015142e+17
1.510626e+17
1.658977e+17
1.836975e+17
2.030603e+17
2.119429e+17
2.17417e+17
2.200521e+17
2.200071e+17
2.174413e+17
2.119703e+17
2.030799e+17
1.83687e+17
1.658599e+17
1.510904e+17
1.014842e+17
9.173972e+16
1.111243e+17
1.220474e+17
1.559242e+17
1.617394e+17
1.651842e+17
1.668628e+17
1.66844e+17
1.651725e+17
1.61716e+17
1.559227e+17
1.220226e+17
1.110811e+17
9.175973e+16
9.186049e+16
1.048669e+17
1.080514e+17
1.093243e+17
1.093127e+17
1.080332e+17
1.048316e+17
9.178486e+16
8.168154e+16
9.275229e+16
9.51782e+16
9.515616e+16
9.26815e+16
8.164418e+16
7.833391e+16
9.848793e+16
1.106662e+17
1.248669e+17
1.572353e+17
1.64099e+17
1.667162e+17
1.666602e+17
1.639575e+17
1.570786e+17
1.24866e+17
1.107001e+17
9.851016e+16
7.839491e+16
7.893892e+16
1.035824e+17
1.466659e+17
1.725207e+17
1.954308e+17
2.291684e+17
2.475014e+17
2.5503e+17
2.586925e+17
2.586197e+17
2.548504e+17
2.473521e+17
2.291617e+17
1.954202e+17
1.724683e+17
1.466951e+17
1.03656e+17
7.905288e+16
8.861627e+16
1.412027e+17
1.785101e+17
2.319945e+17
2.626387e+17
2.930126e+17
3.203805e+17
3.657419e+17
3.831796e+17
3.901354e+17
3.900727e+17
3.83018e+17
3.655591e+17
3.202495e+17
2.928785e+17
2.625516e+17
2.318724e+17
1.785883e+17
1.412655e+17
8.874682e+16
9.520648e+16
1.575463e+17
2.069069e+17
2.674528e+17
3.150198e+17
3.802591e+17
4.226159e+17
4.551475e+17
4.823478e+17
4.990398e+17
5.067422e+17
5.066895e+17
4.98899e+17
4.82168e+17
4.549933e+17
4.225255e+17
3.802362e+17
3.15032e+17
2.674139e+17
2.069926e+17
1.575983e+17
9.529404e+16
9.890549e+16
1.710503e+17
2.402746e+17
2.930155e+17
3.452623e+17
4.307121e+17
4.92038e+17
5.406009e+17
5.749989e+17
6.010723e+17
6.179809e+17
6.261862e+17
6.261427e+17
6.17864e+17
6.009182e+17
5.748511e+17
5.404902e+17
4.919924e+17
4.307673e+17
3.453415e+17
2.930157e+17
2.402777e+17
1.710653e+17
9.893977e+16
9.521351e+16
1.710583e+17
2.512565e+17
3.125246e+17
3.989717e+17
4.706236e+17
5.424661e+17
6.023577e+17
6.521496e+17
6.941174e+17
7.249667e+17
7.446679e+17
7.542595e+17
7.542262e+17
7.445827e+17
7.248661e+17
6.940424e+17
6.521259e+17
6.023757e+17
5.425233e+17
4.706638e+17
3.990054e+17
3.12531e+17
2.511578e+17
1.710624e+17
9.524758e+16
8.86249e+16
1.57518e+17
2.403202e+17
3.125048e+17
4.094557e+17
4.945387e+17
5.737683e+17
6.437951e+17
7.093319e+17
7.649781e+17
8.107347e+17
8.446269e+17
8.666371e+17
8.773978e+17
8.773743e+17
8.665811e+17
8.445611e+17
8.106924e+17
7.649834e+17
7.093741e+17
6.438654e+17
5.738378e+17
4.945992e+17
4.094843e+17
3.125278e+17
2.403132e+17
1.575683e+17
8.866971e+16
7.893254e+16
1.411583e+17
2.069506e+17
2.929839e+17
3.989638e+17
4.945433e+17
5.844938e+17
6.644391e+17
7.418996e+17
8.123409e+17
8.718286e+17
9.202064e+17
9.567686e+17
9.807767e+17
9.921979e+17
9.92181e+17
9.807365e+17
9.56733e+17
9.202114e+17
8.718899e+17
8.124417e+17
7.420233e+17
6.645534e+17
5.845726e+17
4.946058e+17
3.990107e+17
2.930343e+17
2.070315e+17
1.412272e+17
7.897899e+16
1.035619e+17
1.785295e+17
2.6733e+17
3.453284e+17
4.706111e+17
5.737708e+17
6.64438e+17
7.523947e+17
8.348264e+17
9.08307e+17
9.708418e+17
1.021503e+18
1.059892e+18
1.08576e+18
1.098979e+18
1.098972e+18
1.085749e+18
1.059902e+18
1.021562e+18
9.709594e+17
9.084706e+17
8.350235e+17
7.525875e+17
6.646024e+17
5.738904e+17
4.70701e+17
3.453933e+17
2.674527e+17
1.786295e+17
1.036594e+17
7.833492e+16
1.465827e+17
2.31825e+17
3.149518e+17
4.307433e+17
5.424412e+17
6.437886e+17
7.418915e+17
8.348101e+17
9.201177e+17
9.95892e+17
1.060529e+18
1.113388e+18
1.154581e+18
1.182889e+18
1.197481e+18
1.197485e+18
1.182912e+18
1.154642e+18
1.113508e+18
1.060706e+18
9.961188e+17
9.203805e+17
8.350712e+17
7.421252e+17
6.439747e+17
5.425711e+17
4.308437e+17
3.149706e+17
2.31986e+17
1.466992e+17
7.846655e+16
9.837987e+16
1.723746e+17
2.62446e+17
3.802265e+17
4.919771e+17
6.022957e+17
7.0927e+17
8.122805e+17
9.082288e+17
9.958285e+17
1.073463e+18
1.141084e+18
1.196835e+18
1.239899e+18
1.269147e+18
1.284008e+18
1.284024e+18
1.269202e+18
1.24001e+18
1.197016e+18
1.141331e+18
1.073763e+18
9.961648e+17
9.085683e+17
8.125984e+17
7.095379e+17
6.024867e+17
4.921406e+17
3.802752e+17
2.625422e+17
1.725018e+17
9.851579e+16
1.105988e+17
1.953294e+17
2.929117e+17
4.22595e+17
5.404658e+17
6.520533e+17
7.648606e+17
8.716937e+17
9.706809e+17
1.060386e+18
1.141001e+18
1.211328e+18
1.268735e+18
1.3123e+18
1.34153e+18
1.356229e+18
1.356254e+18
1.341613e+18
1.312455e+18
1.268972e+18
1.211643e+18
1.141379e+18
1.060806e+18
9.711128e+17
8.721051e+17
7.652214e+17
6.52329e+17
5.407069e+17
4.226679e+17
2.929359e+17
1.953683e+17
1.106513e+17
1.248175e+17
2.292073e+17
3.204247e+17
4.551265e+17
5.748568e+17
6.939724e+17
8.105604e+17
9.199971e+17
1.021275e+18
1.113176e+18
1.19667e+18
1.268646e+18
1.326653e+18
1.370107e+18
1.399002e+18
1.413444e+18
1.413476e+18
1.399104e+18
1.370291e+18
1.326929e+18
1.269009e+18
1.197103e+18
1.113656e+18
1.021773e+18
9.204788e+17
8.109943e+17
6.943291e+17
5.75146e+17
4.552336e+17
3.20384e+17
2.290669e+17
1.247989e+17
8.165659e+16
1.571286e+17
2.475435e+17
3.657912e+17
4.823222e+17
6.009458e+17
7.247966e+17
8.444132e+17
9.564984e+17
1.059602e+18
1.1543e+18
1.239657e+18
1.312128e+18
1.370021e+18
1.41311e+18
1.441638e+18
1.45586e+18
1.455894e+18
1.441745e+18
1.413302e+18
1.37031e+18
1.312512e+18
1.240116e+18
1.154809e+18
1.060137e+18
9.570317e+17
8.448929e+17
7.252008e+17
6.012506e+17
4.824468e+17
3.657473e+17
2.474066e+17
1.570963e+17
8.163932e+16
9.263575e+16
1.640049e+17
2.550301e+17
3.832096e+17
4.990179e+17
6.178875e+17
7.445088e+17
8.664165e+17
9.804884e+17
1.085434e+18
1.182557e+18
1.268844e+18
1.341289e+18
1.398842e+18
1.441563e+18
1.469796e+18
1.483852e+18
1.483882e+18
1.469895e+18
1.441745e+18
1.399124e+18
1.34167e+18
1.269307e+18
1.183076e+18
1.085982e+18
9.810351e+17
8.669116e+17
7.449287e+17
6.181981e+17
4.991803e+17
3.832249e+17
2.549644e+17
1.63993e+17
9.269914e+16
9.510185e+16
1.666643e+17
2.586841e+17
3.901907e+17
5.067697e+17
6.26149e+17
7.541382e+17
8.77189e+17
9.919094e+17
1.098636e+18
1.197117e+18
1.283662e+18
1.355936e+18
1.413226e+18
1.455725e+18
1.483795e+18
1.497762e+18
1.497788e+18
1.483885e+18
1.455897e+18
1.413497e+18
1.356307e+18
1.284119e+18
1.197633e+18
1.099181e+18
9.924507e+17
8.77683e+17
7.545512e+17
6.264547e+17
5.069574e+17
3.902777e+17
2.587391e+17
1.667196e+17
9.518175e+16
9.510683e+16
1.666881e+17
2.587411e+17
3.902197e+17
5.067971e+17
6.261735e+17
7.541547e+17
8.77197e+17
9.919122e+17
1.098633e+18
1.197112e+18
1.283656e+18
1.355928e+18
1.413216e+18
1.455712e+18
1.483781e+18
1.497748e+18
1.497772e+18
1.483867e+18
1.455877e+18
1.413476e+18
1.356286e+18
1.284098e+18
1.197614e+18
1.099163e+18
9.924337e+17
8.77673e+17
7.545476e+17
6.264618e+17
5.069905e+17
3.903311e+17
2.588043e+17
1.667696e+17
9.520576e+16
9.269613e+16
1.640541e+17
2.550698e+17
3.832502e+17
4.99084e+17
6.179565e+17
7.445548e+17
8.664475e+17
9.805123e+17
1.085438e+18
1.18255e+18
1.26883e+18
1.341269e+18
1.398816e+18
1.441529e+18
1.469757e+18
1.483809e+18
1.483833e+18
1.46984e+18
1.441686e+18
1.399064e+18
1.341611e+18
1.269253e+18
1.183028e+18
1.085938e+18
9.809986e+17
8.668922e+17
7.449161e+17
6.182128e+17
4.99277e+17
3.833802e+17
2.551514e+17
1.6414e+17
9.277911e+16
8.174248e+16
1.571009e+17
2.475027e+17
3.658135e+17
4.82401e+17
6.010556e+17
7.248706e+17
8.444719e+17
9.565527e+17
1.059634e+18
1.154309e+18
1.239651e+18
1.31211e+18
1.369991e+18
1.413067e+18
1.441583e+18
1.455793e+18
1.455815e+18
1.441659e+18
1.413212e+18
1.370221e+18
1.31243e+18
1.240046e+18
1.154751e+18
1.060091e+18
9.569923e+17
8.448716e+17
7.251878e+17
6.01264e+17
4.825893e+17
3.659641e+17
2.476332e+17
1.572138e+17
8.180753e+16
1.248451e+17
2.290988e+17
3.204558e+17
4.5522e+17
5.750137e+17
6.940751e+17
8.106522e+17
9.200698e+17
1.021333e+18
1.113213e+18
1.196686e+18
1.268643e+18
1.326633e+18
1.370071e+18
1.398948e+18
1.41337e+18
1.413389e+18
1.399015e+18
1.3702e+18
1.326842e+18
1.268934e+18
1.197043e+18
1.11361e+18
1.021747e+18
9.204701e+17
8.109987e+17
6.943469e+17
5.751668e+17
4.553964e+17
3.205965e+17
2.292804e+17
1.249067e+17
1.106237e+17
1.95372e+17
2.929826e+17
4.226687e+17
5.406462e+17
6.521736e+17
7.64983e+17
8.717807e+17
9.707562e+17
1.060444e+18
1.141035e+18
1.211342e+18
1.268731e+18
1.312278e+18
1.341485e+18
1.356154e+18
1.356169e+18
1.341538e+18
1.312385e+18
1.26891e+18
1.211595e+18
1.141346e+18
1.060789e+18
9.711193e+17
8.721233e+17
7.652616e+17
6.524042e+17
5.407492e+17
4.228347e+17
2.930867e+17
1.954384e+17
1.106461e+17
9.847918e+16
1.725043e+17
2.626058e+17
3.802912e+17
4.921254e+17
6.024463e+17
7.094196e+17
8.123787e+17
9.083039e+17
9.958898e+17
1.073501e+18
1.141106e+18
1.196845e+18
1.239889e+18
1.269111e+18
1.283937e+18
1.283948e+18
1.269148e+18
1.239968e+18
1.196984e+18
1.141314e+18
1.073761e+18
9.961771e+17
9.086019e+17
8.126439e+17
7.096205e+17
6.026282e+17
4.922263e+17
3.804475e+17
2.626136e+17
1.724911e+17
9.845504e+16
7.841762e+16
1.466795e+17
2.320607e+17
3.15e+17
4.308072e+17
5.425731e+17
6.43928e+17
7.41994e+17
8.348878e+17
9.2018e+17
9.959323e+17
1.060556e+18
1.113408e+18
1.154581e+18
1.182864e+18
1.197425e+18
1.197431e+18
1.182884e+18
1.154627e+18
1.113503e+18
1.060712e+18
9.961352e+17
9.204053e+17
8.351153e+17
7.421871e+17
6.440721e+17
5.427336e+17
4.309317e+17
3.151464e+17
2.31932e+17
1.466851e+17
7.839771e+16
1.036159e+17
1.785792e+17
2.674902e+17
3.452958e+17
4.707288e+17
5.738858e+17
6.645463e+17
7.524903e+17
8.349087e+17
9.083639e+17
9.708773e+17
1.021524e+18
1.059892e+18
1.085738e+18
1.098934e+18
1.098937e+18
1.085744e+18
1.05991e+18
1.021578e+18
9.709806e+17
9.085038e+17
8.350668e+17
7.52653e+17
6.646941e+17
5.740197e+17
4.708473e+17
3.45439e+17
2.675027e+17
1.785793e+17
1.036073e+17
7.893806e+16
1.412384e+17
2.070302e+17
2.931835e+17
3.991402e+17
4.946796e+17
5.846212e+17
6.645652e+17
7.420215e+17
8.124322e+17
8.718844e+17
9.202237e+17
9.567603e+17
9.807584e+17
9.921711e+17
9.92169e+17
9.807549e+17
9.567643e+17
9.202525e+17
8.719414e+17
8.125159e+17
7.421163e+17
6.646628e+17
5.847038e+17
4.947281e+17
3.9914e+17
2.93145e+17
2.069971e+17
1.41232e+17
7.898082e+16
8.862508e+16
1.576316e+17
2.404799e+17
3.126091e+17
4.095511e+17
4.946672e+17
5.739166e+17
6.439378e+17
7.094132e+17
7.650221e+17
8.107411e+17
8.446054e+17
8.666069e+17
8.77361e+17
8.773568e+17
8.666085e+17
8.446132e+17
8.107634e+17
7.650717e+17
7.0949e+17
6.439997e+17
5.739648e+17
4.947179e+17
4.095846e+17
3.126297e+17
2.40376e+17
1.575813e+17
8.864763e+16
9.521732e+16
1.710988e+17
2.51423e+17
3.125555e+17
3.991119e+17
4.707352e+17
5.425485e+17
6.023745e+17
6.521406e+17
6.940669e+17
7.248854e+17
7.445894e+17
7.541941e+17
7.541863e+17
7.446068e+17
7.249276e+17
6.94124e+17
6.522127e+17
6.024654e+17
5.425972e+17
4.707476e+17
3.991396e+17
3.12577e+17
2.513938e+17
1.710757e+17
9.520328e+16
9.889014e+16
1.710811e+17
2.404819e+17
2.931644e+17
3.453908e+17
4.308103e+17
4.920402e+17
5.405281e+17
5.748978e+17
6.009548e+17
6.178909e+17
6.261654e+17
6.261408e+17
6.179106e+17
6.010066e+17
5.749702e+17
5.406268e+17
4.921122e+17
4.30811e+17
3.453099e+17
2.931687e+17
2.404874e+17
1.710819e+17
9.888055e+16
9.517541e+16
1.575486e+17
2.07046e+17
2.674671e+17
3.149174e+17
3.802018e+17
4.225712e+17
4.551257e+17
4.823111e+17
4.990061e+17
5.067172e+17
5.06677e+17
4.989711e+17
4.822803e+17
4.551092e+17
4.226137e+17