/*--------------------------------*- C++ -*----------------------------------*\
  =========                 |
  \\      /  F ield         | OpenFOAM: The Open Source CFD Toolbox
   \\    /   O peration     | Website:  https://openfoam.org
    \\  /    A nd           | Version:  6
     \\/     M anipulation  |
\*---------------------------------------------------------------------------*/
FoamFile
{
    version     2.0;
    format      ascii;
    class       volScalarField;
    location    "50/region0/neutronTransport";
    object      flux3;
}
// * * * * * * * * * * * * * * * * * * * * * * * * * * * * * * * * * * * * * //

dimensions      [0 -2 -1 0 0 0 0];

internalField   nonuniform List<scalar> 
203709
(
5.697358e+13
6.556923e+13
6.556397e+13
5.700311e+13
5.98889e+13
7.016633e+13
9.614938e+13
9.405657e+13
9.404762e+13
9.616083e+13
7.01792e+13
5.991095e+13
5.838195e+13
7.050656e+13
9.716528e+13
9.548938e+13
9.848585e+13
9.918289e+13
9.918232e+13
9.848835e+13
9.549149e+13
9.717262e+13
7.051155e+13
5.838756e+13
5.839026e+13
9.448325e+13
9.518016e+13
9.901815e+13
1.00951e+14
1.027587e+14
1.035432e+14
1.035483e+14
1.027528e+14
1.009399e+14
9.900963e+13
9.517078e+13
9.447985e+13
5.838586e+13
7.050929e+13
9.517995e+13
9.960097e+13
1.027112e+14
1.051158e+14
1.068711e+14
1.077407e+14
1.077421e+14
1.06857e+14
1.050975e+14
1.026929e+14
9.957774e+13
9.51567e+13
7.048962e+13
5.989388e+13
9.716522e+13
9.902338e+13
1.027121e+14
1.059894e+14
1.085821e+14
1.103838e+14
1.112693e+14
1.112659e+14
1.103727e+14
1.085694e+14
1.059655e+14
1.026846e+14
9.899858e+13
9.714518e+13
5.987432e+13
7.015656e+13
9.547997e+13
1.00947e+14
1.051068e+14
1.085768e+14
1.112698e+14
1.130536e+14
1.138797e+14
1.138784e+14
1.13054e+14
1.112593e+14
1.085542e+14
1.050858e+14
1.009232e+14
9.54515e+13
7.013599e+13
5.697474e+13
9.614346e+13
9.848562e+13
1.027603e+14
1.068717e+14
1.103749e+14
1.130472e+14
1.146642e+14
1.154724e+14
1.154767e+14
1.146751e+14
1.130463e+14
1.10367e+14
1.068523e+14
1.027301e+14
9.845033e+13
9.611814e+13
5.693643e+13
6.553371e+13
9.402452e+13
9.916875e+13
1.035478e+14
1.077439e+14
1.112609e+14
1.138738e+14
1.154708e+14
1.163753e+14
1.163456e+14
1.154799e+14
1.138871e+14
1.112692e+14
1.077314e+14
1.035174e+14
9.913873e+13
9.399066e+13
6.550352e+13
6.554192e+13
9.404568e+13
9.917461e+13
1.035416e+14
1.077406e+14
1.11264e+14
1.138741e+14
1.154744e+14
1.164083e+14
1.163754e+14
1.154845e+14
1.138875e+14
1.112666e+14
1.077341e+14
1.035196e+14
9.913885e+13
9.400362e+13
6.551694e+13
5.695201e+13
9.61523e+13
9.848377e+13
1.027572e+14
1.068718e+14
1.103825e+14
1.130595e+14
1.146832e+14
1.154965e+14
1.154875e+14
1.146835e+14
1.130609e+14
1.103749e+14
1.068554e+14
1.027281e+14
9.844278e+13
9.609525e+13
5.69353e+13
7.014526e+13
9.547696e+13
1.009513e+14
1.051211e+14
1.085913e+14
1.112911e+14
1.130773e+14
1.139119e+14
1.138946e+14
1.130683e+14
1.112688e+14
1.085609e+14
1.050797e+14
1.009016e+14
9.54287e+13
7.011517e+13
5.988894e+13
9.717126e+13
9.902793e+13
1.027271e+14
1.060078e+14
1.086115e+14
1.104065e+14
1.113013e+14
1.112825e+14
1.10385e+14
1.08567e+14
1.059546e+14
1.026663e+14
9.896497e+13
9.710526e+13
5.984743e+13
7.051663e+13
9.519561e+13
9.962706e+13
1.02744e+14
1.051485e+14
1.069022e+14
1.078221e+14
1.078025e+14
1.068562e+14
1.05082e+14
1.026632e+14
9.954194e+13
9.512193e+13
7.045954e+13
5.840737e+13
9.452233e+13
9.520764e+13
9.904762e+13
1.009667e+14
1.027657e+14
1.035883e+14
1.035714e+14
1.027177e+14
1.008953e+14
9.895409e+13
9.510268e+13
9.441598e+13
5.832922e+13
5.839981e+13
7.051527e+13
9.717191e+13
9.54662e+13
9.845983e+13
9.916605e+13
9.916348e+13
9.842222e+13
9.541524e+13
9.708848e+13
7.042974e+13
5.832334e+13
5.986757e+13
7.012127e+13
9.609923e+13
9.403214e+13
9.404202e+13
9.607192e+13
7.008799e+13
5.982507e+13
5.691903e+13
6.548381e+13
6.548729e+13
5.691129e+13
4.732296e+13
5.636162e+13
5.889658e+13
6.061892e+13
6.170585e+13
6.171231e+13
6.063919e+13
5.893001e+13
5.640932e+13
4.738182e+13
4.848652e+13
5.931022e+13
8.379005e+13
8.582976e+13
8.916911e+13
9.346346e+13
9.691254e+13
9.692215e+13
9.349949e+13
8.920375e+13
8.585479e+13
8.381444e+13
5.933528e+13
4.851954e+13
4.950528e+13
8.21044e+13
8.595216e+13
9.32612e+13
1.009366e+14
1.075139e+14
1.18829e+14
1.27383e+14
1.273918e+14
1.188613e+14
1.075297e+14
1.009504e+14
9.32987e+13
8.599766e+13
8.217337e+13
4.956177e+13
4.998911e+13
8.353507e+13
9.088776e+13
1.003783e+14
1.106421e+14
1.292258e+14
1.538168e+14
1.91486e+14
2.015978e+14
2.016055e+14
1.914847e+14
1.538391e+14
1.292692e+14
1.106995e+14
1.004396e+14
9.095287e+13
8.359036e+13
5.004664e+13
4.949345e+13
8.351783e+13
9.187315e+13
1.030531e+14
1.262491e+14
1.562322e+14
2.025886e+14
2.288292e+14
2.485201e+14
2.791813e+14
2.791858e+14
2.485499e+14
2.288638e+14
2.026145e+14
1.562919e+14
1.262955e+14
1.031158e+14
9.192599e+13
8.356634e+13
4.954264e+13
4.84744e+13
8.210672e+13
9.08813e+13
1.030628e+14
1.369334e+14
1.955174e+14
2.285584e+14
2.55973e+14
2.9943e+14
3.186085e+14
3.299883e+14
3.299896e+14
3.186147e+14
2.99438e+14
2.559887e+14
2.285694e+14
1.955052e+14
1.369444e+14
1.030702e+14
9.090443e+13
8.214094e+13
4.851208e+13
5.926447e+13
8.592177e+13
1.003644e+14
1.262535e+14
1.95516e+14
2.428014e+14
2.944002e+14
3.223986e+14
3.442623e+14
3.576452e+14
3.644711e+14
3.644667e+14
3.576297e+14
3.442435e+14
3.223733e+14
2.943596e+14
2.427542e+14
1.954698e+14
1.262226e+14
1.003676e+14
8.59428e+13
5.929484e+13
4.731133e+13
8.373375e+13
9.32158e+13
1.106287e+14
1.562245e+14
2.285941e+14
2.944161e+14
3.325673e+14
3.567269e+14
3.732991e+14
3.837516e+14
3.888992e+14
3.888893e+14
3.837193e+14
3.732557e+14
3.566704e+14
3.324956e+14
2.943416e+14
2.285381e+14
1.562086e+14
1.106339e+14
9.322293e+13
8.374875e+13
4.731818e+13
5.633578e+13
8.579762e+13
1.008869e+14
1.292272e+14
2.026399e+14
2.560348e+14
3.224391e+14
3.567471e+14
3.784419e+14
3.929042e+14
4.019804e+14
4.063879e+14
4.06376e+14
4.019452e+14
3.928518e+14
3.783691e+14
3.566585e+14
3.223448e+14
2.559564e+14
2.025832e+14
1.291792e+14
1.008825e+14
8.579857e+13
5.633844e+13
5.886079e+13
8.914221e+13
1.074593e+14
1.537707e+14
2.288893e+14
2.994927e+14
3.443132e+14
3.73332e+14
3.929197e+14
4.062134e+14
4.145999e+14
4.186928e+14
4.186841e+14
4.145754e+14
4.061664e+14
3.928468e+14
3.732407e+14
3.442063e+14
2.993735e+14
2.287549e+14
1.537452e+14
1.074635e+14
8.912574e+13
5.885826e+13
6.057189e+13
9.343299e+13
1.188083e+14
1.914926e+14
2.48581e+14
3.186812e+14
3.577083e+14
3.838004e+14
4.020089e+14
4.146118e+14
4.225877e+14
4.264959e+14
4.264894e+14
4.225761e+14
4.145815e+14
4.019555e+14
3.837222e+14
3.576062e+14
3.185613e+14
2.484639e+14
1.914381e+14
1.187666e+14
9.340827e+13
6.057323e+13
6.164383e+13
9.68459e+13
1.27322e+14
2.015938e+14
2.792213e+14
3.300536e+14
3.645453e+14
3.889692e+14
4.064403e+14
4.187273e+14
4.265161e+14
4.303545e+14
4.303319e+14
4.265033e+14
4.187093e+14
4.064039e+14
3.88905e+14
3.644548e+14
3.299492e+14
2.791204e+14
2.015378e+14
1.272994e+14
9.683854e+13
6.164693e+13
6.163525e+13
9.682337e+13
1.272909e+14
2.015643e+14
2.792119e+14
3.300542e+14
3.645503e+14
3.889796e+14
4.064571e+14
4.187468e+14
4.265426e+14
4.303972e+14
4.303711e+14
4.265276e+14
4.187282e+14
4.064199e+14
3.889193e+14
3.644681e+14
3.299637e+14
2.791307e+14
2.015146e+14
1.2727e+14
9.681549e+13
6.163309e+13
6.055194e+13
9.340875e+13
1.188001e+14
1.914919e+14
2.485425e+14
3.186766e+14
3.577258e+14
3.838347e+14
4.020604e+14
4.146758e+14
4.226632e+14
4.265824e+14
4.265643e+14
4.22639e+14
4.146402e+14
4.020069e+14
3.837642e+14
3.576417e+14
3.185948e+14
2.484883e+14
1.914387e+14
1.187704e+14
9.339641e+13
6.054473e+13
5.885325e+13
8.914517e+13
1.074879e+14
1.537925e+14
2.288719e+14
2.995073e+14
3.443541e+14
3.733966e+14
3.930048e+14
4.063199e+14
4.147207e+14
4.188254e+14
4.188008e+14
4.146771e+14
4.062507e+14
3.929146e+14
3.732943e+14
3.442481e+14
2.994106e+14
2.288112e+14
1.537113e+14
1.074259e+14
8.912243e+13
5.884031e+13
5.63442e+13
8.582608e+13
1.009277e+14
1.292316e+14
2.026864e+14
2.560933e+14
3.2252e+14
3.568502e+14
3.785667e+14
3.930534e+14
4.021415e+14
4.065509e+14
4.065181e+14
4.020713e+14
3.929456e+14
3.784328e+14
3.567047e+14
3.223735e+14
2.559483e+14
2.025608e+14
1.291627e+14
1.00852e+14
8.578364e+13
5.63218e+13
4.732507e+13
8.37874e+13
9.326583e+13
1.106584e+14
1.562957e+14
2.286859e+14
2.945401e+14
3.327129e+14
3.568927e+14
3.734777e+14
3.839335e+14
3.890507e+14
3.890132e+14
3.838371e+14
3.733346e+14
3.567166e+14
3.325243e+14
2.943527e+14
2.285079e+14
1.561501e+14
1.105701e+14
9.317927e+13
8.37211e+13
4.730122e+13
5.932107e+13
8.59691e+13
1.004045e+14
1.263043e+14
1.956257e+14
2.429304e+14
2.945565e+14
3.225719e+14
3.444322e+14
3.578064e+14
3.645721e+14
3.645373e+14
3.577059e+14
3.442813e+14
3.223839e+14
2.943587e+14
2.427406e+14
1.95439e+14
1.261662e+14
1.003129e+14
8.588133e+13
5.924213e+13
4.851816e+13
8.213857e+13
9.092017e+13
1.03099e+14
1.369924e+14
1.956105e+14
2.286861e+14
2.561213e+14
2.995601e+14
3.187297e+14
3.300495e+14
3.300295e+14
3.186473e+14
2.994318e+14
2.559572e+14
2.285294e+14
1.954606e+14
1.368491e+14
1.029813e+14
9.083227e+13
8.206127e+13
4.843844e+13
4.952973e+13
8.358051e+13
9.191598e+13
1.030699e+14
1.262539e+14
1.562508e+14
2.026806e+14
2.288998e+14
2.48565e+14
2.791681e+14
2.791642e+14
2.485146e+14
2.288031e+14
2.025445e+14
1.561435e+14
1.261566e+14
1.029743e+14
9.182226e+13
8.349783e+13
4.946553e+13
5.001434e+13
8.355497e+13
9.08849e+13
1.003688e+14
1.106187e+14
1.291564e+14
1.537349e+14
1.914688e+14
2.015394e+14
2.015324e+14
1.914131e+14
1.536766e+14
1.29114e+14
1.105426e+14
1.002877e+14
9.080931e+13
8.348717e+13
4.996827e+13
4.948594e+13
8.209515e+13
8.591222e+13
9.318547e+13
1.008319e+14
1.074224e+14
1.187466e+14
1.272579e+14
1.27252e+14
1.187254e+14
1.073783e+14
1.008097e+14
9.316543e+13
8.587444e+13
8.204537e+13
4.945524e+13
4.847223e+13
5.925955e+13
8.371499e+13
8.576391e+13
8.910084e+13
9.337938e+13
9.681313e+13
9.681393e+13
9.337487e+13
8.908261e+13
8.573924e+13
8.371759e+13
5.925709e+13
4.84598e+13
4.72726e+13
5.629041e+13
5.880917e+13
6.05197e+13
6.160367e+13
6.160435e+13
6.053718e+13
5.88297e+13
5.630586e+13
4.727565e+13
3.981615e+13
4.737807e+13
4.891641e+13
4.947567e+13
4.946968e+13
4.889816e+13
4.733802e+13
3.980335e+13
3.978703e+13
5.048635e+13
5.614035e+13
7.867544e+13
8.136174e+13
8.309328e+13
8.387448e+13
8.386924e+13
8.307467e+13
8.133255e+13
7.869488e+13
5.61858e+13
5.054607e+13
3.987139e+13
4.423449e+13
7.582452e+13
8.356597e+13
9.590653e+13
1.083917e+14
1.136572e+14
1.168502e+14
1.183161e+14
1.183124e+14
1.168395e+14
1.136434e+14
1.083897e+14
9.594321e+13
8.361804e+13
7.589382e+13
4.432325e+13
4.134595e+13
5.436036e+13
8.179981e+13
1.029839e+14
1.282005e+14
1.682444e+14
1.834936e+14
1.913942e+14
1.964989e+14
1.991088e+14
1.990976e+14
1.964684e+14
1.913517e+14
1.834488e+14
1.682172e+14
1.282326e+14
1.030593e+14
8.184491e+13
5.441539e+13
4.138386e+13
4.166915e+13
7.36605e+13
8.710995e+13
1.186938e+14
1.717563e+14
2.028185e+14
2.288654e+14
2.691722e+14
2.875037e+14
2.98215e+14
3.034546e+14
3.034453e+14
2.981951e+14
2.874868e+14
2.691759e+14
2.289205e+14
2.028867e+14
1.718062e+14
1.187351e+14
8.717884e+13
7.369011e+13
4.169649e+13
4.134332e+13
7.367711e+13
9.044954e+13
1.242925e+14
1.867044e+14
2.26331e+14
2.78103e+14
3.110221e+14
3.396827e+14
3.610825e+14
3.761213e+14
3.834642e+14
3.834577e+14
3.761153e+14
3.610653e+14
3.39664e+14
3.110233e+14
2.78107e+14
2.263436e+14
1.867329e+14
1.243641e+14
9.048472e+13
7.369294e+13
4.136953e+13
5.437479e+13
8.711617e+13
1.242994e+14
1.899496e+14
2.348058e+14
2.958147e+14
3.399568e+14
3.758976e+14
4.072826e+14
4.330847e+14
4.534737e+14
4.614963e+14
4.614903e+14
4.534546e+14
4.330633e+14
4.072763e+14
3.759125e+14
3.399718e+14
2.958351e+14
2.348222e+14
1.899392e+14
1.243366e+14
8.716007e+13
5.440755e+13
4.427626e+13
8.177863e+13
1.186574e+14
1.867241e+14
2.347863e+14
3.01113e+14
3.536235e+14
4.000773e+14
4.404762e+14
4.765893e+14
5.027374e+14
5.215434e+14
5.322722e+14
5.322696e+14
5.215364e+14
5.027282e+14
4.76583e+14
4.404768e+14
4.000767e+14
3.536436e+14
3.01129e+14
2.348127e+14
1.867393e+14
1.187055e+14
8.181781e+13
4.428754e+13
3.978625e+13
7.58173e+13
1.029551e+14
1.717152e+14
2.263639e+14
2.9585e+14
3.536464e+14
4.091448e+14
4.613019e+14
5.026554e+14
5.368402e+14
5.651455e+14
5.850357e+14
5.957928e+14
5.957877e+14
5.850215e+14
5.651258e+14
5.368167e+14
5.026175e+14
4.612541e+14
4.091124e+14
3.536133e+14
2.958256e+14
2.26352e+14
1.716862e+14
1.030037e+14
7.584511e+13
3.978887e+13
5.048773e+13
8.354153e+13
1.281305e+14
2.028243e+14
2.781092e+14
3.399944e+14
4.000973e+14
4.613072e+14
5.124641e+14
5.568152e+14
5.924687e+14
6.200953e+14
6.386272e+14
6.48092e+14
6.480798e+14
6.385933e+14
6.20046e+14
5.924034e+14
5.567289e+14
5.123646e+14
4.612069e+14
4.000037e+14
3.399285e+14
2.780667e+14
2.027585e+14
1.281728e+14
8.357964e+13
5.049516e+13
5.611272e+13
9.583435e+13
1.681006e+14
2.288899e+14
3.110267e+14
3.759333e+14
4.404991e+14
5.026888e+14
5.568386e+14
6.025772e+14
6.378456e+14
6.637696e+14
6.808019e+14
6.892904e+14
6.892705e+14
6.807451e+14
6.636853e+14
6.377367e+14
6.024448e+14
5.566931e+14
5.025463e+14
4.403801e+14
3.758472e+14
3.109814e+14
2.288434e+14
1.681943e+14
9.589735e+13
5.613725e+13
3.978928e+13
7.86271e+13
1.082717e+14
1.833519e+14
2.691507e+14
3.396832e+14
4.073174e+14
4.766569e+14
5.369193e+14
5.925298e+14
6.378795e+14
6.721284e+14
6.967348e+14
7.12697e+14
7.205659e+14
7.205429e+14
7.126309e+14
6.966326e+14
6.719954e+14
6.37722e+14
5.923583e+14
5.367508e+14
4.76512e+14
4.072081e+14
3.396297e+14
2.69127e+14
1.834496e+14
1.083521e+14
7.864404e+13
3.98021e+13
4.730131e+13
8.127154e+13
1.135572e+14
1.912912e+14
2.874692e+14
3.610818e+14
4.331018e+14
5.028173e+14
5.652466e+14
6.201855e+14
6.638348e+14
6.967661e+14
7.203594e+14
7.356304e+14
7.431521e+14
7.431342e+14
7.35578e+14
7.20271e+14
6.966402e+14
6.636762e+14
6.200026e+14
5.650551e+14
5.026468e+14
4.33004e+14
3.610206e+14
2.874467e+14
1.913484e+14
1.136036e+14
8.131161e+13
4.733714e+13
4.885855e+13
8.30145e+13
1.16761e+14
1.964345e+14
2.981921e+14
3.761373e+14
4.535173e+14
5.216358e+14
5.85156e+14
6.387451e+14
6.808986e+14
7.127552e+14
7.356532e+14
7.504897e+14
7.578002e+14
7.577904e+14
7.504629e+14
7.355999e+14
7.126639e+14
6.807615e+14
6.385702e+14
5.849641e+14
5.214645e+14
4.534025e+14
3.760544e+14
2.981563e+14
1.964498e+14
1.16789e+14
8.304092e+13
4.887701e+13
4.944011e+13
8.382673e+13
1.182527e+14
1.990831e+14
3.034514e+14
3.834766e+14
4.615443e+14
5.323667e+14
5.959251e+14
6.482391e+14
6.894307e+14
7.206737e+14
7.432183e+14
7.578347e+14
7.650388e+14
7.650277e+14
7.578156e+14
7.431805e+14
7.206011e+14
6.893128e+14
6.480816e+14
5.957495e+14
5.322056e+14
4.614276e+14
3.833965e+14
3.033999e+14
1.990635e+14
1.182506e+14
8.382328e+13
4.944309e+13
4.944601e+13
8.383636e+13
1.182651e+14
1.991073e+14
3.034678e+14
3.834811e+14
4.61544e+14
5.323664e+14
5.959323e+14
6.482562e+14
6.894588e+14
7.207125e+14
7.432639e+14
7.578848e+14
7.650924e+14
7.65077e+14
7.578572e+14
7.432175e+14
7.20635e+14
6.893438e+14
6.481095e+14
5.95774e+14
5.322202e+14
4.614265e+14
3.83394e+14
3.033987e+14
1.990565e+14
1.182412e+14
8.381587e+13
4.944015e+13
4.888603e+13
8.305595e+13
1.168054e+14
1.965076e+14
2.982436e+14
3.761807e+14
4.535593e+14
5.216548e+14
5.851866e+14
6.388014e+14
6.809832e+14
7.128688e+14
7.357859e+14
7.506321e+14
7.579454e+14
7.579251e+14
7.505842e+14
7.357107e+14
7.127644e+14
6.808507e+14
6.386483e+14
5.850298e+14
5.215092e+14
4.534251e+14
3.760757e+14
2.981496e+14
1.964108e+14
1.167582e+14
8.302022e+13
4.886996e+13
4.735811e+13
8.13407e+13
1.136283e+14
1.914181e+14
2.875603e+14
3.611769e+14
4.332031e+14
5.028946e+14
5.653306e+14
6.202975e+14
6.639808e+14
6.96947e+14
7.205712e+14
7.358598e+14
7.43385e+14
7.433524e+14
7.357761e+14
7.204445e+14
6.967886e+14
6.638026e+14
6.201099e+14
5.651448e+14
5.027195e+14
4.330326e+14
3.610385e+14
2.874335e+14
1.912598e+14
1.135533e+14
8.129003e+13
4.733172e+13
3.984974e+13
7.869327e+13
1.083933e+14
1.835515e+14
2.692779e+14
3.398334e+14
4.074505e+14
4.768043e+14
5.370816e+14
5.9272e+14
6.381051e+14
6.723913e+14
6.970292e+14
7.130049e+14
7.208636e+14
7.208154e+14
7.128764e+14
6.968381e+14
6.721611e+14
6.378583e+14
5.924715e+14
5.368408e+14
4.765892e+14
4.07273e+14
3.396634e+14
2.691329e+14
1.833369e+14
1.08296e+14
7.86469e+13
3.981814e+13
5.617127e+13
9.595376e+13
1.683388e+14
2.290116e+14
3.112226e+14
3.76104e+14
4.407084e+14
5.029272e+14
5.57106e+14
6.028775e+14
6.381769e+14
6.64117e+14
6.811412e+14
6.895849e+14
6.895262e+14
6.809787e+14
6.638748e+14
6.378857e+14
6.025683e+14
5.56799e+14
5.026361e+14
4.404651e+14
3.759033e+14
3.110171e+14
2.288877e+14
1.680945e+14
9.584001e+13
5.612239e+13
5.051434e+13
8.362871e+13
1.282922e+14
2.029864e+14
2.783344e+14
3.401889e+14
4.003203e+14
4.615777e+14
5.127582e+14
5.571362e+14
5.928113e+14
6.204335e+14
6.38935e+14
6.483279e+14
6.482705e+14
6.387708e+14
6.201853e+14
5.925112e+14
5.568199e+14
5.12444e+14
4.612774e+14
4.000709e+14
3.399667e+14
2.781054e+14
2.028621e+14
1.281253e+14
8.353912e+13
5.048957e+13
3.978738e+13
7.591051e+13
1.030838e+14
1.718807e+14
2.265538e+14
2.960347e+14
3.538504e+14
4.093851e+14
4.615615e+14
5.029393e+14
5.371445e+14
5.654294e+14
5.852807e+14
5.959659e+14
5.959222e+14
5.851446e+14
5.65217e+14
5.368858e+14
5.02676e+14
4.613019e+14
4.09138e+14
3.536337e+14
2.958305e+14
2.263322e+14
1.717689e+14
1.029472e+14
7.581041e+13
3.979218e+13
4.427329e+13
8.186154e+13
1.187668e+14
1.868323e+14
2.349559e+14
3.012933e+14
3.538258e+14
4.002784e+14
4.406856e+14
4.76818e+14
5.029419e+14
5.217069e+14
5.323723e+14
5.323452e+14
5.216124e+14
5.02784e+14
4.766237e+14
4.404948e+14
4.000887e+14
3.536432e+14
3.011341e+14
2.348234e+14
1.867273e+14
1.186723e+14
8.177501e+13
4.424717e+13
5.439687e+13
8.717985e+13
1.243797e+14
1.900665e+14
2.349176e+14
2.95993e+14
3.401387e+14
3.760651e+14
4.074135e+14
4.331947e+14
4.535786e+14
4.615676e+14
4.615486e+14
4.535156e+14
4.330994e+14
4.073046e+14
3.759326e+14
3.400029e+14
2.958671e+14
2.348203e+14
1.899709e+14
1.242906e+14
8.710596e+13
5.435237e+13
4.137812e+13
7.372543e+13
9.049771e+13
1.243553e+14
1.868422e+14
2.264923e+14
2.782215e+14
3.111328e+14
3.397694e+14
3.611503e+14
3.761795e+14
3.834924e+14
3.834818e+14
3.761602e+14
3.611071e+14
3.39712e+14
3.110762e+14
2.781829e+14
2.264406e+14
1.867794e+14
1.243039e+14
9.044727e+13
7.367448e+13
4.134582e+13
4.167945e+13
7.371897e+13
8.716639e+13
1.186989e+14
1.717583e+14
2.028242e+14
2.289184e+14
2.691859e+14
2.87486e+14
2.981936e+14
3.03421e+14
3.034138e+14
2.982144e+14
2.8752e+14
2.69209e+14
2.289133e+14
2.028657e+14
1.717977e+14
1.187036e+14
8.714306e+13
7.369245e+13
4.16648e+13
4.136358e+13
5.438944e+13
8.179007e+13
1.029816e+14
1.281327e+14
1.681645e+14
1.833657e+14
1.912438e+14
1.96374e+14
1.991023e+14
1.990759e+14
1.964418e+14
1.913474e+14
1.834691e+14
1.682526e+14
1.281941e+14
1.030024e+14
8.180859e+13
5.437536e+13
4.136225e+13
4.424091e+13
7.58148e+13
8.353358e+13
9.583803e+13
1.082645e+14
1.135052e+14
1.167027e+14
1.182076e+14
1.181775e+14
1.167326e+14
1.135449e+14
1.08305e+14
9.586212e+13
8.353787e+13
7.58457e+13
4.424304e+13
3.974894e+13
5.047041e+13
5.610006e+13
7.861169e+13
8.12464e+13
8.297585e+13
8.383227e+13
8.382296e+13
8.298127e+13
8.124899e+13
7.862866e+13
5.610268e+13
5.045736e+13
3.977273e+13
3.979518e+13
4.729517e+13
4.882955e+13
4.942311e+13
4.941919e+13
4.882519e+13
4.728267e+13
3.976039e+13
3.544415e+13
4.188684e+13
4.312534e+13
4.311758e+13
4.185619e+13
3.544254e+13
3.369628e+13
4.476631e+13
5.122582e+13
6.046309e+13
8.396946e+13
8.807698e+13
8.956916e+13
8.954107e+13
8.800817e+13
8.3895e+13
6.050766e+13
5.130064e+13
4.483351e+13
3.377905e+13
3.396966e+13
4.747454e+13
7.687756e+13
9.335701e+13
1.097076e+14
1.433196e+14
1.576785e+14
1.629206e+14
1.654157e+14
1.653684e+14
1.628069e+14
1.57599e+14
1.43358e+14
1.097643e+14
9.339794e+13
7.695798e+13
4.757165e+13
3.407464e+13
3.854417e+13
7.179884e+13
9.808855e+13
1.455292e+14
1.68126e+14
1.904404e+14
2.114738e+14
2.458329e+14
2.587392e+14
2.63815e+14
2.637724e+14
2.586319e+14
2.457203e+14
2.114082e+14
1.90378e+14
1.681016e+14
1.454653e+14
9.819011e+13
7.187584e+13
3.864142e+13
4.196977e+13
8.319129e+13
1.168603e+14
1.705684e+14
2.075573e+14
2.566348e+14
2.885142e+14
3.127298e+14
3.329498e+14
3.452582e+14
3.509016e+14
3.508636e+14
3.451576e+14
3.32826e+14
3.12632e+14
2.884666e+14
2.566326e+14
2.075712e+14
1.705311e+14
1.169349e+14
8.32276e+13
4.202211e+13
4.404087e+13
9.369719e+13
1.513907e+14
1.901356e+14
2.29459e+14
2.943754e+14
3.408217e+14
3.789673e+14
4.049789e+14
4.243605e+14
4.368296e+14
4.428481e+14
4.42814e+14
4.367375e+14
4.242395e+14
4.048626e+14
3.788752e+14
3.407723e+14
2.943882e+14
2.294798e+14
1.900848e+14
1.513372e+14
9.368027e+13
4.405513e+13
4.198613e+13
9.371212e+13
1.598733e+14
2.058205e+14
2.702917e+14
3.244641e+14
3.802285e+14
4.256363e+14
4.633513e+14
4.948001e+14
5.177852e+14
5.32427e+14
5.395263e+14
5.394988e+14
5.323557e+14
5.176975e+14
4.947255e+14
4.633036e+14
4.256024e+14
3.802049e+14
3.244139e+14
2.702229e+14
2.05736e+14
1.597174e+14
9.368018e+13
4.199625e+13
3.857325e+13
8.320223e+13
1.514546e+14
2.058204e+14
2.78184e+14
3.423612e+14
4.03662e+14
4.569455e+14
5.06168e+14
5.478058e+14
5.819995e+14
6.073429e+14
6.23908e+14
6.319838e+14
6.319644e+14
6.238599e+14
6.072808e+14
5.819424e+14
5.477642e+14
5.061287e+14
4.569038e+14
4.035996e+14
3.42284e+14
2.780843e+14
2.057313e+14
1.513625e+14
8.319975e+13
3.858293e+13
3.399848e+13
7.181362e+13
1.16934e+14
1.901555e+14
2.703192e+14
3.423853e+14
4.116442e+14
4.723175e+14
5.304972e+14
5.831811e+14
6.276289e+14
6.6391e+14
6.914485e+14
7.098459e+14
7.185587e+14
7.185445e+14
7.098088e+14
6.914031e+14
6.63874e+14
6.276059e+14
5.831564e+14
5.304652e+14
4.722599e+14
4.115496e+14
3.422839e+14
2.7022e+14
1.900874e+14
1.169326e+14
7.18241e+13
3.400252e+13
4.75048e+13
9.81555e+13
1.705343e+14
2.295719e+14
3.24513e+14
4.037082e+14
4.723425e+14
5.383348e+14
6.00032e+14
6.550544e+14
7.019254e+14
7.40185e+14
7.691242e+14
7.886939e+14
7.986783e+14
7.98668e+14
7.886663e+14
7.690904e+14
7.401565e+14
7.019011e+14
6.550271e+14
6.000045e+14
5.382908e+14
4.722755e+14
4.036165e+14
3.244204e+14
2.294939e+14
1.705219e+14
9.816016e+13
4.752575e+13
3.373267e+13
7.687294e+13
1.454758e+14
2.075886e+14
2.944871e+14
3.802896e+14
4.570076e+14
5.305467e+14
6.000573e+14
6.640657e+14
7.211238e+14
7.69611e+14
8.09264e+14
8.401177e+14
8.613157e+14
8.72231e+14
8.722189e+14
8.612832e+14
8.400739e+14
8.092159e+14
7.695538e+14
7.210573e+14
6.639981e+14
5.999815e+14
5.304629e+14
4.569112e+14
3.801765e+14
2.943859e+14
2.074643e+14
1.45486e+14
7.688546e+13
3.377027e+13
4.474107e+13
9.33276e+13
1.680698e+14
2.56712e+14
3.408795e+14
4.256852e+14
5.062115e+14
5.832298e+14
6.550892e+14
7.211406e+14
7.7951e+14
8.30114e+14
8.717314e+14
9.038248e+14
9.255963e+14
9.366392e+14
9.366206e+14
9.255436e+14
9.037467e+14
8.716343e+14
8.299966e+14
7.793753e+14
7.209987e+14
6.549482e+14
5.831046e+14
5.060953e+14
4.255554e+14
3.407724e+14
2.565611e+14
1.680041e+14
9.332715e+13
4.47735e+13
5.122529e+13
1.096996e+14
1.904564e+14
2.886087e+14
3.789752e+14
4.633856e+14
5.478341e+14
6.276719e+14
7.019706e+14
7.696538e+14
8.301416e+14
8.826503e+14
9.253809e+14
9.577437e+14
9.794212e+14
9.902932e+14
9.902645e+14
9.793397e+14
9.576205e+14
9.252259e+14
8.824674e+14
8.299373e+14
7.694436e+14
7.017782e+14
6.2752e+14
5.477185e+14
4.632709e+14
3.788871e+14
2.88446e+14
1.90323e+14
1.096435e+14
5.120752e+13
6.046972e+13
1.434279e+14
2.11601e+14
3.128248e+14
4.049819e+14
4.94805e+14
5.820089e+14
6.639449e+14
7.402521e+14
8.093433e+14
8.717982e+14
9.254209e+14
9.685142e+14
1.00073e+15
1.022113e+15
1.032768e+15
1.032735e+15
1.022019e+15
1.000584e+15
9.683285e+14
9.252055e+14
8.715631e+14
8.091072e+14
7.400435e+14
6.637916e+14
5.819078e+14
4.947214e+14
4.049075e+14
3.126696e+14
2.114057e+14
1.432077e+14
6.041521e+13
3.545255e+13
8.393454e+13
1.577936e+14
2.459746e+14
3.330428e+14
4.243766e+14
5.177787e+14
6.073423e+14
6.914744e+14
7.692029e+14
8.402269e+14
9.039315e+14
9.578276e+14
1.000773e+15
1.032678e+15
1.053771e+15
1.06426e+15
1.064235e+15
1.053696e+15
1.032554e+15
1.000602e+15
9.576156e+14
9.036895e+14
8.399778e+14
7.689866e+14
6.913264e+14
6.072444e+14
5.177022e+14
4.242891e+14
3.328773e+14
2.457452e+14
1.575676e+14
8.386902e+13
3.542159e+13
4.184386e+13
8.805997e+13
1.630093e+14
2.588734e+14
3.453604e+14
4.368812e+14
5.324435e+14
6.239221e+14
7.098856e+14
7.887888e+14
8.614545e+14
9.257466e+14
9.795532e+14
1.022196e+15
1.053803e+15
1.074674e+15
1.08505e+15
1.085038e+15
1.074637e+15
1.053731e+15
1.022073e+15
9.793694e+14
9.255146e+14
8.612059e+14
7.885702e+14
7.097297e+14
6.238114e+14
5.323519e+14
4.367715e+14
3.451986e+14
2.586654e+14
1.628227e+14
8.799397e+13
4.185351e+13
4.311149e+13
8.958343e+13
1.655012e+14
2.63976e+14
3.510548e+14
4.429633e+14
5.395963e+14
6.320317e+14
7.186224e+14
7.987928e+14
8.723998e+14
9.36839e+14
9.904926e+14
1.032925e+15
1.064356e+15
1.085097e+15
1.095405e+15
1.095398e+15
1.085073e+15
1.064302e+15
1.032822e+15
9.903294e+14
9.366251e+14
8.721659e+14
7.985811e+14
7.184604e+14
6.319067e+14
5.3948e+14
4.42829e+14
3.508918e+14
2.638034e+14
1.653883e+14
8.954277e+13
4.312072e+13
4.311574e+13
8.960029e+13
1.655509e+14
2.640101e+14
3.510946e+14
4.430081e+14
5.396402e+14
6.320682e+14
7.186493e+14
7.988117e+14
8.724214e+14
9.368723e+14
9.905415e+14
1.032989e+15
1.064429e+15
1.085171e+15
1.095476e+15
1.095462e+15
1.08513e+15
1.064353e+15
1.03287e+15
9.90374e+14
9.366652e+14
8.721996e+14
7.986058e+14
7.184766e+14
6.319215e+14
5.394948e+14
4.428472e+14
3.509248e+14
2.638464e+14
1.654342e+14
8.956615e+13
4.313079e+13
4.188664e+13
8.810315e+13
1.6306e+14
2.589398e+14
3.45465e+14
4.370097e+14
5.325707e+14
6.240377e+14
7.099824e+14
7.88862e+14
8.615328e+14
9.25854e+14
9.796992e+14
1.022381e+15
1.054011e+15
1.074886e+15
1.085254e+15
1.085227e+15
1.07481e+15
1.053888e+15
1.022217e+15
9.794988e+14
9.256279e+14
8.613e+14
7.886412e+14
7.097819e+14
6.238571e+14
5.323874e+14
4.368135e+14
3.452886e+14
2.587851e+14
1.629518e+14
8.806603e+13
4.188993e+13
3.550992e+13
8.394263e+13
1.577989e+14
2.460475e+14
3.331866e+14
4.245794e+14
5.17983e+14
6.075426e+14
6.916584e+14
7.693627e+14
8.40393e+14
9.041333e+14
9.580749e+14
1.001066e+15
1.033006e+15
1.054114e+15
1.064597e+15
1.06455e+15
1.053982e+15
1.032808e+15
1.000824e+15
9.578082e+14
9.03855e+14
8.40117e+14
7.691e+14
6.914128e+14
6.07316e+14
5.177549e+14
4.243397e+14
3.330058e+14
2.459107e+14
1.577261e+14
8.391907e+13
3.550564e+13
6.050674e+13
1.433848e+14
2.116901e+14
3.130008e+14
4.052534e+14
4.950779e+14
5.822958e+14
6.642162e+14
7.405154e+14
8.096239e+14
8.721182e+14
9.25791e+14
9.689334e+14
1.001184e+15
1.022576e+15
1.033211e+15
1.033141e+15
1.022381e+15
1.000895e+15
9.685919e+14
9.254318e+14
8.717618e+14
8.092832e+14
7.402019e+14
6.639302e+14
5.820237e+14
4.948153e+14
4.04976e+14
3.128227e+14
2.115738e+14
1.433659e+14
6.047311e+13
5.125293e+13
1.097689e+14
1.905788e+14
2.887782e+14
3.792816e+14
4.637005e+14
5.481916e+14
6.280232e+14
7.023329e+14
7.700449e+14
8.305728e+14
8.831273e+14
9.258952e+14
9.582724e+14
9.799322e+14
9.90754e+14
9.906693e+14
9.796934e+14
9.579184e+14
9.254771e+14
8.826903e+14
8.301463e+14
7.696456e+14
7.01976e+14
6.276992e+14
5.478831e+14
4.634283e+14
3.789892e+14
2.886175e+14
1.904586e+14
1.096905e+14
5.12081e+13
4.480976e+13
9.343317e+13
1.682488e+14
2.568678e+14
3.411528e+14
4.260237e+14
5.066055e+14
5.836269e+14
6.555036e+14
7.215871e+14
7.799852e+14
8.306187e+14
8.722529e+14
9.043342e+14
9.260614e+14
9.370315e+14
9.369486e+14
9.258258e+14
9.039821e+14
8.718347e+14
8.301805e+14
7.795557e+14
7.211819e+14
6.551392e+14
5.832906e+14
5.062887e+14
4.257658e+14
3.409112e+14
2.567435e+14
1.680909e+14
9.333306e+13
4.474449e+13
3.378295e+13
7.695591e+13
1.457041e+14
2.077073e+14
2.946704e+14
3.805884e+14
4.573705e+14
5.30931e+14
6.004639e+14
6.644975e+14
7.215703e+14
7.700699e+14
8.097228e+14
8.405458e+14
8.61688e+14
8.725295e+14
8.724623e+14
8.614938e+14
8.402524e+14
8.093738e+14
7.697064e+14
7.212127e+14
6.641576e+14
6.001527e+14
5.306404e+14
4.571021e+14
3.803951e+14
2.945207e+14
2.076445e+14
1.45477e+14
7.68853e+13
3.37382e+13
4.75387e+13
9.821005e+13
1.707197e+14
2.29643e+14
3.24759e+14
4.040111e+14
4.726886e+14
5.387115e+14
6.004287e+14
6.554497e+14
7.023116e+14
7.405532e+14
7.694514e+14
7.889663e+14
7.988898e+14
7.988435e+14
7.888293e+14
7.692408e+14
7.403015e+14
7.020497e+14
6.551899e+14
6.001795e+14
5.384839e+14
4.724832e+14
4.038381e+14
3.24629e+14
2.295969e+14
1.706101e+14
9.813954e+13
4.749724e+13
3.399957e+13
7.187613e+13
1.170158e+14
1.903773e+14
2.705724e+14
3.42655e+14
4.119536e+14
4.726622e+14
5.308635e+14
5.83535e+14
6.279553e+14
6.641939e+14
6.916882e+14
7.100478e+14
7.187236e+14
7.186949e+14
7.099651e+14
6.915626e+14
6.640442e+14
6.277944e+14
5.833746e+14
5.307064e+14
4.725157e+14
4.118137e+14
3.42518e+14
2.704355e+14
1.902519e+14
1.169349e+14
7.182958e+13
3.400704e+13
3.857584e+13
8.329421e+13
1.516221e+14
2.059773e+14
2.783748e+14
3.426168e+14
4.039688e+14
4.572725e+14
5.0646e+14
5.480698e+14
5.822233e+14
6.075263e+14
6.24065e+14
6.321194e+14
6.321045e+14
6.240317e+14
6.074756e+14
5.821622e+14
5.480113e+14
5.064092e+14
4.572043e+14
4.038906e+14
3.425506e+14
2.78311e+14
2.059266e+14
1.514919e+14
8.323275e+13
3.857668e+13
4.19938e+13
9.376199e+13
1.600559e+14
2.059231e+14
2.705084e+14
3.246945e+14
3.804698e+14
4.258451e+14
4.635453e+14
4.949565e+14
5.17907e+14
5.325423e+14
5.396463e+14
5.396371e+14
5.325468e+14
5.17925e+14
4.949792e+14
4.635722e+14
4.258775e+14
3.804632e+14
3.246589e+14
2.704892e+14
2.059063e+14
1.600057e+14
9.373557e+13
4.198391e+13
4.4038e+13
9.374177e+13
1.516082e+14
1.903236e+14
2.296617e+14
2.94598e+14
3.409963e+14
3.790985e+14
4.050895e+14
4.244556e+14
4.369446e+14
4.430159e+14
4.429974e+14
4.369618e+14
4.24499e+14
4.051488e+14
3.791757e+14
3.410473e+14
2.945883e+14
2.295921e+14
1.903202e+14
1.516027e+14
9.374713e+13
4.404034e+13
4.195817e+13
8.322462e+13
1.169925e+14
1.706623e+14
2.076004e+14
2.567438e+14
2.886502e+14
3.128915e+14
3.331061e+14
3.454202e+14
3.51067e+14
3.510372e+14
3.453977e+14
3.330897e+14