/*--------------------------------*- C++ -*----------------------------------*\
  =========                 |
  \\      /  F ield         | OpenFOAM: The Open Source CFD Toolbox
   \\    /   O peration     | Website:  https://openfoam.org
    \\  /    A nd           | Version:  6
     \\/     M anipulation  |
\*---------------------------------------------------------------------------*/
FoamFile
{
    version     2.0;
    format      ascii;
    class       volScalarField;
    location    "50/region0/neutronTransport";
    object      flux2;
}
// * * * * * * * * * * * * * * * * * * * * * * * * * * * * * * * * * * * * * //

dimensions      [0 -2 -1 0 0 0 0];

internalField   nonuniform List<scalar> 
203709
(
1.233517e+16
1.403931e+16
1.403757e+16
1.233939e+16
1.295199e+16
1.500974e+16
2.005381e+16
1.967614e+16
1.967353e+16
2.005336e+16
1.500913e+16
1.295291e+16
1.263177e+16
1.50793e+16
2.028034e+16
2.000651e+16
2.062499e+16
2.07692e+16
2.076839e+16
2.062351e+16
2.00039e+16
2.027786e+16
1.507682e+16
1.262966e+16
1.263381e+16
1.971489e+16
1.993715e+16
2.074096e+16
2.114525e+16
2.151886e+16
2.168129e+16
2.168184e+16
2.151649e+16
2.114124e+16
2.073712e+16
1.993296e+16
1.971157e+16
1.263108e+16
1.508068e+16
1.993759e+16
2.086178e+16
2.151076e+16
2.200937e+16
2.237266e+16
2.255265e+16
2.255274e+16
2.236942e+16
2.200504e+16
2.150633e+16
2.085634e+16
1.993211e+16
1.507592e+16
1.295497e+16
2.028216e+16
2.074305e+16
2.151153e+16
2.21911e+16
2.272861e+16
2.310196e+16
2.328571e+16
2.328499e+16
2.309962e+16
2.272582e+16
2.218615e+16
2.150592e+16
2.073797e+16
2.027783e+16
1.295053e+16
1.50109e+16
2.000737e+16
2.114652e+16
2.200933e+16
2.272883e+16
2.328738e+16
2.365753e+16
2.382947e+16
2.382893e+16
2.365686e+16
2.328443e+16
2.272386e+16
2.200514e+16
2.114222e+16
2.000228e+16
1.500696e+16
1.234074e+16
2.005828e+16
2.062903e+16
2.152246e+16
2.237582e+16
2.310323e+16
2.365834e+16
2.399578e+16
2.416353e+16
2.416354e+16
2.399584e+16
2.365573e+16
2.309984e+16
2.237143e+16
2.151709e+16
2.062327e+16
2.005439e+16
1.23329e+16
1.403952e+16
1.967722e+16
2.077204e+16
2.16867e+16
2.25573e+16
2.328804e+16
2.383176e+16
2.416514e+16
2.435167e+16
2.434491e+16
2.416424e+16
2.383115e+16
2.328709e+16
2.255373e+16
2.168109e+16
2.076739e+16
1.967181e+16
1.40337e+16
1.404175e+16
1.968231e+16
2.077416e+16
2.168632e+16
2.255728e+16
2.328902e+16
2.383206e+16
2.416608e+16
2.435836e+16
2.435111e+16
2.416566e+16
2.383177e+16
2.328709e+16
2.255479e+16
2.168214e+16
2.076823e+16
1.96753e+16
1.403718e+16
1.233756e+16
2.006285e+16
2.063136e+16
2.152421e+16
2.237772e+16
2.310593e+16
2.366158e+16
2.400033e+16
2.416938e+16
2.416706e+16
2.399902e+16
2.366015e+16
2.310306e+16
2.237396e+16
2.151898e+16
2.062455e+16
2.005309e+16
1.233483e+16
1.501155e+16
2.001046e+16
2.115086e+16
2.201514e+16
2.273406e+16
2.329341e+16
2.366395e+16
2.383779e+16
2.383449e+16
2.366234e+16
2.328943e+16
2.272882e+16
2.200822e+16
2.114288e+16
2.000316e+16
1.500724e+16
1.295674e+16
2.028749e+16
2.074782e+16
2.151792e+16
2.219769e+16
2.2737e+16
2.310922e+16
2.329537e+16
2.32924e+16
2.310692e+16
2.27312e+16
2.219082e+16
2.150988e+16
2.073952e+16
2.027878e+16
1.295089e+16
1.508524e+16
1.994436e+16
2.087044e+16
2.152072e+16
2.201965e+16
2.238345e+16
2.257467e+16
2.257195e+16
2.237767e+16
2.201149e+16
2.151085e+16
2.086022e+16
1.993629e+16
1.507854e+16
1.263998e+16
1.972685e+16
1.994718e+16
2.075214e+16
2.11548e+16
2.152822e+16
2.169998e+16
2.16979e+16
2.152234e+16
2.11462e+16
2.074059e+16
1.993413e+16
1.971407e+16
1.262927e+16
1.26397e+16
1.508685e+16
2.029053e+16
2.001195e+16
2.063203e+16
2.078028e+16
2.078076e+16
2.062761e+16
2.000652e+16
2.028026e+16
1.507507e+16
1.262909e+16
1.295608e+16
1.501162e+16
2.006039e+16
1.968923e+16
1.969181e+16
2.00573e+16
1.500757e+16
1.295044e+16
1.233706e+16
1.40381e+16
1.403909e+16
1.233626e+16
1.026521e+16
1.208742e+16
1.262031e+16
1.298337e+16
1.321218e+16
1.321272e+16
1.298513e+16
1.262311e+16
1.20916e+16
1.027126e+16
1.050903e+16
1.270851e+16
1.749675e+16
1.796478e+16
1.865367e+16
1.950965e+16
2.019553e+16
2.019631e+16
1.951338e+16
1.865513e+16
1.796243e+16
1.749227e+16
1.270538e+16
1.050809e+16
1.074074e+16
1.716096e+16
1.801483e+16
1.95202e+16
2.106166e+16
2.237783e+16
2.449065e+16
2.612071e+16
2.612103e+16
2.449285e+16
2.237465e+16
2.105595e+16
1.951762e+16
1.801288e+16
1.716291e+16
1.074429e+16
1.084723e+16
1.7469e+16
1.903139e+16
2.095801e+16
2.302629e+16
2.655786e+16
3.115894e+16
3.752896e+16
3.934948e+16
3.934884e+16
3.7523e+16
3.115489e+16
2.65566e+16
2.302716e+16
2.095889e+16
1.903262e+16
1.746801e+16
1.085106e+16
1.074027e+16
1.746693e+16
1.923631e+16
2.150755e+16
2.597091e+16
3.164188e+16
3.9661e+16
4.448775e+16
4.81043e+16
5.378793e+16
5.378615e+16
4.810271e+16
4.448402e+16
3.965407e+16
3.16412e+16
2.596855e+16
2.150891e+16
1.923558e+16
1.746537e+16
1.074282e+16
1.051045e+16
1.716621e+16
1.903295e+16
2.151037e+16
2.792897e+16
3.830846e+16
4.444514e+16
4.952569e+16
5.760964e+16
6.118847e+16
6.330845e+16
6.33063e+16
6.118277e+16
5.760105e+16
4.951722e+16
4.443534e+16
3.829518e+16
2.792129e+16
2.150315e+16
1.902831e+16
1.71632e+16
1.051141e+16
1.270534e+16
1.801478e+16
2.095939e+16
2.597376e+16
3.830933e+16
4.704692e+16
5.666907e+16
6.191201e+16
6.600579e+16
6.851594e+16
6.979506e+16
6.979263e+16
6.850843e+16
6.599547e+16
6.189933e+16
5.665326e+16
4.703075e+16
3.829444e+16
2.596227e+16
2.095377e+16
1.801184e+16
1.270492e+16
1.026984e+16
1.749582e+16
1.951895e+16
2.302906e+16
3.164427e+16
4.445432e+16
5.667342e+16
6.381223e+16
6.834992e+16
7.14674e+16
7.343621e+16
7.440578e+16
7.440328e+16
7.342826e+16
7.145649e+16
6.833622e+16
6.379577e+16
5.665675e+16
4.444125e+16
3.163803e+16
2.302581e+16
1.951458e+16
1.749064e+16
1.026557e+16
1.209167e+16
1.797038e+16
2.106177e+16
2.656556e+16
3.967684e+16
4.954164e+16
6.192283e+16
6.835555e+16
7.243911e+16
7.516774e+16
7.688236e+16
7.771523e+16
7.771276e+16
7.687513e+16
7.515714e+16
7.242497e+16
6.833885e+16
6.190519e+16
4.952635e+16
3.966457e+16
2.655322e+16
2.105573e+16
1.796303e+16
1.208587e+16
1.262407e+16
1.866224e+16
2.237956e+16
3.11616e+16
4.450875e+16
5.76294e+16
6.602179e+16
7.147887e+16
7.517455e+16
7.768791e+16
7.927422e+16
8.004761e+16
8.0045e+16
7.926716e+16
7.767638e+16
7.515952e+16
7.146238e+16
6.600387e+16
5.760928e+16
4.448427e+16
3.115476e+16
2.237605e+16
1.865249e+16
1.261771e+16
1.298606e+16
1.951954e+16
2.450212e+16
3.754674e+16
4.812992e+16
6.121453e+16
6.853829e+16
7.34551e+16
7.689727e+16
7.928306e+16
8.079216e+16
8.152971e+16
8.152591e+16
8.078332e+16
7.926948e+16
7.688156e+16
7.343924e+16
6.852184e+16
6.119624e+16
4.811054e+16
3.7536e+16
2.449096e+16
1.950959e+16
1.298151e+16
1.321274e+16
2.020025e+16
2.612789e+16
3.93701e+16
5.38166e+16
6.333854e+16
6.982382e+16
7.443208e+16
7.773787e+16
8.006531e+16
8.153984e+16
8.226443e+16
8.225681e+16
8.152874e+16
8.005154e+16
7.772301e+16
7.441704e+16
6.980885e+16
6.332356e+16
5.380154e+16
3.936009e+16
2.612144e+16
2.019509e+16
1.320978e+16
1.32108e+16
2.019587e+16
2.612254e+16
3.936626e+16
5.381758e+16
6.334171e+16
6.982756e+16
7.443619e+16
7.774238e+16
8.006984e+16
8.154564e+16
8.227357e+16
8.226572e+16
8.153513e+16
8.005701e+16
7.772798e+16
7.442186e+16
6.981374e+16
6.3329e+16
5.380624e+16
3.935812e+16
2.611757e+16
2.019209e+16
1.320804e+16
1.298147e+16
1.951468e+16
2.450223e+16
3.75509e+16
4.812968e+16
6.122193e+16
6.854952e+16
7.346807e+16
7.691138e+16
7.929831e+16
8.080957e+16
8.154995e+16
8.154484e+16
8.080062e+16
7.928643e+16
7.689769e+16
7.345446e+16
6.853683e+16
6.121153e+16
4.812362e+16
3.754311e+16
2.449684e+16
1.951163e+16
1.297893e+16
1.262172e+16
1.866257e+16
2.23873e+16
3.117103e+16
4.451412e+16
5.764308e+16
6.604085e+16
7.150141e+16
7.519906e+16
7.771474e+16
7.930338e+16
8.007971e+16
8.007537e+16
7.929615e+16
7.770381e+16
7.518584e+16
7.148796e+16
6.602853e+16
5.763279e+16
4.450864e+16
3.115913e+16
2.237719e+16
1.865918e+16
1.261921e+16
1.209243e+16
1.797549e+16
2.107188e+16
2.657134e+16
3.969379e+16
4.956295e+16
6.195008e+16
6.838656e+16
7.247297e+16
7.520527e+16
7.692255e+16
7.775765e+16
7.775404e+16
7.691657e+16
7.519594e+16
7.246119e+16
6.837378e+16
6.193686e+16
4.954751e+16
3.967887e+16
2.656336e+16
2.106078e+16
1.796997e+16
1.20891e+16
1.027181e+16
1.750547e+16
1.953041e+16
2.303844e+16
3.166433e+16
4.448046e+16
5.670753e+16
6.385112e+16
6.839319e+16
7.15146e+16
7.348692e+16
7.445518e+16
7.445222e+16
7.348048e+16
7.150533e+16
6.838135e+16
6.383794e+16
5.669279e+16
4.446236e+16
3.164686e+16
2.302845e+16
1.951861e+16
1.749692e+16
1.026879e+16
1.271654e+16
1.802542e+16
2.096997e+16
2.598886e+16
3.833793e+16
4.708171e+16
5.671239e+16
6.196185e+16
6.605963e+16
6.857362e+16
6.98479e+16
6.984563e+16
6.856701e+16
6.604981e+16
6.194892e+16
5.669864e+16
4.706659e+16
3.83191e+16
2.59729e+16
2.096032e+16
1.801403e+16
1.270433e+16
1.051965e+16
1.717406e+16
1.904375e+16
2.1523e+16
2.794888e+16
3.833912e+16
4.44869e+16
4.957625e+16
5.766484e+16
6.124926e+16
6.336576e+16
6.336533e+16
6.124336e+16
5.765487e+16
4.956121e+16
4.447371e+16
3.832611e+16
2.793296e+16
2.150884e+16
1.903402e+16
1.716458e+16
1.050654e+16
1.074953e+16
1.748386e+16
1.925158e+16
2.152024e+16
2.598527e+16
3.166464e+16
3.970443e+16
4.453471e+16
4.815374e+16
5.383694e+16
5.383819e+16
4.814973e+16
4.452431e+16
3.968808e+16
3.165296e+16
2.597467e+16
2.150873e+16
1.923961e+16
1.74733e+16
1.073967e+16
1.085624e+16
1.748096e+16
1.90419e+16
2.097069e+16
2.303996e+16
2.65681e+16
3.117444e+16
3.756533e+16
3.938392e+16
3.938342e+16
3.755723e+16
3.116638e+16
2.656364e+16
2.302927e+16
2.095903e+16
1.903125e+16
1.747166e+16
1.084938e+16
1.074315e+16
1.717183e+16
1.802245e+16
1.952454e+16
2.106433e+16
2.238664e+16
2.450571e+16
2.613205e+16
2.613102e+16
2.450184e+16
2.237847e+16
2.106059e+16
1.952174e+16
1.801655e+16
1.716369e+16
1.073811e+16
1.051492e+16
1.271082e+16
1.750157e+16
1.797401e+16
1.866496e+16
1.952027e+16
2.020515e+16
2.020509e+16
1.951882e+16
1.866057e+16
1.796839e+16
1.750139e+16
1.271003e+16
1.051223e+16
1.026722e+16
1.208882e+16
1.26202e+16
1.298217e+16
1.321144e+16
1.321132e+16
1.298499e+16
1.262324e+16
1.209063e+16
1.026669e+16
8.651585e+15
1.017529e+16
1.049984e+16
1.061873e+16
1.061664e+16
1.049349e+16
1.016291e+16
8.643694e+15
8.646953e+15
1.082781e+16
1.200405e+16
1.637822e+16
1.6957e+16
1.731697e+16
1.747914e+16
1.747682e+16
1.730936e+16
1.694457e+16
1.637319e+16
1.200449e+16
1.083045e+16
8.655715e+15
9.604585e+15
1.580973e+16
1.741554e+16
1.977809e+16
2.222002e+16
2.326987e+16
2.3907e+16
2.420045e+16
2.419811e+16
2.390003e+16
2.325886e+16
2.220821e+16
1.977228e+16
1.741241e+16
1.580956e+16
9.61396e+15
8.975445e+15
1.165349e+16
1.705676e+16
2.117489e+16
2.595443e+16
3.290816e+16
3.573796e+16
3.724375e+16
3.822304e+16
3.872461e+16
3.872026e+16
3.821046e+16
3.722416e+16
3.571354e+16
3.288409e+16
2.594199e+16
2.117268e+16
1.705179e+16
1.165527e+16
8.976353e+15
9.052918e+15
1.539436e+16
1.814689e+16
2.415804e+16
3.358553e+16
3.936535e+16
4.420716e+16
5.173798e+16
5.518135e+16
5.719671e+16
5.818551e+16
5.818044e+16
5.718297e+16
5.516163e+16
5.171659e+16
4.419306e+16
3.935255e+16
3.357074e+16
2.414712e+16
1.814655e+16
1.538907e+16
9.052301e+15
8.975768e+15
1.539857e+16
1.882407e+16
2.526318e+16
3.641078e+16
4.374783e+16
5.342811e+16
5.960579e+16
6.498084e+16
6.898984e+16
7.178485e+16
7.315519e+16
7.314971e+16
7.177102e+16
6.896612e+16
6.495045e+16
5.95749e+16
5.339611e+16
4.372012e+16
3.638944e+16
2.52574e+16
1.881648e+16
1.539079e+16
8.974933e+15
1.165872e+16
1.815136e+16
2.526663e+16
3.703736e+16
4.53572e+16
5.676703e+16
6.504699e+16
7.179073e+16
7.765189e+16
8.245321e+16
8.615387e+16
8.762282e+16
8.761654e+16
8.613515e+16
8.242539e+16
7.762017e+16
7.175854e+16
6.501281e+16
5.673455e+16
4.532874e+16
3.700855e+16
2.525445e+16
1.814603e+16
1.16567e+16
9.616246e+15
1.705803e+16
2.41573e+16
3.642099e+16
4.535757e+16
5.777016e+16
6.761445e+16
7.631001e+16
8.385929e+16
9.051328e+16
9.536761e+16
9.884876e+16
1.008376e+17
1.008316e+17
9.883126e+16
9.534082e+16
9.048042e+16
8.382356e+16
7.627221e+16
6.758048e+16
5.773766e+16
4.533224e+16
3.639818e+16
2.414846e+16
1.705293e+16
9.61146e+15
8.650554e+15
1.581517e+16
2.11785e+16
3.359027e+16
4.376627e+16
5.678325e+16
6.762337e+16
7.799073e+16
8.765466e+16
9.536781e+16
1.017383e+17
1.070214e+17
1.107337e+17
1.127394e+17
1.127335e+17
1.107168e+17
1.069957e+17
1.017064e+17
9.532984e+16
8.761348e+16
7.795204e+16
6.758515e+16
5.674823e+16
4.373764e+16
3.356331e+16
2.117319e+16
1.580916e+16
8.645053e+15
1.083426e+16
1.742129e+16
2.595555e+16
3.938554e+16
5.344917e+16
6.506932e+16
7.632278e+16
8.765942e+16
9.718174e+16
1.054713e+17
1.121436e+17
1.173163e+17
1.207865e+17
1.225572e+17
1.225515e+17
1.207703e+17
1.172922e+17
1.121132e+17
1.054352e+17
9.714267e+16
8.761985e+16
7.628347e+16
6.50335e+16
5.341694e+16
3.935213e+16
2.5948e+16
1.741739e+16
1.082862e+16
1.200732e+16
1.977847e+16
3.290349e+16
4.423787e+16
5.96336e+16
7.181823e+16
8.387686e+16
9.538129e+16
1.054788e+17
1.140394e+17
1.206505e+17
1.255133e+17
1.28709e+17
1.303011e+17
1.302958e+17
1.286941e+17
1.254912e+17
1.206228e+17
1.140072e+17
1.054443e+17
9.534641e+16
8.384318e+16
7.178569e+16
5.960393e+16
4.420806e+16
3.29028e+16
1.977863e+16
1.200432e+16
8.65353e+15
1.63833e+16
2.221553e+16
3.573965e+16
5.177009e+16
6.501596e+16
7.768595e+16
9.054463e+16
1.017648e+17
1.121621e+17
1.206605e+17
1.270872e+17
1.317078e+17
1.347058e+17
1.361835e+17
1.361786e+17
1.346921e+17
1.316871e+17
1.270615e+17
1.20631e+17
1.121302e+17
1.01732e+17
9.051212e+16
7.765323e+16
6.49865e+16
5.174318e+16
3.573896e+16
2.221777e+16
1.637541e+16
8.649868e+15
1.016965e+16
1.695543e+16
2.327209e+16
3.725712e+16
5.521846e+16
6.903315e+16
8.249249e+16
9.540871e+16
1.070583e+17
1.17346e+17
1.25535e+17
1.317201e+17
1.361535e+17
1.39022e+17
1.404333e+17
1.404282e+17
1.390079e+17
1.361325e+17
1.316948e+17
1.255073e+17
1.173166e+17
1.070272e+17
9.537724e+16
8.24665e+16
6.900557e+16
5.519392e+16
3.725037e+16
2.326855e+16
1.695278e+16
1.016952e+16
1.049899e+16
1.731915e+16
2.391376e+16
3.82471e+16
5.724214e+16
7.18397e+16
8.620802e+16
9.890172e+16
1.107825e+17
1.208286e+17
1.287441e+17
1.347327e+17
1.390374e+17
1.418235e+17
1.43193e+17
1.431867e+17
1.418072e+17
1.390141e+17
1.347066e+17
1.287177e+17
1.208023e+17
1.107554e+17
9.887473e+16
8.61833e+16
7.181234e+16
5.721919e+16
3.823557e+16
2.390839e+16
1.731512e+16
1.049593e+16
1.062316e+16
1.748869e+16
2.421391e+16
3.875834e+16
5.823923e+16
7.321674e+16
8.768772e+16
1.00902e+17
1.128005e+17
1.226129e+17
1.303506e+17
1.362254e+17
1.404648e+17
1.432104e+17
1.445596e+17
1.445518e+17
1.43192e+17
1.404403e+17
1.361989e+17
1.303251e+17
1.225889e+17
1.127772e+17
1.00879e+17
8.76658e+16
7.319415e+16
5.821806e+16
3.874401e+16
2.420516e+16
1.748062e+16
1.061812e+16
1.062432e+16
1.749045e+16
2.421597e+16
3.87622e+16
5.824195e+16
7.321875e+16
8.769105e+16
1.009071e+17
1.128076e+17
1.226213e+17
1.303598e+17
1.362352e+17
1.40475e+17
1.432215e+17
1.44572e+17
1.445641e+17
1.432035e+17
1.404511e+17
1.362095e+17
1.303354e+17
1.225992e+17
1.127874e+17
1.008878e+17
8.767153e+16
7.319904e+16
5.82223e+16
3.874586e+16
2.42056e+16
1.748105e+16
1.061882e+16
1.050426e+16
1.732687e+16
2.392142e+16
3.825891e+16
5.725074e+16
7.185087e+16
8.622492e+16
9.891918e+16
1.108039e+17
1.20854e+17
1.287722e+17
1.347626e+17
1.390688e+17
1.41857e+17
1.432283e+17
1.432217e+17
1.41841e+17
1.390471e+17
1.347389e+17
1.287497e+17
1.208341e+17
1.107864e+17
9.890246e+16
8.620601e+16
7.183272e+16
5.723152e+16
3.82377e+16
2.390899e+16
1.731644e+16
1.049812e+16
1.018048e+16
1.696826e+16
2.328462e+16
3.727813e+16
5.523376e+16
6.905461e+16
8.252316e+16
9.544161e+16
1.070955e+17
1.173885e+17
1.25582e+17
1.317706e+17
1.36207e+17
1.390782e+17
1.404915e+17
1.404862e+17
1.390652e+17
1.361887e+17
1.317501e+17
1.255622e+17
1.173707e+17
1.070791e+17
9.542506e+16
8.250323e+16
6.903615e+16
5.521378e+16
3.724907e+16
2.326907e+16
1.695672e+16
1.01736e+16
8.665234e+15
1.639496e+16
2.223748e+16
3.577378e+16
5.17914e+16
6.50469e+16
7.7722e+16
9.059064e+16
1.018176e+17
1.122214e+17
1.207255e+17
1.271573e+17
1.317825e+17
1.347841e+17
1.362634e+17
1.362592e+17
1.34774e+17
1.317681e+17
1.271408e+17
1.207088e+17
1.12205e+17
1.018008e+17
9.057477e+16
7.770779e+16
6.502871e+16
5.177294e+16
3.573751e+16
2.221965e+16
1.638601e+16
8.658331e+15
1.201818e+16
1.980021e+16
3.294506e+16
4.425801e+16
5.967166e+16
7.185867e+16
8.393151e+16
9.544615e+16
1.055518e+17
1.141198e+17
1.207384e+17
1.256074e+17
1.288072e+17
1.303988e+17
1.303956e+17
1.287988e+17
1.255954e+17
1.207245e+17
1.141053e+17
1.055364e+17
9.542949e+16
8.391774e+16
7.184628e+16
5.965164e+16
4.424616e+16
3.290567e+16
1.97807e+16
1.200938e+16
1.083912e+16
1.743722e+16
2.598532e+16
3.941425e+16
5.349231e+16
6.511238e+16
7.637795e+16
8.772979e+16
9.72624e+16
1.055629e+17
1.122461e+17
1.174265e+17
1.209014e+17
1.226702e+17
1.226674e+17
1.208934e+17
1.174147e+17
1.122324e+17
1.055496e+17
9.724876e+16
8.771467e+16
7.636568e+16
6.509807e+16
5.34692e+16
3.940275e+16
2.595938e+16
1.74231e+16
1.083556e+16
8.650664e+15
1.583314e+16
2.120348e+16
3.362178e+16
4.380474e+16
5.68263e+16
6.767772e+16
7.80606e+16
8.773782e+16
9.546562e+16
1.018508e+17
1.071422e+17
1.108601e+17
1.128652e+17
1.128631e+17
1.108521e+17
1.071291e+17
1.018354e+17
9.545257e+16
8.772564e+16
7.804792e+16
6.76658e+16
5.681083e+16
4.377877e+16
3.361071e+16
2.118217e+16
1.581693e+16
8.652969e+15
9.615981e+15
1.707491e+16
2.418107e+16
3.644702e+16
4.540033e+16
5.782391e+16
6.76829e+16
7.639047e+16
8.395429e+16
9.06256e+16
9.54893e+16
9.897623e+16
1.009653e+17
1.009638e+17
9.896885e+16
9.547572e+16
9.060957e+16
8.394136e+16
7.637838e+16
6.767089e+16
5.781313e+16
4.538971e+16
3.643773e+16
2.416879e+16
1.706197e+16
9.612423e+15
1.166488e+16
1.816712e+16
2.528857e+16
3.707177e+16
4.539887e+16
5.683385e+16
6.512817e+16
7.188328e+16
7.775208e+16
8.25636e+16
8.627614e+16
8.774858e+16
8.774631e+16
8.626825e+16
8.255212e+16
7.774045e+16
7.186916e+16
6.51144e+16
5.682169e+16
4.539007e+16
3.706161e+16
2.52765e+16
1.815548e+16
1.165746e+16
8.984895e+15
1.541213e+16
1.884027e+16
2.528671e+16
3.645718e+16
4.380922e+16
5.349671e+16
5.968663e+16
6.507115e+16
6.908892e+16
7.189224e+16
7.326428e+16
7.326206e+16
7.188804e+16
6.908038e+16
6.50608e+16
5.967769e+16
5.349209e+16
4.380249e+16
3.644859e+16
2.527904e+16
1.883189e+16
1.540318e+16
8.978765e+15
9.058317e+15
1.541248e+16
1.816856e+16
2.4176e+16
3.361345e+16
3.940477e+16
4.426627e+16
5.180515e+16
5.525248e+16
5.727412e+16
5.826531e+16
5.826309e+16
5.727542e+16
5.525504e+16
5.18054e+16
4.42621e+16
3.941011e+16
3.36193e+16
2.417606e+16
1.81634e+16
1.540664e+16
9.054951e+15
8.983831e+15
1.16671e+16
1.706816e+16
2.119379e+16
2.596912e+16
3.293149e+16
3.575993e+16
3.726663e+16
3.825431e+16
3.878048e+16
3.877474e+16
3.826452e+16
3.728217e+16
3.577471e+16
3.294362e+16
2.597724e+16
2.11951e+16
1.706917e+16
1.166265e+16
8.982322e+15
9.613776e+15
1.582192e+16
1.742816e+16
1.978884e+16
2.222484e+16
2.3273e+16
2.391325e+16
2.421634e+16
2.421014e+16
2.391729e+16
2.327796e+16
2.22293e+16
1.979004e+16
1.742584e+16
1.582569e+16
9.612406e+15
8.647105e+15
1.083582e+16
1.20102e+16
1.638738e+16
1.695779e+16
1.731866e+16
1.749634e+16
1.749412e+16
1.731831e+16
1.695623e+16
1.638831e+16
1.20088e+16
1.083151e+16
8.650482e+15
8.658133e+15
1.017217e+16
1.049689e+16
1.062332e+16
1.062225e+16
1.049528e+16
1.016859e+16
8.649956e+15
7.700228e+15
8.995286e+15
9.252561e+15
9.250142e+15
8.986844e+15
7.696423e+15
7.33898e+15
9.601525e+15
1.093525e+16
1.273927e+16
1.71978e+16
1.80151e+16
1.831464e+16
1.830753e+16
1.799684e+16
1.717579e+16
1.27396e+16
1.094048e+16
9.604903e+15
7.347144e+15
7.397734e+15
1.016547e+16
1.583315e+16
1.906144e+16
2.216459e+16
2.799971e+16
3.065379e+16
3.165041e+16
3.212605e+16
3.211468e+16
3.162151e+16
3.06261e+16
2.798985e+16
2.215734e+16
1.905021e+16
1.583136e+16
1.017303e+16
7.410161e+15
8.376575e+15
1.492561e+16
1.994069e+16
2.84218e+16
3.266225e+16
3.685646e+16
4.076264e+16
4.717381e+16
4.959267e+16
5.054503e+16
5.053344e+16
4.956157e+16
4.713436e+16
4.072685e+16
3.681755e+16
3.262888e+16
2.838233e+16
1.993936e+16
1.492497e+16
8.387878e+15
9.090917e+15
1.710655e+16
2.358752e+16
3.318607e+16
4.004131e+16
4.921969e+16
5.51776e+16
5.971308e+16
6.349933e+16
6.580655e+16
6.686375e+16
6.685215e+16
6.577412e+16
6.345315e+16
5.966309e+16
5.513081e+16
4.917954e+16
4.000841e+16
3.314937e+16
2.358028e+16
1.709908e+16
9.094284e+15
9.514722e+15
1.906458e+16
2.954132e+16
3.682984e+16
4.418216e+16
5.630079e+16
6.497379e+16
7.202168e+16
7.687127e+16
8.049811e+16
8.283399e+16
8.39603e+16
8.394855e+16
8.280055e+16
8.044818e+16
7.681179e+16
7.1959e+16
6.491657e+16
5.625803e+16
4.415013e+16
3.679166e+16
2.951001e+16
1.904824e+16
9.510967e+15
9.094868e+15
1.906821e+16
3.112221e+16
3.971963e+16
5.181129e+16
6.193717e+16
7.228384e+16
8.075679e+16
8.779127e+16
9.366948e+16
9.796912e+16
1.007073e+17
1.020329e+17
1.020213e+17
1.006744e+17
9.792052e+16
9.361185e+16
8.773032e+16
8.069493e+16
7.222553e+16
6.18809e+16
5.176079e+16
3.967699e+16
3.107351e+16
1.904973e+16
9.090446e+15
8.383645e+15
1.711062e+16
2.955592e+16
3.972192e+16
5.329356e+16
6.529886e+16
7.668483e+16
8.662138e+16
9.582684e+16
1.036176e+17
1.100147e+17
1.147526e+17
1.178417e+17
1.193447e+17
1.193333e+17
1.178095e+17
1.147033e+17
1.09954e+17
1.035511e+17
9.575674e+16
8.655161e+16
7.661659e+16
6.5237e+16
5.323811e+16
3.967962e+16
2.952016e+16
1.70985e+16
8.379266e+15
7.405073e+15
1.493145e+16
2.360637e+16
3.684005e+16
5.182371e+16
6.530861e+16
7.819147e+16
8.951676e+16
1.004017e+17
1.102657e+17
1.185869e+17
1.253705e+17
1.305115e+17
1.339276e+17
1.355424e+17
1.355308e+17
1.338942e+17
1.304609e+17
1.25309e+17
1.18519e+17
1.101931e+17
1.003274e+17
8.94414e+16
7.811629e+16
6.524226e+16
5.176888e+16
3.680235e+16
2.358977e+16
1.492242e+16
7.400117e+15
1.017454e+16
1.995967e+16
3.318954e+16
4.421518e+16
6.196105e+16
7.670717e+16
8.952983e+16
1.018832e+17
1.13437e+17
1.237374e+17
1.325079e+17
1.396507e+17
1.450536e+17
1.487006e+17
1.505571e+17
1.505458e+17
1.486682e+17
1.450045e+17
1.395905e+17
1.324402e+17
1.236647e+17
1.133627e+17
1.018073e+17
8.945419e+16
7.663439e+16
6.189885e+16
4.416936e+16
3.316418e+16
1.99465e+16
1.017122e+16
7.349329e+15
1.583896e+16
2.842328e+16
4.006319e+16
5.634389e+16
7.232134e+16
8.665821e+16
1.004301e+17
1.134514e+17
1.254315e+17
1.360994e+17
1.451724e+17
1.525906e+17
1.583625e+17
1.623253e+17
1.643617e+17
1.643512e+17
1.622953e+17
1.583172e+17
1.525345e+17
1.451081e+17
1.360296e+17
1.253591e+17
1.133762e+17
1.003541e+17
8.658363e+16
7.225121e+16
5.628664e+16
4.001295e+16
2.840611e+16
1.583016e+16
7.351494e+15
9.601681e+15
1.906583e+16
3.266945e+16
4.926122e+16
6.501976e+16
8.080631e+16
9.587418e+16
1.103056e+17
1.237625e+17
1.361102e+17
1.470294e+17
1.565065e+17
1.643042e+17
1.703181e+17
1.743964e+17
1.764622e+17
1.764529e+17
1.7437e+17
1.702782e+17
1.642547e+17
1.564495e+17
1.46967e+17
1.360441e+17
1.236931e+17
1.102346e+17
9.580254e+16
8.073487e+16
6.495972e+16
4.920211e+16
3.263635e+16
1.905291e+16
9.601157e+15
1.094265e+16
2.217872e+16
3.688514e+16
5.52341e+16
7.207316e+16
8.785376e+16
1.036769e+17
1.186373e+17
1.325432e+17
1.451946e+17
1.565176e+17
1.663589e+17
1.743729e+17
1.80444e+17
1.845104e+17
1.865487e+17
1.865407e+17
1.844878e+17
1.8041e+17
1.743309e+17
1.663112e+17
1.564654e+17
1.451387e+17
1.324838e+17
1.185749e+17
1.036122e+17
8.778695e+16
7.201524e+16
5.517024e+16
3.683666e+16
2.215207e+16
1.09309e+16
1.275139e+16
2.804311e+16
4.082056e+16
5.97818e+16
7.693657e+16
9.37429e+16
1.100863e+17
1.254325e+17
1.397001e+17
1.526275e+17
1.643292e+17
1.743862e+17
1.824733e+17
1.885206e+17
1.925343e+17
1.945335e+17
1.945265e+17
1.925144e+17
1.884909e+17
1.824373e+17
1.74346e+17
1.642853e+17
1.525803e+17
1.396495e+17
1.253781e+17
1.100285e+17
9.368303e+16
7.688048e+16
5.971718e+16
4.075764e+16
2.798221e+16
1.273036e+16
7.709148e+15
1.720789e+16
3.070412e+16
4.724585e+16
6.35789e+16
8.057892e+16
9.805547e+16
1.148381e+17
1.30587e+17
1.451183e+17
1.584155e+17
1.703594e+17
1.804738e+17
1.885373e+17
1.945282e+17
1.984867e+17
2.004529e+17
2.004458e+17
1.984669e+17
1.944994e+17
1.885039e+17
1.804383e+17
1.703221e+17
1.583758e+17
1.45076e+17
1.30542e+17
1.147875e+17
9.800179e+16
8.05235e+16
6.351325e+16
4.717402e+16
3.064029e+16
1.718059e+16
7.696104e+15
8.995723e+15
1.803051e+16
3.169931e+16
4.966994e+16
6.589598e+16
8.293115e+16
1.0081e+17
1.179445e+17
1.34022e+17
1.487842e+17
1.623972e+17
1.744567e+17
1.845596e+17
1.925712e+17
1.985076e+17
2.024226e+17
2.043641e+17
2.04356e+17
2.024005e+17
1.984765e+17
1.925373e+17
1.845263e+17
1.744243e+17
1.623639e+17
1.487489e+17
1.339835e+17
1.178999e+17
1.007616e+17
8.287846e+16
6.583578e+16
4.960459e+16
3.164404e+16
1.800367e+16
8.99003e+15
9.259398e+15
1.833743e+16
3.217691e+16
5.063157e+16
6.696796e+16
8.407574e+16
1.021544e+17
1.194659e+17
1.356571e+17
1.506617e+17
1.64455e+17
1.765441e+17
1.866194e+17
1.945923e+17
2.004966e+17
2.043881e+17
2.063165e+17
2.063073e+17
2.043638e+17
2.004635e+17
1.945574e+17
1.865869e+17
1.765144e+17
1.644261e+17
1.506315e+17
1.356236e+17
1.194271e+17
1.021106e+17
8.402712e+16
6.691462e+16
5.057799e+16
3.213856e+16
1.831742e+16
9.254274e+15
9.260078e+15
1.834051e+16
3.218575e+16
5.063724e+16
6.697431e+16
8.40827e+16
1.021616e+17
1.194737e+17
1.356664e+17
1.506725e+17
1.644675e+17
1.76558e+17
1.866344e+17
1.94608e+17
2.005128e+17
2.044048e+17
2.063336e+17
2.063243e+17
2.043804e+17
2.004796e+17
1.945733e+17
1.866027e+17
1.765301e+17
1.644416e+17
1.506459e+17
1.356365e+17
1.194394e+17
1.02122e+17
8.403811e+16
6.692744e+16
5.05916e+16
3.215097e+16
1.83243e+16
9.257333e+15
9.003617e+15
1.803787e+16
3.170738e+16
4.968029e+16
6.591246e+16
8.295112e+16
1.008308e+17
1.179684e+17
1.340516e+17
1.488177e+17
1.624349e+17
1.744987e+17
1.846049e+17
1.926189e+17
1.985569e+17
2.024733e+17
2.044156e+17
2.044071e+17
2.024508e+17
1.98526e+17
1.925864e+17
1.845754e+17
1.744731e+17
1.624116e+17
1.487936e+17
1.340242e+17
1.179373e+17
1.00794e+17
8.290876e+16
6.58718e+16
4.964259e+16
3.167877e+16
1.802413e+16
9.000126e+15
7.719887e+15
1.720721e+16
3.070273e+16
4.725629e+16
6.36012e+16
8.061069e+16
9.808882e+16
1.148778e+17
1.306363e+17
1.451749e+17
1.584787e+17
1.704292e+17
1.805494e+17
1.886175e+17
1.946116e+17
1.985724e+17
2.005397e+17
2.005326e+17
1.985534e+17
1.945854e+17
1.885897e+17
1.805241e+17
1.70407e+17
1.584581e+17
1.451531e+17
1.306112e+17
1.148491e+17
9.805392e+16
8.056876e+16
6.356661e+16
4.722758e+16
3.068497e+16
1.719924e+16
7.716683e+15
1.275693e+16
2.803253e+16
4.083375e+16
5.980937e+16
7.698006e+16
9.378762e+16
1.101407e+17
1.254974e+17
1.397766e+17
1.527143e+17
1.644255e+17
1.744908e+17
1.825849e+17
1.886377e+17
1.926551e+17
1.946563e+17
1.946507e+17
1.926403e+17
1.886171e+17
1.825631e+17
1.744707e+17
1.644072e+17
1.526967e+17
1.397585e+17
1.254769e+17
1.101147e+17
9.37558e+16
7.693874e+16
5.97812e+16
4.081331e+16
2.80281e+16
1.27492e+16
1.094688e+16
2.218945e+16
3.690476e+16
5.526078e+16
7.212354e+16
8.790622e+16
1.037431e+17
1.18714e+17
1.326346e+17
1.453002e+17
1.566357e+17
1.664885e+17
1.745128e+17
1.805923e+17
1.846644e+17
1.867054e+17
1.86701e+17
1.846525e+17
1.805758e+17
1.744955e+17
1.664725e+17
1.566208e+17
1.452854e+17
1.326199e+17
1.186962e+17
1.037185e+17
8.787927e+16
7.208481e+16
5.523989e+16
3.688615e+16
2.217574e+16
1.093775e+16
9.614495e+15
1.908521e+16
3.270084e+16
4.928696e+16
6.506652e+16
8.086564e+16
9.594842e+16
1.103901e+17
1.238624e+17
1.362278e+17
1.471629e+17
1.566557e+17
1.644679e+17
1.704931e+17
1.745792e+17
1.766488e+17
1.766446e+17
1.745678e+17
1.704772e+17
1.644513e+17
1.56641e+17
1.471497e+17
1.362145e+17
1.238488e+17
1.103721e+17
9.592397e+16
8.084276e+16
6.503836e+16
4.927408e+16
3.267614e+16
1.906741e+16
9.601887e+15
7.359134e+15
1.585432e+16
2.846506e+16
4.008448e+16
5.637746e+16
7.237817e+16
8.673213e+16
1.005177e+17
1.135564e+17
1.255567e+17
1.362437e+17
1.453359e+17
1.527718e+17
1.585572e+17
1.625293e+17
1.64571e+17
1.645667e+17
1.625169e+17
1.585392e+17
1.527528e+17
1.453191e+17
1.362289e+17
1.255425e+17
1.135418e+17
1.004995e+17
8.671021e+16
7.236306e+16
5.636362e+16
4.008105e+16
2.842738e+16
1.584263e+16
7.350472e+15
1.01816e+16
1.997083e+16
3.322514e+16
4.423092e+16
6.201292e+16
7.677591e+16
8.961709e+16
1.01991e+17
1.13567e+17
1.238879e+17
1.326784e+17
1.398401e+17
1.452573e+17
1.489146e+17
1.507775e+17
1.507731e+17
1.489016e+17
1.452378e+17
1.398188e+17
1.326591e+17
1.238704e+17
1.135506e+17
1.019755e+17
8.960153e+16
7.676194e+16
6.200224e+16
4.423096e+16
3.321038e+16
1.995994e+16
1.017426e+16
7.40595e+15
1.494504e+16
2.362488e+16
3.688615e+16
5.188025e+16
6.537569e+16
7.827732e+16
8.96247e+16
1.005336e+17
1.104183e+17
1.187585e+17
1.255581e+17
1.307131e+17
1.341411e+17
1.357637e+17
1.357591e+17
1.341283e+17
1.306943e+17
1.255372e+17
1.187378e+17
1.103993e+17
1.005156e+17
8.960797e+16
7.826073e+16
6.535813e+16
5.186105e+16
3.686709e+16
2.361162e+16
1.493735e+16
7.407664e+15
8.385579e+15
1.713176e+16
2.959345e+16
3.976186e+16
5.334814e+16
6.537707e+16
7.678808e+16
8.674765e+16
9.596934e+16
1.037787e+17
1.101915e+17
1.149422e+17
1.180423e+17
1.195524e+17
1.195482e+17
1.18032e+17
1.14927e+17
1.101739e+17
1.037622e+17
9.595536e+16
8.673155e+16
7.677136e+16
6.536366e+16
5.333622e+16
3.975312e+16
2.957004e+16
1.71202e+16
8.385755e+15
9.099017e+15
1.908385e+16
3.116735e+16
3.975647e+16
5.188101e+16
6.202294e+16
7.238943e+16
8.087663e+16
8.792969e+16
9.382163e+16
9.813217e+16
1.008816e+17
1.022161e+17
1.022121e+17
1.008755e+17
9.812484e+16
9.381294e+16
8.792111e+16
8.086992e+16
7.237707e+16
6.200746e+16
5.187079e+16
3.974928e+16
3.115559e+16
1.907723e+16
9.096254e+15
9.518193e+15
1.908211e+16
2.959727e+16
3.688844e+16
4.425284e+16
5.639182e+16
6.507337e+16
7.213166e+16
7.699412e+16
8.063187e+16
8.298101e+16
8.412296e+16
8.411713e+16
8.297718e+16
8.062894e+16
7.699152e+16
7.213138e+16
6.506906e+16
5.637811e+16
4.423097e+16
3.688075e+16
2.959127e+16
1.907975e+16
9.516972e+15
9.093722e+15
1.712311e+16
2.362983e+16
3.322938e+16
4.008439e+16
4.929023e+16
5.526731e+16
5.98208e+16
6.361753e+16
6.593354e+16
6.699622e+16
6.698878e+16