/*--------------------------------*- C++ -*----------------------------------*\
  =========                 |
  \\      /  F ield         | OpenFOAM: The Open Source CFD Toolbox
   \\    /   O peration     | Website:  https://openfoam.org
    \\  /    A nd           | Version:  6
     \\/     M anipulation  |
\*---------------------------------------------------------------------------*/
FoamFile
{
    version     2.0;
    format      ascii;
    class       volScalarField;
    location    "50/region0/neutronTransport";
    object      flux2;
}
// * * * * * * * * * * * * * * * * * * * * * * * * * * * * * * * * * * * * * //

dimensions      [0 -2 -1 0 0 0 0];

internalField   nonuniform List<scalar> 
203709
(
1.214397e+16
1.382227e+16
1.38208e+16
1.214884e+16
1.274869e+16
1.477543e+16
1.974276e+16
1.937176e+16
1.936991e+16
1.974459e+16
1.477777e+16
1.275342e+16
1.242887e+16
1.483885e+16
1.996054e+16
1.969232e+16
2.030276e+16
2.044616e+16
2.044658e+16
2.030491e+16
1.969556e+16
1.996612e+16
1.484479e+16
1.243511e+16
1.242871e+16
1.939861e+16
1.961817e+16
2.041077e+16
2.081033e+16
2.117987e+16
2.134152e+16
2.134366e+16
2.118224e+16
2.081392e+16
2.041696e+16
1.962586e+16
1.940861e+16
1.243607e+16
1.483535e+16
1.961571e+16
2.052609e+16
2.116603e+16
2.165823e+16
2.201748e+16
2.219643e+16
2.219825e+16
2.201933e+16
2.166192e+16
2.117199e+16
2.053281e+16
1.962337e+16
1.484158e+16
1.274227e+16
1.995264e+16
2.040659e+16
2.116369e+16
2.183354e+16
2.236376e+16
2.273251e+16
2.291479e+16
2.291564e+16
2.273474e+16
2.236816e+16
2.183795e+16
2.116908e+16
2.041364e+16
1.996152e+16
1.274686e+16
1.476399e+16
1.968055e+16
2.080215e+16
2.165223e+16
2.236143e+16
2.291209e+16
2.327702e+16
2.344694e+16
2.344747e+16
2.327957e+16
2.291461e+16
2.236442e+16
2.165848e+16
2.081052e+16
1.968971e+16
1.47724e+16
1.213655e+16
1.972891e+16
2.029039e+16
2.117033e+16
2.201146e+16
2.272889e+16
2.327612e+16
2.360849e+16
2.377372e+16
2.377429e+16
2.361053e+16
2.327773e+16
2.273283e+16
2.201805e+16
2.117907e+16
2.030091e+16
1.974253e+16
1.214105e+16
1.380702e+16
1.93524e+16
2.042915e+16
2.13298e+16
2.218789e+16
2.290862e+16
2.34447e+16
2.377296e+16
2.395633e+16
2.394976e+16
2.377278e+16
2.344663e+16
2.291346e+16
2.219422e+16
2.13378e+16
2.044066e+16
1.936404e+16
1.38147e+16
1.380847e+16
1.935629e+16
2.042966e+16
2.132731e+16
2.218565e+16
2.290755e+16
2.344319e+16
2.377206e+16
2.396084e+16
2.395341e+16
2.377135e+16
2.344411e+16
2.291019e+16
2.219205e+16
2.133587e+16
2.04389e+16
1.936534e+16
1.381671e+16
1.21313e+16
1.972979e+16
2.028822e+16
2.116677e+16
2.200759e+16
2.272562e+16
2.327365e+16
2.360756e+16
2.37738e+16
2.377126e+16
2.360612e+16
2.327367e+16
2.272724e+16
2.201206e+16
2.11732e+16
2.029545e+16
1.973544e+16
1.213958e+16
1.476003e+16
1.967684e+16
2.079882e+16
2.164991e+16
2.23583e+16
2.290971e+16
2.327515e+16
2.344677e+16
2.344395e+16
2.32751e+16
2.290904e+16
2.235877e+16
2.165151e+16
2.080211e+16
1.968276e+16
1.476756e+16
1.273861e+16
1.994882e+16
2.040171e+16
2.115984e+16
2.182941e+16
2.2361e+16
2.272835e+16
2.291267e+16
2.291088e+16
2.272945e+16
2.236082e+16
2.183023e+16
2.116154e+16
2.040509e+16
1.995374e+16
1.274321e+16
1.483172e+16
1.961105e+16
2.052239e+16
2.116293e+16
2.165495e+16
2.201428e+16
2.220391e+16
2.220271e+16
2.201288e+16
2.165373e+16
2.116216e+16
2.0523e+16
1.961504e+16
1.483575e+16
1.24274e+16
1.939762e+16
1.961492e+16
2.040769e+16
2.080507e+16
2.117383e+16
2.134425e+16
2.134356e+16
2.117205e+16
2.080299e+16
2.040482e+16
1.961222e+16
1.939672e+16
1.242572e+16
1.242918e+16
1.483634e+16
1.995526e+16
1.968226e+16
2.02933e+16
2.044021e+16
2.04417e+16
2.029196e+16
1.968178e+16
1.995187e+16
1.48314e+16
1.242533e+16
1.274272e+16
1.476488e+16
1.973142e+16
1.93671e+16
1.937031e+16
1.973048e+16
1.476368e+16
1.274052e+16
1.2135e+16
1.380838e+16
1.38097e+16
1.213518e+16
1.010643e+16
1.190065e+16
1.242534e+16
1.27829e+16
1.300829e+16
1.30088e+16
1.278446e+16
1.242755e+16
1.190366e+16
1.011055e+16
1.034594e+16
1.25115e+16
1.722634e+16
1.768731e+16
1.836587e+16
1.920901e+16
1.988468e+16
1.988563e+16
1.921312e+16
1.836776e+16
1.768539e+16
1.722272e+16
1.250705e+16
1.03433e+16
1.057283e+16
1.689376e+16
1.773468e+16
1.921717e+16
2.073549e+16
2.203201e+16
2.41131e+16
2.571883e+16
2.571955e+16
2.411627e+16
2.203003e+16
2.073121e+16
1.921604e+16
1.773423e+16
1.689805e+16
1.057539e+16
1.067634e+16
1.719481e+16
1.8733e+16
2.063032e+16
2.266735e+16
2.614565e+16
3.067741e+16
3.695185e+16
3.874611e+16
3.874679e+16
3.694957e+16
3.067721e+16
2.614838e+16
2.267212e+16
2.063532e+16
1.873853e+16
1.719861e+16
1.068134e+16
1.056968e+16
1.719046e+16
1.893177e+16
2.116768e+16
2.556269e+16
3.114744e+16
3.90455e+16
4.380017e+16
4.736315e+16
5.296204e+16
5.296253e+16
4.736762e+16
4.380529e+16
3.904928e+16
3.115676e+16
2.55699e+16
2.117773e+16
1.893948e+16
1.719726e+16
1.057626e+16
1.034243e+16
1.689249e+16
1.872875e+16
2.116671e+16
2.748576e+16
3.770742e+16
4.375115e+16
4.875509e+16
5.671694e+16
6.024344e+16
6.233385e+16
6.233467e+16
6.024636e+16
5.672177e+16
4.876274e+16
4.375937e+16
3.77132e+16
2.749471e+16
2.117345e+16
1.873691e+16
1.690111e+16
1.034931e+16
1.25009e+16
1.772494e+16
2.062168e+16
2.555674e+16
3.770272e+16
4.630636e+16
5.578126e+16
6.094558e+16
6.497937e+16
6.74542e+16
6.871713e+16
6.87182e+16
6.745705e+16
6.498577e+16
6.095509e+16
5.579145e+16
4.631672e+16
3.771324e+16
2.556559e+16
2.063328e+16
1.77365e+16
1.250984e+16
1.01041e+16
1.721389e+16
1.92031e+16
2.2656e+16
3.113533e+16
4.374805e+16
5.577824e+16
6.280836e+16
6.727862e+16
7.03514e+16
7.229361e+16
7.325215e+16
7.325359e+16
7.22974e+16
7.035962e+16
6.729067e+16
6.282284e+16
5.579511e+16
4.376586e+16
3.115372e+16
2.267145e+16
1.921439e+16
1.722233e+16
1.01063e+16
1.189596e+16
1.767958e+16
2.071996e+16
2.613487e+16
3.904128e+16
4.875224e+16
6.094092e+16
6.727555e+16
7.12986e+16
7.398849e+16
7.568061e+16
7.650483e+16
7.650653e+16
7.568587e+16
7.399828e+16
7.13119e+16
6.729194e+16
6.095953e+16
4.877089e+16
3.905879e+16
2.614327e+16
2.073028e+16
1.76858e+16
1.189815e+16
1.241881e+16
1.835934e+16
2.201555e+16
3.06564e+16
4.379422e+16
5.670848e+16
6.497036e+16
7.034411e+16
7.398496e+16
7.646278e+16
7.802861e+16
7.879441e+16
7.87961e+16
7.80343e+16
7.647186e+16
7.399742e+16
7.036061e+16
6.498907e+16
5.672557e+16
4.380243e+16
3.067487e+16
2.203079e+16
1.836525e+16
1.242262e+16
1.277372e+16
1.920155e+16
2.410322e+16
3.694053e+16
4.735539e+16
6.023276e+16
6.744197e+16
7.228335e+16
7.567418e+16
7.80261e+16
7.951574e+16
8.024622e+16
8.024672e+16
7.95195e+16
7.803259e+16
7.568498e+16
7.229924e+16
6.746114e+16
6.025159e+16
4.736971e+16
3.695862e+16
2.411355e+16
1.92097e+16
1.278188e+16
1.29954e+16
1.986966e+16
2.570129e+16
3.873291e+16
5.294844e+16
6.231896e+16
6.870217e+16
7.323915e+16
7.649531e+16
7.878963e+16
8.024528e+16
8.096306e+16
8.095987e+16
8.024696e+16
7.879609e+16
7.650686e+16
7.325532e+16
6.872182e+16
6.234024e+16
5.296837e+16
3.87519e+16
2.571767e+16
1.988399e+16
1.300688e+16
1.299226e+16
1.986364e+16
2.569413e+16
3.872684e+16
5.294634e+16
6.231821e+16
6.870119e+16
7.32377e+16
7.649365e+16
7.87877e+16
8.024464e+16
8.096591e+16
8.096269e+16
8.024745e+16
7.879575e+16
7.650605e+16
7.325439e+16
6.87211e+16
6.23404e+16
5.296861e+16
3.874671e+16
2.571152e+16
1.987927e+16
1.300417e+16
1.27657e+16
1.919199e+16
2.409806e+16
3.693809e+16
4.734645e+16
6.022848e+16
6.743894e+16
7.22798e+16
7.567017e+16
7.802229e+16
7.951378e+16
8.024724e+16
8.024693e+16
7.951862e+16
7.803174e+16
7.568351e+16
7.229707e+16
6.745929e+16
6.025144e+16
4.737044e+16
3.695677e+16
2.411354e+16
1.920731e+16
1.277692e+16
1.241128e+16
1.835264e+16
2.201561e+16
3.065645e+16
4.378641e+16
5.670363e+16
6.496624e+16
7.033988e+16
7.398008e+16
7.645841e+16
7.80255e+16
7.879386e+16
7.879415e+16
7.803161e+16
7.64683e+16
7.399342e+16
7.035677e+16
6.498606e+16
5.672505e+16
4.380918e+16
3.066886e+16
2.202543e+16
1.836683e+16
1.242161e+16
1.189064e+16
1.767633e+16
2.072078e+16
2.612969e+16
3.904152e+16
4.87508e+16
6.093777e+16
6.72711e+16
7.129329e+16
7.398419e+16
7.567722e+16
7.650281e+16
7.650341e+16
7.568349e+16
7.399424e+16
7.130654e+16
6.728713e+16
6.09549e+16
4.876375e+16
3.905278e+16
2.614376e+16
2.072916e+16
1.768799e+16
1.189944e+16
1.010024e+16
1.72144e+16
1.920451e+16
2.265374e+16
3.113859e+16
4.374874e+16
5.577743e+16
6.280573e+16
6.727558e+16
7.034863e+16
7.229192e+16
7.324792e+16
7.324871e+16
7.229643e+16
7.035675e+16
6.728635e+16
6.281871e+16
5.579028e+16
4.375653e+16
3.114451e+16
2.266386e+16
1.921101e+16
1.722234e+16
1.010754e+16
1.250466e+16
1.77252e+16
2.062004e+16
2.555592e+16
3.770533e+16
4.630669e+16
5.578084e+16
6.094577e+16
6.497852e+16
6.745394e+16
6.871035e+16
6.871131e+16
6.745676e+16
6.498361e+16
6.095208e+16
5.578912e+16
4.631403e+16
3.770854e+16
2.555949e+16
2.062816e+16
1.772991e+16
1.250463e+16
1.03455e+16
1.688994e+16
1.87277e+16
2.116546e+16
2.748598e+16
3.770682e+16
4.375422e+16
4.876071e+16
5.67181e+16
6.024556e+16
6.232968e+16
6.233186e+16
6.024728e+16
5.671982e+16
4.875985e+16
4.375689e+16
3.771064e+16
2.748583e+16
2.116585e+16
1.873196e+16
1.689347e+16
1.034119e+16
1.057241e+16
1.719583e+16
1.893384e+16
2.116483e+16
2.555649e+16
3.114269e+16
3.905046e+16
4.380201e+16
4.736236e+16
5.295378e+16
5.295684e+16
4.736346e+16
4.379917e+16
3.904368e+16
3.114092e+16
2.555607e+16
2.116347e+16
1.893207e+16
1.719524e+16
1.056975e+16
1.06781e+16
1.719377e+16
1.872858e+16
2.062541e+16
2.266069e+16
2.613098e+16
3.066175e+16
3.694714e+16
3.873641e+16
3.873687e+16
3.694193e+16
3.065753e+16
2.613121e+16
2.265553e+16
2.062003e+16
1.872461e+16
1.719122e+16
1.067625e+16
1.0567e+16
1.689009e+16
1.772631e+16
1.920359e+16
2.071799e+16
2.201862e+16
2.410276e+16
2.570241e+16
2.570169e+16
2.409979e+16
2.201187e+16
2.071624e+16
1.920343e+16
1.772376e+16
1.688571e+16
1.056496e+16
1.034293e+16
1.25025e+16
1.721418e+16
1.767842e+16
1.835765e+16
1.919856e+16
1.987194e+16
1.987185e+16
1.919704e+16
1.835325e+16
1.767299e+16
1.721444e+16
1.250221e+16
1.034086e+16
1.009883e+16
1.188996e+16
1.241205e+16
1.276751e+16
1.299255e+16
1.299218e+16
1.276952e+16
1.241386e+16
1.189038e+16
1.009707e+16
8.518986e+15
1.001933e+16
1.033896e+16
1.045618e+16
1.045416e+16
1.033267e+16
1.000672e+16
8.50982e+15
8.515582e+15
1.066274e+16
1.182038e+16
1.612817e+16
1.669776e+16
1.705235e+16
1.721235e+16
1.721031e+16
1.704547e+16
1.668622e+16
1.612391e+16
1.181948e+16
1.066392e+16
8.52249e+15
9.457876e+15
1.556865e+16
1.714936e+16
1.947566e+16
2.188024e+16
2.291403e+16
2.354171e+16
2.383118e+16
2.382938e+16
2.353624e+16
2.290518e+16
2.187089e+16
1.947185e+16
1.714764e+16
1.557095e+16
9.466866e+15
8.837387e+15
1.147441e+16
1.679496e+16
2.085009e+16
2.555694e+16
3.240635e+16
3.51939e+16
3.667737e+16
3.764262e+16
3.813781e+16
3.813519e+16
3.763524e+16
3.666638e+16
3.518114e+16
3.239544e+16
2.555154e+16
2.085303e+16
1.679433e+16
1.147839e+16
8.840833e+15
8.912508e+15
1.51564e+16
1.786637e+16
2.378522e+16
3.306924e+16
3.876181e+16
4.353108e+16
5.094861e+16
5.434102e+16
5.632752e+16
5.730361e+16
5.730152e+16
5.632271e+16
5.433593e+16
5.094664e+16
4.353772e+16
3.877051e+16
3.307446e+16
2.378377e+16
1.787161e+16
1.515779e+16
8.915083e+15
8.835378e+15
1.515879e+16
1.853104e+16
2.48706e+16
3.584692e+16
4.307225e+16
5.260524e+16
5.869031e+16
6.39855e+16
6.793574e+16
7.069093e+16
7.20437e+16
7.204212e+16
7.068868e+16
6.793086e+16
6.39804e+16
5.868952e+16
5.260593e+16
4.307429e+16
3.585111e+16
2.487643e+16
1.85309e+16
1.51591e+16
8.838494e+15
1.147538e+16
1.78668e+16
2.487134e+16
3.645978e+16
4.465155e+16
5.588621e+16
6.404037e+16
7.068306e+16
7.645739e+16
8.118863e+16
8.483662e+16
8.628751e+16
8.628609e+16
8.483232e+16
8.118392e+16
7.645644e+16
7.068769e+16
6.404683e+16
5.589437e+16
4.465792e+16
3.645951e+16
2.487315e+16
1.787047e+16
1.147879e+16
9.463421e+15
1.678876e+16
2.377694e+16
3.58496e+16
4.46473e+16
5.686749e+16
6.656072e+16
7.512415e+16
8.256014e+16
8.911559e+16
9.389964e+16
9.733205e+16
9.929561e+16
9.929521e+16
9.733131e+16
9.389973e+16
8.911871e+16
8.25675e+16
7.513406e+16
6.657565e+16
5.688129e+16
4.465988e+16
3.585727e+16
2.378411e+16
1.679449e+16
9.464417e+15
8.511735e+15
1.55637e+16
2.084257e+16
3.30602e+16
4.307703e+16
5.589063e+16
6.65626e+16
7.67707e+16
8.628797e+16
9.388552e+16
1.001619e+17
1.053684e+17
1.090288e+17
1.110095e+17
1.110097e+17
1.090301e+17
1.053722e+17
1.001695e+17
9.389536e+16
8.630043e+16
7.6788e+16
6.657894e+16
5.590511e+16
4.308799e+16
3.306378e+16
2.085327e+16
1.557091e+16
8.514058e+15
1.06598e+16
1.71426e+16
2.554219e+16
3.87615e+16
5.260419e+16
6.404234e+16
7.512076e+16
8.628319e+16
9.566091e+16
1.03826e+17
1.103997e+17
1.154978e+17
1.189203e+17
1.2067e+17
1.206708e+17
1.189235e+17
1.155053e+17
1.104118e+17
1.038415e+17
9.568023e+16
8.63056e+16
7.514272e+16
6.406365e+16
5.262194e+16
3.876607e+16
2.555739e+16
1.715387e+16
1.06648e+16
1.181296e+16
1.946071e+16
3.237851e+16
4.353407e+16
5.868691e+16
7.067984e+16
8.255033e+16
9.387757e+16
1.038212e+17
1.12253e+17
1.187667e+17
1.2356e+17
1.267127e+17
1.282869e+17
1.282885e+17
1.267183e+17
1.235714e+17
1.187843e+17
1.122761e+17
1.038496e+17
9.390998e+16
8.258393e+16
7.07106e+16
5.871348e+16
4.354821e+16
3.241092e+16
1.947869e+16
1.182152e+16
8.512061e+15
1.611802e+16
2.185701e+16
3.516694e+16
5.094297e+16
6.397935e+16
7.644949e+16
8.910723e+16
1.001539e+17
1.10392e+17
1.187621e+17
1.250941e+17
1.29649e+17
1.326075e+17
1.340694e+17
1.340719e+17
1.326153e+17
1.296635e+17
1.251158e+17
1.187905e+17
1.104259e+17
1.001914e+17
8.914569e+16
7.648386e+16
6.401046e+16
5.096766e+16
3.520282e+16
2.187969e+16
1.612651e+16
8.517308e+15
1.000313e+16
1.667946e+16
2.289476e+16
3.665773e+16
5.433275e+16
6.792802e+16
8.11745e+16
9.388827e+16
1.053567e+17
1.15486e+17
1.235507e+17
1.296442e+17
1.340147e+17
1.368459e+17
1.382431e+17
1.382457e+17
1.368545e+17
1.340302e+17
1.296672e+17
1.23581e+17
1.155217e+17
1.05395e+17
9.392724e+16
8.121615e+16
6.79624e+16
5.436186e+16
3.668896e+16
2.291402e+16
1.669423e+16
1.001359e+16
1.032649e+16
1.703606e+16
2.352432e+16
3.762964e+16
5.632077e+16
7.068545e+16
8.482596e+16
9.731976e+16
1.090146e+17
1.18905e+17
1.266995e+17
1.325986e+17
1.368419e+17
1.39592e+17
1.409484e+17
1.409503e+17
1.395994e+17
1.368558e+17
1.326205e+17
1.267295e+17
1.189413e+17
1.090541e+17
9.736075e+16
8.486763e+16
7.071944e+16
5.635117e+16
3.765665e+16
2.354452e+16
1.705152e+16
1.03353e+16
1.044813e+16
1.72018e+16
2.381802e+16
3.813065e+16
5.729887e+16
7.203637e+16
8.627696e+16
9.928196e+16
1.109933e+17
1.206526e+17
1.28271e+17
1.340572e+17
1.382358e+17
1.409459e+17
1.422826e+17
1.422834e+17
1.409524e+17
1.382496e+17
1.340793e+17
1.283011e+17
1.206893e+17
1.11034e+17
9.932415e+16
8.631874e+16
7.207291e+16
5.732921e+16
3.815433e+16
2.383671e+16
1.72151e+16
1.045645e+16
1.044893e+16
1.720276e+16
2.381874e+16
3.813265e+16
5.72988e+16
7.203459e+16
8.627533e+16
9.928084e+16
1.109929e+17
1.206526e+17
1.282706e+17
1.340564e+17
1.382347e+17
1.409453e+17
1.422833e+17
1.422844e+17
1.409529e+17
1.3825e+17
1.340795e+17
1.283012e+17
1.206895e+17
1.110345e+17
9.932393e+16
8.631659e+16
7.207112e+16
5.732806e+16
3.815271e+16
2.383565e+16
1.721501e+16
1.045752e+16
1.033071e+16
1.704143e+16
2.35281e+16
3.763602e+16
5.632112e+16
7.068528e+16
8.482805e+16
9.731878e+16
1.09014e+17
1.189049e+17
1.266987e+17
1.325969e+17
1.368397e+17
1.395904e+17
1.409483e+17
1.409506e+17
1.395996e+17
1.368562e+17
1.32621e+17
1.267299e+17
1.189421e+17
1.090556e+17
9.73614e+16
8.486684e+16
7.07203e+16
5.634817e+16
3.764926e+16
2.354099e+16
1.705096e+16
1.03375e+16
1.001227e+16
1.668863e+16
2.290132e+16
3.66701e+16
5.433473e+16
6.793105e+16
8.118135e+16
9.38916e+16
1.053582e+17
1.154866e+17
1.235503e+17
1.296427e+17
1.340127e+17
1.368441e+17
1.382421e+17
1.382447e+17
1.368537e+17
1.340295e+17
1.296668e+17
1.235813e+17
1.155231e+17
1.053975e+17
9.39307e+16
8.121513e+16
6.796215e+16
5.435811e+16
3.667357e+16
2.290883e+16
1.669499e+16
1.001674e+16
8.52198e+15
1.612513e+16
2.187145e+16
3.518964e+16
5.094671e+16
6.398581e+16
7.645416e+16
8.911392e+16
1.00159e+17
1.103951e+17
1.187632e+17
1.250939e+17
1.296486e+17
1.326071e+17
1.340687e+17
1.340712e+17
1.326165e+17
1.296651e+17
1.251174e+17
1.18793e+17
1.104288e+17
1.001937e+17
8.914915e+16
7.64887e+16
6.401264e+16
5.096759e+16
3.518366e+16
2.187468e+16
1.613238e+16
8.524037e+15
1.182008e+16
1.947456e+16
3.240672e+16
4.353489e+16
5.869624e+16
7.068322e+16
8.255837e+16
9.388536e+16
1.038267e+17
1.122566e+17
1.187697e+17
1.235629e+17
1.267151e+17
1.28286e+17
1.282884e+17
1.267234e+17
1.235777e+17
1.187909e+17
1.122833e+17
1.038563e+17
9.391514e+16
8.259021e+16
7.071396e+16
5.871564e+16
4.355532e+16
3.239411e+16
1.947315e+16
1.182281e+16
1.066127e+16
1.715113e+16
2.555927e+16
3.876997e+16
5.261691e+16
6.404526e+16
7.512502e+16
8.629034e+16
9.566668e+16
1.038318e+17
1.104071e+17
1.155053e+17
1.189269e+17
1.206711e+17
1.206733e+17
1.189336e+17
1.15517e+17
1.104242e+17
1.038545e+17
9.569223e+16
8.631568e+16
7.515205e+16
6.406782e+16
5.262705e+16
3.878547e+16
2.555428e+16
1.715202e+16
1.066736e+16
8.509335e+15
1.55749e+16
2.085671e+16
3.307258e+16
4.308784e+16
5.589426e+16
6.656563e+16
7.677631e+16
8.629343e+16
9.389386e+16
1.001747e+17
1.05381e+17
1.090407e+17
1.110166e+17
1.110189e+17
1.090457e+17
1.053885e+17
1.001861e+17
9.391176e+16
8.631464e+16
7.679728e+16
6.658594e+16
5.590828e+16
4.308675e+16
3.308233e+16
2.085071e+16
1.557066e+16
8.518535e+15
9.459387e+15
1.679687e+16
2.378636e+16
3.585115e+16
4.465604e+16
5.687329e+16
6.656791e+16
7.513037e+16
8.256852e+16
8.912972e+16
9.391414e+16
9.73455e+16
9.930487e+16
9.930712e+16
9.734909e+16
9.39177e+16
8.913572e+16
8.258067e+16
7.514489e+16
6.658235e+16
5.688713e+16
4.466599e+16
3.585961e+16
2.378741e+16
1.679415e+16
9.462167e+15
1.147554e+16
1.787152e+16
2.487587e+16
3.646502e+16
4.465373e+16
5.589816e+16
6.405366e+16
7.069569e+16
7.646672e+16
8.11988e+16
8.485102e+16
8.630122e+16
8.630189e+16
8.485172e+16
8.120055e+16
7.647173e+16
7.070031e+16
6.405939e+16
5.590478e+16
4.466069e+16
3.646863e+16
2.487383e+16
1.786762e+16
1.147347e+16
8.839324e+15
1.51626e+16
1.853387e+16
2.487412e+16
3.586038e+16
4.308966e+16
5.26151e+16
5.870078e+16
6.399483e+16
6.794556e+16
7.070287e+16
7.205353e+16
7.205346e+16
7.070483e+16
6.794651e+16
6.399622e+16
5.870458e+16
5.262315e+16
4.30938e+16
3.58612e+16
2.487275e+16
1.853046e+16
1.515825e+16
8.836209e+15
8.911862e+15
1.516332e+16
1.787346e+16
2.378187e+16
3.306273e+16
3.875671e+16
4.353595e+16
5.094827e+16
5.433754e+16
5.632556e+16
5.730102e+16
5.730023e+16
5.633085e+16
5.434616e+16
5.095583e+16
4.353857e+16
3.876822e+16
3.307394e+16
2.378447e+16
1.787023e+16
1.515968e+16
8.909803e+15
8.839092e+15
1.147861e+16
1.679129e+16
2.084812e+16
2.55434e+16
3.238871e+16
3.516866e+16
3.664918e+16
3.761988e+16
3.813732e+16
3.813225e+16
3.763154e+16
3.666695e+16
3.518622e+16
3.240355e+16
2.555168e+16
2.084907e+16
1.679188e+16
1.147365e+16
8.837429e+15
9.458265e+15
1.556445e+16
1.714281e+16
1.946312e+16
2.18573e+16
2.288669e+16
2.351525e+16
2.381267e+16
2.380641e+16
2.351869e+16
2.289067e+16
2.186055e+16
1.946294e+16
1.713913e+16
1.556723e+16
9.455393e+15
8.506275e+15
1.065815e+16
1.181203e+16
1.611564e+16
1.667525e+16
1.702912e+16
1.720323e+16
1.720086e+16
1.70282e+16
1.667281e+16
1.611559e+16
1.180906e+16
1.065276e+16
8.508595e+15
8.513441e+15
1.000151e+16
1.032007e+16
1.044394e+16
1.044278e+16
1.031815e+16
9.997482e+15
8.50481e+15
7.582737e+15
8.85822e+15
9.111726e+15
9.109458e+15
8.850024e+15
7.578543e+15
7.228701e+15
9.456704e+15
1.07696e+16
1.254585e+16
1.693775e+16
1.774278e+16
1.803821e+16
1.803171e+16
1.77261e+16
1.691771e+16
1.254567e+16
1.077287e+16
9.457621e+15
7.233837e+15
7.286275e+15
1.001226e+16
1.559505e+16
1.87743e+16
2.183044e+16
2.757918e+16
3.019389e+16
3.117611e+16
3.164573e+16
3.163616e+16
3.11524e+16
3.017413e+16
2.757827e+16
2.182757e+16
1.876641e+16
1.559573e+16
1.001893e+16
7.297587e+15
8.249514e+15
1.47e+16
1.963957e+16
2.799372e+16
3.217087e+16
3.630232e+16
4.015001e+16
4.646584e+16
4.884971e+16
4.978996e+16
4.97816e+16
4.882815e+16
4.64413e+16
4.013143e+16
3.628196e+16
3.21565e+16
2.797284e+16
1.964682e+16
1.470503e+16
8.262471e+15
8.951813e+15
1.684629e+16
2.322929e+16
3.268326e+16
3.943566e+16
4.847643e+16
5.434549e+16
5.881347e+16
6.254403e+16
6.481864e+16
6.586314e+16
6.58561e+16
6.47998e+16
6.251985e+16
5.879225e+16
5.433198e+16
4.847112e+16
3.943403e+16
3.267361e+16
2.323753e+16
1.685024e+16
8.960192e+15
9.367759e+15
1.877257e+16
2.909026e+16
3.626812e+16
4.350917e+16
5.544461e+16
6.398761e+16
7.09307e+16
7.570888e+16
7.928317e+16
8.158692e+16
8.270066e+16
8.269488e+16
8.157138e+16
7.926255e+16
7.568871e+16
7.091482e+16
6.397991e+16
5.544992e+16
4.351707e+16
3.626464e+16
2.908735e+16
1.87722e+16
9.370553e+15
8.952969e+15
1.8774e+16
3.064393e+16
3.910974e+16
5.101614e+16
6.098783e+16
7.117802e+16
7.952404e+16
8.645432e+16
9.224621e+16
9.64841e+16
9.918518e+16
1.004965e+17
1.004923e+17
9.917428e+16
9.647134e+16
9.223683e+16
8.645137e+16
7.952601e+16
7.118447e+16
6.099127e+16
5.101796e+16
3.91077e+16
3.06271e+16
1.877239e+16
8.955528e+15
8.251478e+15
1.684428e+16
2.909879e+16
3.910812e+16
5.247005e+16
6.429041e+16
7.550224e+16
8.528819e+16
9.435531e+16
1.020307e+17
1.083344e+17
1.13005e+17
1.16053e+17
1.175404e+17
1.175375e+17
1.160463e+17
1.129975e+17
1.0833e+17
1.020323e+17
9.436115e+16
8.529694e+16
7.551013e+16
6.429654e+16
5.247149e+16
3.910825e+16
2.909441e+16
1.684816e+16
8.254675e+15
7.2874e+15
1.469686e+16
2.323741e+16
3.626715e+16
5.101806e+16
6.429331e+16
7.697678e+16
8.812829e+16
9.884761e+16
1.08563e+17
1.16761e+17
1.234461e+17
1.285147e+17
1.318859e+17
1.334846e+17
1.334825e+17
1.318812e+17
1.285109e+17
1.234477e+17
1.167699e+17
1.085766e+17
9.886341e+16
8.814198e+16
7.698479e+16
6.429854e+16
5.102068e+16
3.626993e+16
2.324455e+16
1.470292e+16
7.290081e+15
1.001242e+16
1.964525e+16
3.26704e+16
4.352412e+16
6.099235e+16
7.550808e+16
8.81316e+16
1.002947e+17
1.116724e+17
1.218176e+17
1.304582e+17
1.374975e+17
1.428247e+17
1.46424e+17
1.482614e+17
1.482606e+17
1.464226e+17
1.42826e+17
1.375052e+17
1.304733e+17
1.218385e+17
1.116971e+17
1.003181e+17
8.815034e+16
7.552005e+16
6.099988e+16
4.352805e+16
3.268241e+16
1.965387e+16
1.002065e+16
7.231188e+15
1.558729e+16
2.79762e+16
3.943387e+16
5.545852e+16
7.118469e+16
8.529683e+16
9.885435e+16
1.116748e+17
1.234722e+17
1.339795e+17
1.42918e+17
1.502285e+17
1.559194e+17
1.5983e+17
1.618449e+17
1.618452e+17
1.59832e+17
1.559261e+17
1.502426e+17
1.429394e+17
1.34007e+17
1.235042e+17
1.11706e+17
9.888125e+16
8.531677e+16
7.119653e+16
5.546602e+16
3.943018e+16
2.79924e+16
1.559761e+16
7.242836e+15
9.446952e+15
1.876154e+16
3.215311e+16
4.848355e+16
6.399285e+16
7.953005e+16
9.436118e+16
1.085677e+17
1.218169e+17
1.339762e+17
1.447309e+17
1.540673e+17
1.617514e+17
1.676806e+17
1.717051e+17
1.73749e+17
1.737505e+17
1.717107e+17
1.676928e+17
1.617724e+17
1.540965e+17
1.447672e+17
1.340171e+17
1.218578e+17
1.086053e+17
9.43915e+16
7.954934e+16
6.400777e+16
4.848233e+16
3.215912e+16
1.877227e+16
9.459306e+15
1.076565e+16
2.18237e+16
3.629955e+16
5.4358e+16
7.092953e+16
8.64599e+16
1.020337e+17
1.167605e+17
1.304514e+17
1.429095e+17
1.540615e+17
1.637563e+17
1.716534e+17
1.776389e+17
1.816518e+17
1.836686e+17
1.836713e+17
1.81661e+17
1.776568e+17
1.716818e+17
1.637949e+17
1.541085e+17
1.429621e+17
1.305053e+17
1.168111e+17
1.020767e+17
8.649048e+16
7.095466e+16
5.435911e+16
3.629545e+16
2.182449e+16
1.07683e+16
1.254477e+16
2.759523e+16
4.01701e+16
5.882944e+16
7.571044e+16
9.224909e+16
1.08334e+17
1.2344e+17
1.374865e+17
1.502158e+17
1.617401e+17
1.716469e+17
1.796157e+17
1.855778e+17
1.895391e+17
1.915177e+17
1.915215e+17
1.895512e+17
1.856004e+17
1.796503e+17
1.716932e+17
1.617959e+17
1.502777e+17
1.375504e+17
1.235006e+17
1.08387e+17
9.229052e+16
7.574161e+16
5.883448e+16
4.015621e+16
2.756923e+16
1.253949e+16
7.583219e+15
1.69295e+16
3.021209e+16
4.649027e+16
6.256211e+16
7.928984e+16
9.648671e+16
1.130026e+17
1.285042e+17
1.428096e+17
1.559022e+17
1.676641e+17
1.776264e+17
1.855715e+17
1.914778e+17
1.95385e+17
1.973319e+17
1.973361e+17
1.953986e+17
1.915024e+17
1.856089e+17
1.776765e+17
1.67724e+17
1.559685e+17
1.428787e+17
1.285718e+17
1.130615e+17
9.653402e+16
7.932237e+16
6.256884e+16
4.647462e+16
3.01864e+16
1.692309e+16
7.579067e+15
8.848407e+15
1.773773e+16
3.118939e+16
4.887279e+16
6.483851e+16
8.160006e+16
9.919162e+16
1.160522e+17
1.31876e+17
1.464078e+17
1.598103e+17
1.71685e+17
1.816347e+17
1.895274e+17
1.953795e+17
1.992441e+17
2.011673e+17
2.011712e+17
1.992569e+17
1.954032e+17
1.895641e+17
1.816846e+17
1.717455e+17
1.598777e+17
1.464785e+17
1.319453e+17
1.161129e+17
9.924052e+16
8.163287e+16
6.485033e+16
4.886505e+16
3.117312e+16
1.773273e+16
8.853115e+15
9.107183e+15
1.803869e+16
3.165752e+16
4.981635e+16
6.589001e+16
8.272237e+16
1.005095e+17
1.175429e+17
1.334767e+17
1.482457e+17
1.618245e+17
1.737271e+17
1.836487e+17
1.915021e+17
1.973218e+17
2.01163e+17
2.030735e+17
2.030769e+17
2.01175e+17
1.973447e+17
1.91538e+17
1.836976e+17
1.737871e+17
1.618919e+17
1.483164e+17
1.335457e+17
1.176038e+17
1.005577e+17
8.27549e+16
6.590604e+16
4.98192e+16
3.165793e+16
1.804145e+16
9.113379e+15
9.107338e+15
1.80409e+16
3.16647e+16
4.981961e+16
6.589334e+16
8.272571e+16
1.005122e+17
1.175448e+17
1.334782e+17
1.482466e+17
1.618254e+17
1.737282e+17
1.836496e+17
1.915025e+17
1.973216e+17
2.011625e+17
2.030731e+17
2.030766e+17
2.011748e+17
1.973446e+17
1.915379e+17
1.836977e+17
1.737873e+17
1.618921e+17
1.483164e+17
1.335456e+17
1.176045e+17
1.005591e+17
8.275748e+16
6.591196e+16
4.982741e+16
3.166702e+16
1.804745e+16
9.115963e+15
8.854705e+15
1.774259e+16
3.119292e+16
4.88762e+16
6.484613e+16
8.160926e+16
9.919891e+16
1.160586e+17
1.318823e+17
1.464122e+17
1.598139e+17
1.716884e+17
1.816377e+17
1.895292e+17
1.953799e+17
1.992434e+17
2.011662e+17
2.011699e+17
1.992558e+17
1.954025e+17
1.89564e+17
1.81685e+17
1.717463e+17
1.598789e+17
1.464794e+17
1.319465e+17
1.161158e+17
9.92437e+16
8.163914e+16
6.486736e+16
4.88889e+16
3.119938e+16
1.77504e+16
8.862068e+15
7.591795e+15
1.69252e+16
3.020395e+16
4.649013e+16
6.257036e+16
7.930407e+16
9.649771e+16
1.130131e+17
1.285156e+17
1.428195e+17
1.559102e+17
1.67671e+17
1.776322e+17
1.855757e+17
1.914802e+17
1.953858e+17
1.973315e+17
1.97335e+17
1.953976e+17
1.915021e+17
1.856096e+17
1.776784e+17
1.67727e+17
1.559721e+17
1.428825e+17
1.285753e+17
1.130663e+17
9.65389e+16
7.933005e+16
6.259375e+16
4.650804e+16
3.021888e+16
1.693696e+16
7.597864e+15
1.254689e+16
2.757683e+16
4.017095e+16
5.883894e+16
7.573046e+16
9.226336e+16
1.083485e+17
1.234539e+17
1.375004e+17
1.502285e+17
1.617514e+17
1.716567e+17
1.79624e+17
1.855846e+17
1.895442e+17
1.915212e+17
1.915246e+17
1.895556e+17
1.856058e+17
1.796569e+17
1.717012e+17
1.618047e+17
1.502866e+17
1.375599e+17
1.235105e+17
1.083969e+17
9.230079e+16
7.575126e+16
5.886311e+16
4.018937e+16
2.760085e+16
1.255327e+16
1.076668e+16
2.182763e+16
3.630617e+16
5.436434e+16
7.095208e+16
8.647568e+16
1.020517e+17
1.167757e+17
1.304672e+17
1.429253e+17
1.540762e+17
1.637702e+17
1.716668e+17
1.776518e+17
1.816633e+17
1.836779e+17
1.836812e+17
1.816741e+17
1.776719e+17
1.71698e+17
1.638121e+17
1.541259e+17
1.42979e+17
1.305223e+17
1.168268e+17
1.020932e+17
8.650991e+16
7.096816e+16
5.438888e+16
3.632062e+16
2.183559e+16
1.076932e+16
9.456868e+15
1.877475e+16
3.217169e+16
4.848871e+16
6.401014e+16
7.954928e+16
9.438217e+16
1.085838e+17
1.218323e+17
1.339927e+17
1.447474e+17
1.540848e+17
1.617705e+17
1.677003e+17
1.717241e+17
1.737658e+17
1.737687e+17
1.717336e+17
1.677179e+17
1.617983e+17
1.541227e+17
1.447925e+17
1.340409e+17
1.218809e+17
1.086266e+17
9.441523e+16
7.957894e+16
6.402783e+16
4.8513e+16
3.217393e+16
1.87743e+16
9.454021e+15
7.23876e+15
1.559753e+16
2.800616e+16
3.943729e+16
5.546415e+16
7.120117e+16
8.531622e+16
9.887101e+16
1.11691e+17
1.2349e+17
1.339985e+17
1.429397e+17
1.502537e+17
1.559461e+17
1.598567e+17
1.618703e+17
1.618728e+17
1.598642e+17
1.559597e+17
1.502759e+17
1.429715e+17
1.340368e+17
1.235309e+17
1.117312e+17
9.890539e+16
8.534294e+16
7.122924e+16
5.548604e+16
3.946056e+16
2.798938e+16
1.55987e+16
7.237078e+15
1.001658e+16
1.964898e+16
3.269052e+16
4.351712e+16
6.100713e+16
7.552445e+16
8.814966e+16
1.003145e+17
1.116948e+17
1.218416e+17
1.304845e+17
1.375272e+17
1.428562e+17
1.464562e+17
1.482931e+17
1.482949e+17
1.464613e+17
1.428654e+17
1.375431e+17
1.305083e+17
1.218708e+17
1.117262e+17
1.003459e+17
8.817807e+16
7.555007e+16
6.102965e+16
4.354127e+16
3.269502e+16
1.965074e+16
1.001665e+16
7.286249e+15
1.470493e+16
2.324525e+16
3.629328e+16
5.104218e+16
6.431358e+16
7.699872e+16
8.815382e+16
9.887726e+16
1.085939e+17
1.167927e+17
1.23478e+17
1.285479e+17
1.319213e+17
1.335209e+17
1.335219e+17
1.319244e+17
1.28554e+17
1.234891e+17
1.168086e+17
1.086139e+17
9.889863e+16
8.817508e+16
7.701716e+16
6.432632e+16
5.104745e+16
3.629171e+16
2.324345e+16
1.470504e+16
7.292451e+15
8.250533e+15
1.685741e+16
2.912002e+16
3.912299e+16
5.248539e+16
6.431329e+16
7.553166e+16
8.532149e+16
9.438562e+16
1.020616e+17
1.083656e+17
1.130369e+17
1.160869e+17
1.175751e+17
1.175755e+17
1.160899e+17
1.130424e+17
1.083742e+17
1.020747e+17
9.440273e+16
8.533644e+16
7.55443e+16
6.432571e+16
5.249475e+16
3.912969e+16
2.910829e+16
1.685223e+16
8.254027e+15
8.952931e+15
1.877908e+16
3.066858e+16
3.911675e+16
5.104048e+16
6.101188e+16
7.120285e+16
7.954501e+16
8.647711e+16
9.226844e+16
9.650632e+16
9.921079e+16
1.005254e+17
1.005249e+17
9.921501e+16
9.651511e+16
9.228013e+16
8.649135e+16
7.956195e+16
7.121376e+16
6.101734e+16
5.10479e+16
3.91227e+16
3.066694e+16
1.877742e+16
8.952183e+15
9.366121e+15
1.877771e+16
2.912275e+16
3.629337e+16
4.353462e+16
5.54706e+16
6.400503e+16
7.094281e+16
7.572179e+16
7.929773e+16
8.160791e+16
8.273228e+16
8.272909e+16
8.161156e+16
7.930648e+16
7.573394e+16
7.095891e+16
6.401729e+16
5.547261e+16
4.352521e+16
3.629581e+16
2.912478e+16
1.877874e+16
9.365586e+15
8.948969e+15
1.684968e+16
2.325008e+16
3.26915e+16
3.943174e+16
4.848315e+16
5.435848e+16
5.88341e+16
6.256641e+16
6.48436e+16
6.588932e+16
6.588369e+16
6.483892e+16
6.256254e+16
5.883246e+16