/*--------------------------------*- C++ -*----------------------------------*\
  =========                 |
  \\      /  F ield         | OpenFOAM: The Open Source CFD Toolbox
   \\    /   O peration     | Website:  https://openfoam.org
    \\  /    A nd           | Version:  6
     \\/     M anipulation  |
\*---------------------------------------------------------------------------*/
FoamFile
{
    version     2.0;
    format      ascii;
    class       volScalarField;
    location    "50/region0/neutronTransport";
    object      flux4;
}
// * * * * * * * * * * * * * * * * * * * * * * * * * * * * * * * * * * * * * //

dimensions      [0 -2 -1 0 0 0 0];

internalField   nonuniform List<scalar> 
203709
(
4.817493e+10
5.489886e+10
5.489299e+10
4.819532e+10
5.059863e+10
5.871931e+10
7.928504e+10
7.750151e+10
7.749463e+10
7.929547e+10
5.873227e+10
5.062173e+10
4.931781e+10
5.898489e+10
8.010558e+10
7.865801e+10
8.10372e+10
8.157081e+10
8.157392e+10
8.10504e+10
7.867779e+10
8.013707e+10
5.901623e+10
4.934879e+10
4.931381e+10
7.791061e+10
7.839043e+10
8.144513e+10
8.297518e+10
8.442773e+10
8.506106e+10
8.50718e+10
8.444231e+10
8.299705e+10
8.147954e+10
7.843144e+10
7.796103e+10
4.934917e+10
5.896328e+10
7.837594e+10
8.187288e+10
8.436473e+10
8.630978e+10
8.773917e+10
8.845189e+10
8.846106e+10
8.775088e+10
8.633092e+10
8.439642e+10
8.190766e+10
7.841375e+10
5.899289e+10
5.055943e+10
8.005833e+10
8.141913e+10
8.4351e+10
8.699961e+10
8.911143e+10
9.058538e+10
9.131419e+10
9.131864e+10
9.059721e+10
8.913337e+10
8.702177e+10
8.437692e+10
8.145141e+10
8.009786e+10
5.057996e+10
5.865393e+10
7.859063e+10
8.292775e+10
8.627638e+10
8.909776e+10
9.129763e+10
9.275578e+10
9.34307e+10
9.343336e+10
9.276774e+10
9.130985e+10
8.911205e+10
8.630431e+10
8.296448e+10
7.863058e+10
5.869068e+10
4.81243e+10
7.919922e+10
8.096222e+10
8.436971e+10
8.770134e+10
9.056239e+10
9.27485e+10
9.406749e+10
9.472285e+10
9.472552e+10
9.407662e+10
9.275611e+10
9.058023e+10
8.773059e+10
8.440825e+10
8.100859e+10
7.925947e+10
4.814589e+10
5.481117e+10
7.738925e+10
8.147131e+10
8.498893e+10
8.839885e+10
9.127681e+10
9.341499e+10
9.471717e+10
9.545097e+10
9.542291e+10
9.471593e+10
9.342273e+10
9.129757e+10
8.842666e+10
8.50243e+10
8.152202e+10
7.744081e+10
5.484559e+10
5.481585e+10
7.740357e+10
8.147107e+10
8.497578e+10
8.838708e+10
9.127062e+10
9.340765e+10
9.47128e+10
9.546943e+10
9.54372e+10
9.470783e+10
9.340934e+10
9.128045e+10
8.841412e+10
8.501279e+10
8.15113e+10
7.744342e+10
5.485191e+10
4.809981e+10
7.919694e+10
8.094644e+10
8.434792e+10
8.767898e+10
9.0544e+10
9.27351e+10
9.406161e+10
9.4721e+10
9.470933e+10
9.405283e+10
9.273192e+10
9.054809e+10
8.769612e+10
8.437424e+10
8.097675e+10
7.922109e+10
4.81343e+10
5.863115e+10
7.856613e+10
8.290486e+10
8.625872e+10
8.90783e+10
9.128298e+10
9.27441e+10
9.342574e+10
9.341272e+10
9.274089e+10
9.127606e+10
8.907606e+10
8.626164e+10
8.291553e+10
7.858878e+10
5.866128e+10
5.053799e+10
8.003216e+10
8.138885e+10
8.432622e+10
8.697494e+10
8.909344e+10
9.056109e+10
9.129714e+10
9.128826e+10
9.056203e+10
8.908709e+10
8.697208e+10
8.432698e+10
8.139734e+10
8.004815e+10
5.055482e+10
5.894068e+10
7.834711e+10
8.184852e+10
8.434303e+10
8.628656e+10
8.771421e+10
8.847086e+10
8.846404e+10
8.770327e+10
8.627381e+10
8.433064e+10
8.184149e+10
7.835496e+10
5.895158e+10
4.930253e+10
7.78969e+10
7.836635e+10
8.141996e+10
8.293828e+10
8.438365e+10
8.505166e+10
8.504669e+10
8.43702e+10
8.292034e+10
8.139631e+10
7.834268e+10
7.788061e+10
4.928817e+10
4.931069e+10
5.896283e+10
8.006448e+10
7.859379e+10
8.097044e+10
8.151563e+10
8.151968e+10
8.095844e+10
7.858236e+10
8.003763e+10
5.893175e+10
4.928586e+10
5.05565e+10
5.865165e+10
7.920154e+10
7.744469e+10
7.745617e+10
7.919143e+10
5.864022e+10
5.05398e+10
4.811037e+10
5.480798e+10
5.48122e+10
4.810803e+10
4.004418e+10
4.718474e+10
4.923546e+10
5.064504e+10
5.153848e+10
5.154052e+10
5.065143e+10
4.924481e+10
4.719775e+10
4.006165e+10
4.101653e+10
4.964324e+10
6.905418e+10
7.06242e+10
7.329897e+10
7.676715e+10
7.955874e+10
7.956262e+10
7.67843e+10
7.330632e+10
7.061523e+10
6.903873e+10
4.9625e+10
4.100733e+10
4.187388e+10
6.771148e+10
7.073277e+10
7.658917e+10
8.275719e+10
8.80772e+10
9.715632e+10
1.040448e+11
1.040479e+11
9.716991e+10
8.80686e+10
8.273887e+10
7.658456e+10
7.073153e+10
6.773131e+10
4.188673e+10
4.227134e+10
6.886125e+10
7.468401e+10
8.229964e+10
9.05965e+10
1.055423e+11
1.252707e+11
1.543554e+11
1.624595e+11
1.624633e+11
1.543469e+11
1.252726e+11
1.055572e+11
9.061953e+10
8.23234e+10
7.470999e+10
6.888015e+10
4.229417e+10
4.185595e+10
6.883792e+10
7.54549e+10
8.44486e+10
1.031178e+11
1.272065e+11
1.632842e+11
1.843916e+11
2.002003e+11
2.249512e+11
2.249555e+11
2.002259e+11
1.844224e+11
1.6331e+11
1.272556e+11
1.03156e+11
8.449691e+10
7.549276e+10
6.887218e+10
4.188772e+10
4.099119e+10
6.769228e+10
7.465474e+10
8.443794e+10
1.116159e+11
1.57555e+11
1.841446e+11
2.061792e+11
2.412694e+11
2.567684e+11
2.659734e+11
2.659808e+11
2.567918e+11
2.41306e+11
2.062296e+11
1.841973e+11
1.575946e+11
1.116649e+11
8.447476e+10
7.46971e+10
6.77368e+10
4.10254e+10
4.95818e+10
7.06719e+10
8.224493e+10
1.03078e+11
1.575247e+11
1.95511e+11
2.3716e+11
2.597747e+11
2.774506e+11
2.882767e+11
2.938062e+11
2.938155e+11
2.883023e+11
2.77498e+11
2.598385e+11
2.372264e+11
1.955742e+11
1.575841e+11
1.03125e+11
8.230193e+10
7.072852e+10
4.962582e+10
4.00153e+10
6.897324e+10
7.650306e+10
9.052302e+10
1.271288e+11
1.841093e+11
2.371336e+11
2.679467e+11
2.874688e+11
3.008688e+11
3.093283e+11
3.135044e+11
3.13515e+11
3.093571e+11
3.009225e+11
2.875417e+11
2.680295e+11
2.372235e+11
1.841982e+11
1.272154e+11
9.059451e+10
7.655746e+10
6.901761e+10
4.003131e+10
4.714128e+10
7.055912e+10
8.265824e+10
1.054624e+11
1.632276e+11
2.061323e+11
2.59727e+11
2.874412e+11
3.049715e+11
3.166639e+11
3.240089e+11
3.275859e+11
3.275964e+11
3.240404e+11
3.16719e+11
3.050433e+11
2.875256e+11
2.598188e+11
2.062208e+11
1.633091e+11
1.055023e+11
8.270796e+10
7.059362e+10
4.715788e+10
4.918139e+10
7.323503e+10
8.796858e+10
1.251342e+11
1.843137e+11
2.411793e+11
2.773677e+11
3.008078e+11
3.166343e+11
3.273792e+11
3.3416e+11
3.374757e+11
3.374849e+11
3.3419e+11
3.274263e+11
3.166972e+11
3.008881e+11
2.774567e+11
2.412599e+11
1.843541e+11
1.252192e+11
8.804021e+10
7.326905e+10
4.920585e+10
5.05774e+10
7.669515e+10
9.706911e+10
1.542467e+11
2.001009e+11
2.566518e+11
2.881627e+11
3.092383e+11
3.239523e+11
3.34136e+11
3.405783e+11
3.437362e+11
3.437392e+11
3.405969e+11
3.341681e+11
3.240048e+11
3.093145e+11
2.882541e+11
2.567417e+11
2.001704e+11
1.543336e+11
9.712103e+10
7.673988e+10
5.062137e+10
5.145375e+10
7.945095e+10
1.039182e+11
1.62334e+11
2.248072e+11
2.658221e+11
2.936638e+11
3.133871e+11
3.27503e+11
3.374314e+11
3.437233e+11
3.468235e+11
3.46809e+11
3.437298e+11
3.3746e+11
3.275565e+11
3.134637e+11
2.937575e+11
2.659236e+11
2.24903e+11
1.624251e+11
1.039964e+11
7.952215e+10
5.151148e+10
5.144014e+10
7.942388e+10
1.03885e+11
1.623035e+11
2.247921e+11
2.658116e+11
2.936522e+11
3.133739e+11
3.274901e+11
3.374188e+11
3.437174e+11
3.468328e+11
3.46817e+11
3.437256e+11
3.374501e+11
3.27543e+11
3.134489e+11
2.93744e+11
2.65915e+11
2.248964e+11
1.623966e+11
1.039657e+11
7.949836e+10
5.149771e+10
5.054266e+10
7.665123e+10
9.704118e+10
1.542262e+11
2.000467e+11
2.566141e+11
2.881293e+11
3.092039e+11
3.239195e+11
3.341081e+11
3.405609e+11
3.437313e+11
3.437274e+11
3.405753e+11
3.341414e+11
3.239714e+11
3.092762e+11
2.882179e+11
2.567162e+11
2.001544e+11
1.543108e+11
9.711065e+10
7.672119e+10
5.059452e+10
4.914851e+10
7.320278e+10
8.796193e+10
1.251221e+11
1.842606e+11
2.411332e+11
2.773226e+11
3.007634e+11
3.165911e+11
3.273424e+11
3.341308e+11
3.374558e+11
3.374536e+11
3.341483e+11
3.273736e+11
3.166373e+11
3.008273e+11
2.77402e+11
2.412226e+11
1.843584e+11
1.251749e+11
8.800398e+10
7.32649e+10
4.919408e+10
4.71181e+10
7.054206e+10
8.265499e+10
1.054285e+11
1.632105e+11
2.061029e+11
2.596853e+11
2.873937e+11
3.049222e+11
3.166206e+11
3.239686e+11
3.275469e+11
3.275452e+11
3.23984e+11
3.166473e+11
3.049608e+11
2.874451e+11
2.597442e+11
2.061481e+11
1.632523e+11
1.054848e+11
8.268816e+10
7.059032e+10
4.71549e+10
3.999923e+10
6.897331e+10
7.650357e+10
9.05045e+10
1.271287e+11
1.840919e+11
2.371038e+11
2.67906e+11
2.874241e+11
3.008219e+11
3.092801e+11
3.134357e+11
3.134336e+11
3.092842e+11
3.008342e+11
2.874438e+11
2.679349e+11
2.371354e+11
1.841079e+11
1.271423e+11
9.053993e+10
7.652571e+10
6.900247e+10
4.002758e+10
4.95962e+10
7.066843e+10
8.223086e+10
1.030633e+11
1.575181e+11
1.954884e+11
2.371257e+11
2.597356e+11
2.773973e+11
2.882147e+11
2.937026e+11
2.937004e+11
2.882088e+11
2.773922e+11
2.597308e+11
2.371286e+11
1.954916e+11
1.575096e+11
1.030636e+11
8.225442e+10
7.067997e+10
4.959049e+10
4.100293e+10
6.767722e+10
7.464351e+10
8.442249e+10
1.116002e+11
1.575267e+11
1.841225e+11
2.061571e+11
2.4121e+11
2.56698e+11
2.658599e+11
2.658631e+11
2.566875e+11
2.411909e+11
2.061235e+11
1.841038e+11
1.575156e+11
1.115783e+11
8.440803e+10
7.464842e+10
6.768112e+10
4.097891e+10
4.18631e+10
6.885238e+10
7.545143e+10
8.441852e+10
1.030652e+11
1.27148e+11
1.632531e+11
1.843305e+11
2.001125e+11
2.2481e+11
2.248182e+11
2.001033e+11
1.842982e+11
1.631999e+11
1.271179e+11
1.030433e+11
8.439526e+10
7.5428e+10
6.883597e+10
4.184436e+10
4.227182e+10
6.884124e+10
7.464331e+10
8.224966e+10
9.053085e+10
1.054305e+11
1.251384e+11
1.542534e+11
1.62325e+11
1.623236e+11
1.54221e+11
1.251077e+11
1.054174e+11
9.049396e+10
8.221161e+10
7.461156e+10
6.881617e+10
4.225527e+10
4.183815e+10
6.767156e+10
7.066649e+10
7.649244e+10
8.263481e+10
8.796464e+10
9.704748e+10
1.039021e+11
1.038972e+11
9.702966e+10
8.792822e+10
8.261803e+10
7.648084e+10
7.064389e+10
6.764075e+10
4.182158e+10
4.098634e+10
4.957989e+10
6.896224e+10
7.054063e+10
7.321246e+10
7.66651e+10
7.944356e+10
7.944212e+10
7.665538e+10
7.318835e+10
7.051042e+10
6.89554e+10
4.957229e+10
4.097194e+10
3.998608e+10
4.710669e+10
4.914244e+10
5.05396e+10
5.142916e+10
5.142723e+10
5.054633e+10
4.914736e+10
4.710516e+10
3.997598e+10
3.371885e+10
3.968407e+10
4.091665e+10
4.136826e+10
4.136051e+10
4.089228e+10
3.963507e+10
3.368694e+10
3.36942e+10
4.223351e+10
4.685174e+10
6.471799e+10
6.682667e+10
6.821129e+10
6.883898e+10
6.88311e+10
6.818437e+10
6.678149e+10
6.470556e+10
4.685475e+10
4.224584e+10
3.372898e+10
3.738647e+10
6.243274e+10
6.863854e+10
7.854762e+10
8.859597e+10
9.283005e+10
9.540053e+10
9.658217e+10
9.657488e+10
9.537847e+10
9.27947e+10
8.855975e+10
7.853685e+10
6.863861e+10
6.245234e+10
3.742997e+10
3.499119e+10
4.544397e+10
6.727881e+10
8.427082e+10
1.04497e+11
1.356409e+11
1.478742e+11
1.542284e+11
1.583326e+11
1.604302e+11
1.604184e+11
1.582996e+11
1.541801e+11
1.478196e+11
1.355968e+11
1.044798e+11
8.429102e+10
6.728435e+10
4.546793e+10
3.501237e+10
3.526113e+10
6.06898e+10
7.151999e+10
9.687056e+10
1.384758e+11
1.634566e+11
1.843855e+11
2.169125e+11
2.317068e+11
2.403494e+11
2.445746e+11
2.44564e+11
2.403245e+11
2.316799e+11
2.169008e+11
1.844153e+11
1.634986e+11
1.385044e+11
9.68711e+10
7.154908e+10
6.07037e+10
3.527683e+10
3.498137e+10
6.069788e+10
7.419969e+10
1.013775e+11
1.505015e+11
1.823345e+11
2.241187e+11
2.506969e+11
2.738504e+11
2.911453e+11
3.033022e+11
3.092375e+11
3.09229e+11
3.032881e+11
2.911187e+11
2.73824e+11
2.50692e+11
2.241236e+11
1.823479e+11
1.505268e+11
1.014098e+11
7.420645e+10
6.070726e+10
3.500062e+10
4.544145e+10
7.151323e+10
1.013746e+11
1.531016e+11
1.891504e+11
2.383939e+11
2.740514e+11
3.030987e+11
3.284782e+11
3.493518e+11
3.657917e+11
3.722893e+11
3.722826e+11
3.657718e+11
3.493303e+11
3.284747e+11
3.031218e+11
2.74085e+11
2.38437e+11
1.891872e+11
1.5311e+11
1.013921e+11
7.153892e+10
4.54643e+10
3.739842e+10
6.723692e+10
9.681695e+10
1.504952e+11
1.891195e+11
2.426477e+11
2.850713e+11
3.226197e+11
3.552911e+11
3.844557e+11
4.056336e+11
4.20867e+11
4.295611e+11
4.295614e+11
4.208698e+11
4.056435e+11
3.844819e+11
3.553381e+11
3.226792e+11
2.851533e+11
2.427249e+11
1.891903e+11
1.505442e+11
9.686158e+10
6.72746e+10
3.741218e+10
3.366611e+10
6.239183e+10
8.421313e+10
1.384016e+11
1.823196e+11
2.3838e+11
2.850589e+11
3.299144e+11
3.72037e+11
4.05508e+11
4.331863e+11
4.561157e+11
4.722336e+11
4.809562e+11
4.809626e+11
4.722543e+11
4.561549e+11
4.332473e+11
4.055808e+11
3.721211e+11
3.300178e+11
2.851559e+11
2.384669e+11
1.823882e+11
1.384357e+11
8.427491e+10
6.243875e+10
3.368674e+10
4.220444e+10
6.858188e+10
1.043936e+11
1.634033e+11
2.240538e+11
2.74002e+11
3.22558e+11
3.719889e+11
4.133842e+11
4.492899e+11
4.78162e+11
5.005428e+11
5.155642e+11
5.232473e+11
5.232582e+11
5.155993e+11
5.006069e+11
4.782524e+11
4.493968e+11
4.135054e+11
3.7212e+11
3.226831e+11
2.741218e+11
2.241561e+11
1.634447e+11
1.044779e+11
6.864653e+10
4.223873e+10
4.679909e+10
7.844642e+10
1.354609e+11
1.84328e+11
2.505978e+11
3.03e+11
3.551723e+11
4.054162e+11
4.492391e+11
4.862654e+11
5.148228e+11
5.358241e+11
5.496343e+11
5.565331e+11
5.565478e+11
5.496796e+11
5.359047e+11
5.149355e+11
4.864023e+11
4.493957e+11
4.055864e+11
3.553448e+11
3.031593e+11
2.507391e+11
1.844138e+11
1.356255e+11
7.854118e+10
4.684866e+10
3.367363e+10
6.46391e+10
8.84482e+10
1.476845e+11
2.167911e+11
2.737156e+11
3.283331e+11
3.843148e+11
4.330649e+11
4.780679e+11
5.147725e+11
5.424991e+11
5.624291e+11
5.753697e+11
5.817663e+11
5.817825e+11
5.754196e+11
5.625153e+11
5.426196e+11
5.149215e+11
4.782385e+11
4.332493e+11
3.845031e+11
3.285054e+11
2.738771e+11
2.169274e+11
1.478671e+11
8.856621e+10
6.469527e+10
3.370606e+10
3.959314e+10
6.670821e+10
9.26926e+10
1.540613e+11
2.31557e+11
2.909833e+11
3.491555e+11
4.054527e+11
4.559483e+11
5.003993e+11
5.357222e+11
5.623786e+11
5.814825e+11
5.938532e+11
5.999589e+11
5.999739e+11
5.939007e+11
5.815643e+11
5.624955e+11
5.358716e+11
5.005716e+11
4.561318e+11
4.056412e+11
3.493603e+11
2.91162e+11
2.317168e+11
1.542265e+11
9.279794e+10
6.679189e+10
3.96512e+10
4.083796e+10
6.809768e+10
9.526626e+10
1.581878e+11
2.401949e+11
3.031341e+11
3.655901e+11
4.206574e+11
4.720258e+11
5.15374e+11
5.49484e+11
5.752724e+11
5.938088e+11
6.05818e+11
6.117404e+11
6.117503e+11
6.058548e+11
5.938776e+11
5.75379e+11
5.496289e+11
5.155481e+11
4.722157e+11
4.208568e+11
3.65798e+11
3.033148e+11
2.403637e+11
1.58337e+11
9.537735e+10
6.818515e+10
4.089017e+10
4.130692e+10
6.874802e+10
9.646333e+10
1.60307e+11
2.444224e+11
3.090509e+11
3.720731e+11
4.293244e+11
4.807132e+11
5.230182e+11
5.563424e+11
5.816291e+11
5.998792e+11
6.117112e+11
6.175453e+11
6.175483e+11
6.117393e+11
5.99942e+11
5.817328e+11
5.564862e+11
5.231943e+11
4.809088e+11
4.295292e+11
3.722813e+11
3.092422e+11
2.4459e+11
1.604409e+11
9.656729e+10
6.8825e+10
4.135579e+10
4.131081e+10
6.875254e+10
9.646639e+10
1.603152e+11
2.444195e+11
3.090379e+11
3.720576e+11
4.293084e+11
4.806987e+11
5.230047e+11
5.563282e+11
5.816147e+11
5.998659e+11
6.117022e+11
6.175423e+11
6.175448e+11
6.117306e+11
5.999289e+11
5.817162e+11
5.564677e+11
5.231763e+11
4.808934e+11
4.295128e+11
3.722586e+11
3.092232e+11
2.44576e+11
1.604276e+11
9.655826e+10
6.882098e+10
4.135768e+10
4.085688e+10
6.812176e+10
9.528257e+10
1.582141e+11
2.401896e+11
3.031191e+11
3.655766e+11
4.206233e+11
4.719882e+11
5.15336e+11
5.49445e+11
5.752349e+11
5.937758e+11
6.057921e+11
6.117212e+11
6.117272e+11
6.05823e+11
5.938377e+11
5.753323e+11
5.495785e+11
5.155e+11
4.721744e+11
4.208179e+11
3.657589e+11
3.032888e+11
2.403265e+11
1.58288e+11
9.535029e+10
6.81728e+10
4.089239e+10
3.963214e+10
6.674871e+10
9.272115e+10
1.541137e+11
2.315572e+11
2.909778e+11
3.491557e+11
4.054275e+11
4.559075e+11
5.003511e+11
5.356705e+11
5.623275e+11
5.814359e+11
5.938113e+11
5.999184e+11
5.999245e+11
5.938404e+11
5.814922e+11
5.624155e+11
5.357913e+11
5.004992e+11
4.560727e+11
4.055967e+11
3.493062e+11
2.911202e+11
2.316674e+11
1.541358e+11
9.275897e+10
6.678072e+10
3.965468e+10
3.371364e+10
6.467108e+10
8.851128e+10
1.477832e+11
2.168002e+11
2.73726e+11
3.283241e+11
3.843032e+11
4.330373e+11
4.780261e+11
5.147209e+11
5.424439e+11
5.623744e+11
5.753127e+11
5.817001e+11
5.817045e+11
5.753352e+11
5.624192e+11
5.425153e+11
5.148198e+11
4.781459e+11
4.331677e+11
3.844428e+11
3.284667e+11
2.738391e+11
2.168895e+11
1.47756e+11
8.852521e+10
6.470274e+10
3.372456e+10
4.682972e+10
7.850698e+10
1.355847e+11
1.843276e+11
2.50625e+11
3.029901e+11
3.55171e+11
4.054033e+11
4.492078e+11
4.86219e+11
5.147682e+11
5.357614e+11
5.495581e+11
5.564275e+11
5.564289e+11
5.495684e+11
5.357867e+11
5.148136e+11
4.862869e+11
4.492917e+11
4.054956e+11
3.552813e+11
3.031032e+11
2.506945e+11
1.844063e+11
1.355222e+11
7.849699e+10
4.683998e+10
4.2212e+10
6.861967e+10
1.044675e+11
1.634373e+11
2.240994e+11
2.739947e+11
3.22544e+11
3.719744e+11
4.1335e+11
4.492417e+11
4.78105e+11
5.004683e+11
5.154658e+11
5.231042e+11
5.231027e+11
5.154633e+11
5.004709e+11
4.781208e+11
4.492785e+11
4.134021e+11
3.720334e+11
3.226205e+11
2.740606e+11
2.241195e+11
1.63489e+11
1.044353e+11
6.861658e+10
4.223414e+10
3.365845e+10
6.244057e+10
8.427349e+10
1.384527e+11
1.823585e+11
2.383769e+11
2.850389e+11
3.298886e+11
3.719905e+11
4.054514e+11
4.331251e+11
4.560278e+11
4.721171e+11
4.807959e+11
4.807946e+11
4.721063e+11
4.560108e+11
4.331134e+11
4.054639e+11
3.720192e+11
3.299233e+11
2.8508e+11
2.383998e+11
1.823259e+11
1.38476e+11
8.423534e+10
6.241403e+10
3.369168e+10
3.738298e+10
6.727098e+10
9.685263e+10
1.504901e+11
1.89137e+11
2.426357e+11
2.850446e+11
3.225635e+11
3.552154e+11
3.843748e+11
4.055246e+11
4.20727e+11
4.293818e+11
4.293817e+11
4.207141e+11
4.054965e+11
3.843471e+11
3.552102e+11
3.225693e+11
2.85055e+11
2.426512e+11
1.89146e+11
1.505006e+11
9.684018e+10
6.724724e+10
3.738848e+10
4.544006e+10
7.152753e+10
1.013815e+11
1.53101e+11
1.891209e+11
2.383822e+11
2.740175e+11
3.030311e+11
3.283643e+11
3.492112e+11
3.656447e+11
3.721227e+11
3.72118e+11
3.656258e+11
3.491856e+11
3.283448e+11
3.030057e+11
2.739968e+11
2.383688e+11
1.891167e+11
1.530881e+11
1.013532e+11
7.149749e+10
4.542287e+10
3.499424e+10
6.070659e+10
7.419848e+10
1.013697e+11
1.505205e+11
1.823498e+11
2.2407e+11
2.506213e+11
2.73739e+11
2.910091e+11
3.031546e+11
3.090677e+11
3.090623e+11
3.031485e+11
2.909904e+11
2.737161e+11
2.506055e+11
2.240726e+11
1.823393e+11
1.504986e+11
1.013457e+11
7.417099e+10
6.067776e+10
3.497519e+10
3.52531e+10
6.070733e+10
7.152935e+10
9.682197e+10
1.383912e+11
1.633562e+11
1.843059e+11
2.167758e+11
2.31534e+11
2.401678e+11
2.443813e+11
2.443746e+11
2.401817e+11
2.315573e+11
2.167907e+11
1.84298e+11
1.633873e+11
1.384227e+11
9.681925e+10
7.150549e+10
6.068395e+10
3.524022e+10
3.499127e+10
4.54475e+10
6.723635e+10
8.422214e+10
1.043796e+11
1.35482e+11
1.476645e+11
1.539933e+11
1.58112e+11
1.603019e+11
1.60278e+11
1.581588e+11
1.540643e+11
1.477326e+11
1.355366e+11
1.04406e+11
8.421763e+10
6.723281e+10
4.542317e+10
3.498174e+10
3.737022e+10
6.238389e+10
6.856953e+10
7.844107e+10
8.843105e+10
9.263777e+10
9.520542e+10
9.641723e+10
9.638951e+10
9.521824e+10
9.265173e+10
8.844108e+10
7.843605e+10
6.855012e+10
6.239263e+10
3.735834e+10
3.36371e+10
4.21888e+10
4.678487e+10
6.461467e+10
6.667522e+10
6.805213e+10
6.873825e+10
6.872789e+10
6.804806e+10
6.666464e+10
6.461482e+10
4.677235e+10
4.216638e+10
3.364835e+10
3.367057e+10
3.957721e+10
4.080193e+10
4.127965e+10
4.127508e+10
4.079453e+10
3.956192e+10
3.363784e+10
3.000547e+10
3.506057e+10
3.605346e+10
3.604439e+10
3.502839e+10
2.999189e+10
2.855811e+10
3.7444e+10
4.271145e+10
5.020469e+10
6.879951e+10
7.206536e+10
7.326348e+10
7.323739e+10
7.199941e+10
6.872205e+10
5.021208e+10
4.273369e+10
3.745656e+10
2.85874e+10
2.879423e+10
3.968188e+10
6.310226e+10
7.636911e+10
8.950088e+10
1.15624e+11
1.271142e+11
1.313255e+11
1.333302e+11
1.332905e+11
1.312282e+11
1.270384e+11
1.156341e+11
8.950311e+10
7.635161e+10
6.312069e+10
3.972264e+10
2.885063e+10
3.259814e+10
5.908405e+10
8.016157e+10
1.17389e+11
1.355582e+11
1.535408e+11
1.704319e+11
1.981601e+11
2.085759e+11
2.126709e+11
2.126359e+11
2.084867e+11
1.980624e+11
1.703648e+11
1.534699e+11
1.355176e+11
1.173204e+11
8.021324e+10
5.912388e+10
3.266128e+10
3.543297e+10
6.826401e+10
9.530923e+10
1.375645e+11
1.672925e+11
2.069256e+11
2.326785e+11
2.522267e+11
2.685503e+11
2.784853e+11
2.830405e+11
2.830099e+11
2.784042e+11
2.684493e+11
2.521445e+11
2.326373e+11
2.06927e+11
1.673122e+11
1.375479e+11
9.536737e+10
6.829918e+10
3.547699e+10
3.714761e+10
7.668635e+10
1.221153e+11
1.532963e+11
1.849601e+11
2.374115e+11
2.749596e+11
3.057421e+11
3.267615e+11
3.424157e+11
3.524834e+11
3.573427e+11
3.573155e+11
3.524108e+11
3.423217e+11
3.266746e+11
3.056828e+11
2.749455e+11
2.374603e+11
1.850209e+11
1.533058e+11
1.221246e+11
7.670154e+10
3.716835e+10
3.543488e+10
7.668972e+10
1.289417e+11
1.658773e+11
2.179358e+11
2.617158e+11
3.067548e+11
3.434839e+11
3.73985e+11
3.994104e+11
4.179855e+11
4.298148e+11
4.355491e+11
4.35526e+11
4.297559e+11
4.179159e+11
3.993592e+11
3.739708e+11
3.435019e+11
3.068007e+11
2.61753e+11
2.179671e+11
1.658908e+11
1.288885e+11
7.669909e+10
3.545511e+10
3.26012e+10
6.824867e+10
1.221428e+11
1.658626e+11
2.242911e+11
2.761622e+11
3.256809e+11
3.687827e+11
4.086008e+11
4.422821e+11
4.699382e+11
4.904329e+11
5.038289e+11
5.103579e+11
5.103397e+11
5.037848e+11
4.903801e+11
4.699012e+11
4.422792e+11
4.086268e+11
3.688308e+11
3.257322e+11
2.762103e+11
2.243212e+11
1.658868e+11
1.221463e+11
6.828278e+10
3.262472e+10
2.879401e+10
5.906083e+10
9.532726e+10
1.532704e+11
2.179217e+11
2.761594e+11
3.321068e+11
3.811822e+11
4.282471e+11
4.708665e+11
5.068294e+11
5.361909e+11
5.584803e+11
5.733726e+11
5.804259e+11
5.804121e+11
5.733389e+11
5.584466e+11
5.361832e+11
5.068603e+11
4.709271e+11
4.283266e+11
3.812601e+11
3.321657e+11
2.762103e+11
2.179631e+11
1.533113e+11
9.53828e+10
5.910591e+10
2.881565e+10
3.967305e+10
8.016519e+10
1.374751e+11
1.849882e+11
2.616915e+11
3.256661e+11
3.811707e+11
4.345467e+11
4.844553e+11
5.289742e+11
5.66912e+11
5.978911e+11
6.213309e+11
6.371846e+11
6.452741e+11
6.45269e+11
6.371747e+11
6.213334e+11
5.979262e+11
5.669861e+11
5.290807e+11
4.84586e+11
4.346774e+11
3.812856e+11
3.257546e+11
2.617625e+11
1.850414e+11
1.37562e+11
8.022836e+10
3.972234e+10
2.855871e+10
6.304758e+10
1.172746e+11
1.672343e+11
2.374062e+11
3.067082e+11
3.687453e+11
4.282132e+11
4.844274e+11
5.362085e+11
5.82384e+11
6.216415e+11
6.537592e+11
6.787572e+11
6.959377e+11
7.047913e+11
7.047964e+11
6.959577e+11
6.788047e+11
6.538463e+11
6.217663e+11
5.825409e+11
5.363884e+11
4.84606e+11
4.283748e+11
3.68878e+11
3.068068e+11
2.374857e+11
1.672608e+11
1.173823e+11
6.311672e+10
2.861862e+10
3.738792e+10
7.628303e+10
1.354282e+11
2.068786e+11
2.748833e+11
3.433963e+11
4.085086e+11
4.707776e+11
5.288845e+11
5.82321e+11
6.295656e+11
6.70539e+11
7.04249e+11
7.302563e+11
7.47911e+11
7.568814e+11
7.56896e+11
7.479587e+11
7.303457e+11
7.04385e+11
6.707159e+11
6.297744e+11
5.825497e+11
5.291131e+11
4.709923e+11
4.086926e+11
3.435338e+11
2.750027e+11
2.069251e+11
1.354972e+11
7.635984e+10
3.745692e+10
4.267391e+10
8.942829e+10
1.534587e+11
2.326281e+11
3.056022e+11
3.73855e+11
4.421324e+11
5.066694e+11
5.667449e+11
6.215031e+11
6.704607e+11
7.129733e+11
7.475832e+11
7.738111e+11
7.913967e+11
8.002398e+11
8.002612e+11
7.914636e+11
7.739292e+11
7.477545e+11
7.13191e+11
6.707135e+11
6.217783e+11
5.670261e+11
5.069389e+11
4.423727e+11
3.740459e+11
3.057722e+11
2.326907e+11
1.534894e+11
8.946831e+10
4.270534e+10
5.017305e+10
1.156357e+11
1.704323e+11
2.521659e+11
3.266018e+11
3.992307e+11
4.697311e+11
5.359613e+11
5.976572e+11
6.535512e+11
7.040937e+11
7.475019e+11
7.824003e+11
8.085048e+11
8.258494e+11
8.345172e+11
8.345416e+11
8.259244e+11
8.086346e+11
7.82587e+11
7.477401e+11
7.04372e+11
6.538562e+11
5.979736e+11
5.362703e+11
4.70016e+11
3.994732e+11
3.268037e+11
2.522509e+11
1.704247e+11
1.155644e+11
5.017381e+10
2.999051e+10
6.872428e+10
1.271234e+11
1.981549e+11
2.684762e+11
3.422529e+11
4.177748e+11
4.901835e+11
5.58193e+11
6.210361e+11
6.78482e+11
7.300274e+11
7.73652e+11
8.084264e+11
8.342715e+11
8.513687e+11
8.5989e+11
8.599134e+11
8.514418e+11
8.343995e+11
8.086138e+11
7.738955e+11
7.303143e+11
6.787985e+11
6.213708e+11
5.585324e+11
4.904982e+11
4.180494e+11
3.424677e+11
2.685749e+11
1.981472e+11
1.270574e+11
6.872791e+10
2.998724e+10
3.499842e+10
7.199874e+10
1.313057e+11
2.085516e+11
2.784038e+11
3.523321e+11
4.296012e+11
5.035631e+11
5.730592e+11
6.368489e+11
6.956079e+11
7.476176e+11
7.91168e+11
8.25701e+11
8.513e+11
8.682041e+11
8.766169e+11
8.766361e+11
8.68267e+11
8.514151e+11
8.258772e+11
7.914053e+11
7.479046e+11
6.959293e+11
6.371921e+11
5.734087e+11
5.038901e+11
4.29888e+11
3.525529e+11
2.785286e+11
2.085808e+11
1.312809e+11
7.200756e+10
3.50327e+10
3.60108e+10
7.321686e+10
1.332994e+11
2.126545e+11
2.829826e+11
3.572214e+11
4.353544e+11
5.100934e+11
5.801025e+11
6.449137e+11
7.044226e+11
7.565381e+11
7.999553e+11
8.34312e+11
8.597679e+11
8.765679e+11
8.849233e+11
8.849382e+11
8.766216e+11
8.59873e+11
8.344797e+11
8.001863e+11
7.568218e+11
7.047426e+11
6.452552e+11
5.804488e+11
5.104186e+11
4.356356e+11
3.574377e+11
2.831223e+11
2.127263e+11
1.333436e+11
7.325632e+10
3.605078e+10
3.601247e+10
7.322719e+10
1.333317e+11
2.126697e+11
2.829978e+11
3.572353e+11
4.353626e+11
5.100942e+11
5.800971e+11
6.449021e+11
7.044076e+11
7.565227e+11
7.999401e+11
8.342966e+11
8.597533e+11
8.765553e+11
8.849123e+11
8.849257e+11
8.766051e+11
8.598519e+11
8.344549e+11
8.001594e+11
7.567948e+11
7.047174e+11
6.452316e+11
5.80427e+11
5.104025e+11
4.356247e+11
3.574344e+11
2.831356e+11
2.127516e+11
1.333752e+11
7.327663e+10
3.605905e+10
3.502545e+10
7.202104e+10
1.313235e+11
2.085691e+11
2.784392e+11
3.523711e+11
4.296238e+11
5.035706e+11
5.730543e+11
6.368253e+11
6.955727e+11
7.475772e+11
7.911262e+11
8.256607e+11
8.512627e+11
8.681692e+11
8.765813e+11
8.76594e+11
8.682148e+11
8.513526e+11
8.258066e+11
7.913309e+11
7.478319e+11
6.958624e+11
6.371312e+11
5.733561e+11
5.038514e+11
4.298566e+11
3.52541e+11
2.785692e+11
2.086564e+11
1.31374e+11
7.206862e+10
3.50633e+10
3.002457e+10
6.87074e+10
1.270911e+11
1.981585e+11
2.68516e+11
3.423148e+11
4.17812e+11
4.902032e+11
5.582e+11
6.210207e+11
6.784464e+11
7.299801e+11
7.735991e+11
8.083724e+11
8.342179e+11
8.51313e+11
8.598271e+11
8.598373e+11
8.513511e+11
8.342949e+11
8.085004e+11
7.737817e+11
7.302085e+11
6.787057e+11
6.212926e+11
5.584653e+11
4.904476e+11
4.180079e+11
3.424459e+11
2.686358e+11
1.982526e+11
1.271683e+11
6.876545e+10
3.005408e+10
5.018234e+10
1.155582e+11
1.704416e+11
2.522128e+11
3.266914e+11
3.992848e+11
4.697704e+11
5.359789e+11
5.976567e+11
6.535306e+11
7.040565e+11
7.474529e+11
7.823438e+11
8.084414e+11
8.257748e+11
8.344253e+11
8.344319e+11
8.258014e+11
8.084994e+11
7.824459e+11
7.476036e+11
7.042482e+11
6.537507e+11
5.978924e+11
5.362111e+11
4.699735e+11
3.994444e+11
3.26781e+11
2.523199e+11
1.705245e+11
1.156674e+11
5.021244e+10
4.268013e+10
8.944985e+10
1.53494e+11
2.326625e+11
3.057054e+11
3.739204e+11
4.421925e+11
5.066992e+11
5.667576e+11
6.214972e+11
6.704336e+11
7.129284e+11
7.475232e+11
7.737338e+11
7.91296e+11
8.001087e+11
8.001104e+11
7.91307e+11
7.737666e+11
7.47592e+11
7.130394e+11
6.705815e+11
6.216712e+11
5.669501e+11
5.068854e+11
4.423454e+11
3.74048e+11
3.057594e+11
2.327597e+11
1.53552e+11
8.948186e+10
4.269131e+10
3.743144e+10
7.634324e+10
1.355148e+11
2.069076e+11
2.749636e+11
3.434791e+11
4.085869e+11
4.70817e+11
5.288992e+11
5.823163e+11
6.295349e+11
6.704856e+11
7.041742e+11
7.301544e+11
7.477759e+11
7.567077e+11
7.567045e+11
7.477709e+11
7.301603e+11
7.042078e+11
6.705566e+11
6.296397e+11
5.824436e+11
5.29041e+11
4.709465e+11
4.086854e+11
3.435729e+11
2.750146e+11
2.069965e+11
1.355151e+11
7.633664e+10
3.74179e+10
2.859032e+10
6.309382e+10
1.1741e+11
1.672534e+11
2.37433e+11
3.067772e+11
3.688159e+11
4.282538e+11
4.844409e+11
5.36198e+11
5.823421e+11
6.215708e+11
6.536615e+11
6.786246e+11
6.957681e+11
7.045852e+11
7.045791e+11
6.957517e+11
6.786089e+11
6.536653e+11
6.216079e+11
5.824085e+11
5.362835e+11
4.845353e+11
4.283354e+11
3.688771e+11
3.06857e+11
2.374982e+11
1.673361e+11
1.173242e+11
6.30933e+10
2.858287e+10
3.968989e+10
8.018219e+10
1.375644e+11
1.849553e+11
2.617474e+11
3.257168e+11
3.812096e+11
4.345654e+11
4.84448e+11
5.289282e+11
5.668256e+11
5.977681e+11
6.211682e+11
6.369862e+11
6.450467e+11
6.450398e+11
6.369653e+11
6.211413e+11
5.977534e+11
5.668367e+11
5.289617e+11
4.844968e+11
4.346237e+11
3.812667e+11
3.257742e+11
2.618048e+11
1.850343e+11
1.375659e+11
8.017996e+10
3.968726e+10
2.878901e+10
5.90936e+10
9.535836e+10
1.533786e+11
2.180128e+11
2.762196e+11
3.321534e+11
3.812146e+11
4.282569e+11
4.708317e+11
5.067428e+11
5.360506e+11
5.582976e+11
5.731638e+11
5.801999e+11
5.801923e+11
5.731434e+11
5.582716e+11
5.360321e+11
5.067377e+11
4.708426e+11
4.282778e+11
3.812425e+11
3.321782e+11
2.762305e+11
2.180026e+11
1.533498e+11
9.533746e+10
5.908684e+10
2.88117e+10
3.259708e+10
6.830009e+10
1.222259e+11
1.659095e+11
2.243245e+11
2.76207e+11
3.257238e+11
3.688022e+11
4.085574e+11
4.42187e+11
4.697912e+11
4.902446e+11
5.036182e+11
5.101336e+11
5.101269e+11
5.036074e+11
4.902309e+11
4.697811e+11
4.421908e+11
4.085779e+11
3.688162e+11
3.25733e+11
2.762231e+11
2.243356e+11
1.65918e+11
1.221593e+11
6.826943e+10
3.260741e+10
3.543218e+10
7.670246e+10
1.290304e+11
1.658757e+11
2.179874e+11
2.61738e+11
3.067416e+11
3.434079e+11
3.738676e+11
3.992427e+11
4.177787e+11
4.295962e+11
4.35331e+11
4.353236e+11
4.295998e+11
4.17794e+11
3.992646e+11
3.738976e+11
3.434494e+11
3.067592e+11
2.61736e+11
2.179993e+11
1.658868e+11
1.290116e+11
7.668835e+10
3.542572e+10
3.713527e+10
7.669398e+10
1.222293e+11
1.533609e+11
1.850047e+11
2.374202e+11
2.748894e+11
3.056052e+11
3.265886e+11
3.422177e+11
3.522915e+11
3.571861e+11
3.571695e+11
3.523002e+11
3.42245e+11
3.266282e+11
3.056611e+11
2.749292e+11
2.37417e+11
1.849547e+11
1.533651e+11
1.222326e+11
7.669536e+10
3.713152e+10
3.541245e+10
6.82603e+10
9.536448e+10
1.375441e+11
1.671959e+11
2.068388e+11
2.325853e+11
2.521353e+11
2.684387e+11
2.783658e+11
2.829158e+11
2.828904e+11
2.783436e+11
2.684195e+11
2.521258e+11
2.326136e+11
2.068957e+11