/*--------------------------------*- C++ -*----------------------------------*\
  =========                 |
  \\      /  F ield         | OpenFOAM: The Open Source CFD Toolbox
   \\    /   O peration     | Website:  https://openfoam.org
    \\  /    A nd           | Version:  6
     \\/     M anipulation  |
\*---------------------------------------------------------------------------*/
FoamFile
{
    version     2.0;
    format      ascii;
    class       volScalarField;
    location    "50/region0/neutronTransport";
    object      flux1;
}
// * * * * * * * * * * * * * * * * * * * * * * * * * * * * * * * * * * * * * //

dimensions      [0 -2 -1 0 0 0 0];

internalField   nonuniform List<scalar> 
203709
(
1.319267e+17
1.461194e+17
1.461074e+17
1.319708e+17
1.379998e+17
1.555635e+17
1.952297e+17
1.92983e+17
1.929642e+17
1.952316e+17
1.555669e+17
1.380188e+17
1.347605e+17
1.561389e+17
1.977064e+17
1.968842e+17
2.026551e+17
2.040734e+17
2.040677e+17
2.026467e+17
1.968691e+17
1.976966e+17
1.561248e+17
1.347496e+17
1.347774e+17
1.921207e+17
1.960399e+17
2.038608e+17
2.078752e+17
2.114389e+17
2.130091e+17
2.130134e+17
2.114208e+17
2.078441e+17
2.038323e+17
1.960078e+17
1.920951e+17
1.34755e+17
1.561479e+17
1.960426e+17
2.050344e+17
2.11372e+17
2.161678e+17
2.196364e+17
2.213585e+17
2.213588e+17
2.196093e+17
2.161305e+17
2.113335e+17
2.049871e+17
1.959948e+17
1.561052e+17
1.380196e+17
1.977173e+17
2.038747e+17
2.113769e+17
2.179046e+17
2.230528e+17
2.266242e+17
2.283906e+17
2.283844e+17
2.266036e+17
2.230264e+17
2.178596e+17
2.113257e+17
2.038272e+17
1.976754e+17
1.379759e+17
1.555631e+17
1.968835e+17
2.078797e+17
2.161641e+17
2.23052e+17
2.284021e+17
2.319653e+17
2.33646e+17
2.336417e+17
2.319594e+17
2.283766e+17
2.230079e+17
2.161234e+17
2.078366e+17
1.968331e+17
1.555217e+17
1.319595e+17
1.952475e+17
2.026765e+17
2.114602e+17
2.196562e+17
2.266297e+17
2.319688e+17
2.352785e+17
2.369229e+17
2.369231e+17
2.352805e+17
2.319494e+17
2.266008e+17
2.196149e+17
2.114078e+17
2.026193e+17
1.952059e+17
1.318816e+17
1.460992e+17
1.929736e+17
2.040824e+17
2.130428e+17
2.213895e+17
2.284039e+17
2.336597e+17
2.369338e+17
2.387276e+17
2.386764e+17
2.369285e+17
2.336568e+17
2.283951e+17
2.213553e+17
2.129885e+17
2.040328e+17
1.929162e+17
1.460395e+17
1.461166e+17
1.930128e+17
2.040991e+17
2.130396e+17
2.21389e+17
2.284117e+17
2.336632e+17
2.36943e+17
2.387805e+17
2.387249e+17
2.369398e+17
2.33661e+17
2.283941e+17
2.213622e+17
2.129948e+17
2.040376e+17
1.92942e+17
1.460671e+17
1.319279e+17
1.952817e+17
2.026935e+17
2.114725e+17
2.196708e+17
2.266518e+17
2.319964e+17
2.353171e+17
2.369716e+17
2.369522e+17
2.353047e+17
2.319813e+17
2.26622e+17
2.196297e+17
2.114157e+17
2.026219e+17
1.951856e+17
1.318934e+17
1.555653e+17
1.969055e+17
2.079125e+17
2.162093e+17
2.230943e+17
2.284517e+17
2.320185e+17
2.337132e+17
2.336854e+17
2.319992e+17
2.284104e+17
2.230388e+17
2.161365e+17
2.078283e+17
1.968261e+17
1.555113e+17
1.380319e+17
1.977558e+17
2.039104e+17
2.11427e+17
2.17958e+17
2.231203e+17
2.266835e+17
2.284691e+17
2.28442e+17
2.266535e+17
2.23057e+17
2.178809e+17
2.113374e+17
2.038179e+17
1.976607e+17
1.379613e+17
1.561864e+17
1.960968e+17
2.051037e+17
2.114513e+17
2.162483e+17
2.197211e+17
2.215339e+17
2.215071e+17
2.196597e+17
2.161596e+17
2.113428e+17
2.04989e+17
1.959979e+17
1.560996e+17
1.348314e+17
1.922159e+17
1.961187e+17
2.039449e+17
2.079421e+17
2.115016e+17
2.131451e+17
2.131233e+17
2.114391e+17
2.078481e+17
2.038193e+17
1.95977e+17
1.920745e+17
1.347068e+17
1.348249e+17
1.561947e+17
1.977728e+17
1.969073e+17
2.026868e+17
2.041388e+17
2.041374e+17
2.026373e+17
1.968413e+17
1.976594e+17
1.56064e+17
1.34702e+17
1.380133e+17
1.5555e+17
1.952396e+17
1.930447e+17
1.93061e+17
1.952064e+17
1.555001e+17
1.37945e+17
1.319033e+17
1.460635e+17
1.4607e+17
1.318911e+17
1.103517e+17
1.263587e+17
1.316414e+17
1.35261e+17
1.375306e+17
1.375377e+17
1.352837e+17
1.316778e+17
1.264117e+17
1.104254e+17
1.126174e+17
1.322786e+17
1.708972e+17
1.764567e+17
1.829644e+17
1.902579e+17
1.960463e+17
1.960562e+17
1.902968e+17
1.829932e+17
1.764624e+17
1.708893e+17
1.32276e+17
1.126345e+17
1.152698e+17
1.679371e+17
1.774088e+17
1.914296e+17
2.048546e+17
2.160879e+17
2.309664e+17
2.431428e+17
2.431498e+17
2.309939e+17
2.160774e+17
2.048264e+17
1.914283e+17
1.774156e+17
1.679842e+17
1.153256e+17
1.164148e+17
1.710908e+17
1.867493e+17
2.040575e+17
2.221076e+17
2.483573e+17
2.810508e+17
3.146301e+17
3.263602e+17
3.263602e+17
3.146036e+17
2.810354e+17
2.483658e+17
2.221373e+17
2.040915e+17
1.867891e+17
1.71112e+17
1.164737e+17
1.152586e+17
1.710669e+17
1.886718e+17
2.089816e+17
2.433978e+17
2.851069e+17
3.311307e+17
3.642485e+17
3.889557e+17
4.288319e+17
4.288236e+17
3.889583e+17
3.642416e+17
3.311071e+17
2.851202e+17
2.434001e+17
2.090126e+17
1.886878e+17
1.71082e+17
1.153029e+17
1.12619e+17
1.679724e+17
1.867555e+17
2.089971e+17
2.563718e+17
3.206355e+17
3.640066e+17
3.99719e+17
4.570269e+17
4.826667e+17
4.978021e+17
4.977904e+17
4.826373e+17
4.569827e+17
3.996798e+17
3.639576e+17
3.205612e+17
2.563269e+17
2.089566e+17
1.867367e+17
1.679702e+17
1.126456e+17
1.322344e+17
1.77391e+17
2.040595e+17
2.434099e+17
3.206381e+17
3.814063e+17
4.501373e+17
4.881082e+17
5.177587e+17
5.36054e+17
5.453716e+17
5.453567e+17
5.360071e+17
5.176947e+17
4.880302e+17
4.500376e+17
3.813026e+17
3.205397e+17
2.433305e+17
2.040243e+17
1.773838e+17
1.322451e+17
1.103707e+17
1.708689e+17
1.913976e+17
2.221168e+17
2.851151e+17
3.640632e+17
4.501639e+17
5.017116e+17
5.348984e+17
5.578274e+17
5.723782e+17
5.795544e+17
5.795376e+17
5.723235e+17
5.57752e+17
5.348039e+17
5.015971e+17
4.50047e+17
3.639701e+17
2.850678e+17
2.220903e+17
1.913732e+17
1.70833e+17
1.103456e+17
1.263661e+17
1.764779e+17
2.048326e+17
2.483967e+17
3.312275e+17
3.998189e+17
4.88175e+17
5.34933e+17
5.650119e+17
5.852807e+17
5.980864e+17
6.043228e+17
6.043053e+17
5.980347e+17
5.852041e+17
5.649087e+17
5.348104e+17
4.880451e+17
3.997051e+17
3.311341e+17
2.482997e+17
2.047886e+17
1.764193e+17
1.263281e+17
1.316401e+17
1.830034e+17
2.160786e+17
2.810488e+17
3.643713e+17
4.571439e+17
5.178541e+17
5.578958e+17
5.853214e+17
6.041268e+17
6.160565e+17
6.218846e+17
6.218666e+17
6.160076e+17
6.040449e+17
5.852117e+17
5.577723e+17
5.177178e+17
4.569907e+17
3.641885e+17
2.809879e+17
2.160441e+17
1.829241e+17
1.315943e+17
1.352469e+17
1.902998e+17
2.310236e+17
3.147206e+17
3.891018e+17
4.828197e+17
5.361872e+17
5.724925e+17
5.981767e+17
6.161103e+17
6.275039e+17
6.33084e+17
6.33059e+17
6.274461e+17
6.160184e+17
5.980655e+17
5.723734e+17
5.360583e+17
4.826751e+17
3.889506e+17
3.146301e+17
2.309297e+17
1.902195e+17
1.35213e+17
1.374948e+17
1.960413e+17
2.431585e+17
3.264566e+17
4.289862e+17
4.97974e+17
5.455434e+17
5.79716e+17
6.044631e+17
6.219951e+17
6.331484e+17
6.386444e+17
6.385925e+17
6.330759e+17
6.219037e+17
6.043591e+17
5.796025e+17
5.454229e+17
4.978497e+17
4.288611e+17
3.263704e+17
2.430992e+17
1.959966e+17
1.374711e+17
1.374786e+17
1.96006e+17
2.43116e+17
3.264276e+17
4.289912e+17
4.979938e+17
5.455667e+17
5.797424e+17
6.044933e+17
6.220259e+17
6.331883e+17
6.387077e+17
6.386532e+17
6.331176e+17
6.219379e+17
6.043889e+17
5.796308e+17
5.454511e+17
4.978816e+17
4.288888e+17
3.263525e+17
2.430667e+17
1.959696e+17
1.374527e+17
1.352104e+17
1.902575e+17
2.31021e+17
3.147431e+17
3.890941e+17
4.828639e+17
5.362581e+17
5.725769e+17
5.98271e+17
6.162136e+17
6.276222e+17
6.332209e+17
6.33184e+17
6.275569e+17
6.161243e+17
5.98163e+17
5.724621e+17
5.361432e+17
4.827619e+17
3.890232e+17
3.146661e+17
2.309643e+17
1.90224e+17
1.351816e+17
1.316266e+17
1.830044e+17
2.161392e+17
2.811181e+17
3.644024e+17
4.572298e+17
5.179769e+17
5.580438e+17
5.854844e+17
6.043067e+17
6.162522e+17
6.220988e+17
6.220644e+17
6.161905e+17
6.042119e+17
5.853661e+17
5.579171e+17
5.178534e+17
4.5712e+17
3.643296e+17
2.810029e+17
2.16041e+17
1.829642e+17
1.315927e+17
1.263837e+17
1.76521e+17
2.049203e+17
2.484459e+17
3.313439e+17
3.999607e+17
4.88354e+17
5.351378e+17
5.652365e+17
5.8553e+17
5.983523e+17
6.046018e+17
6.045692e+17
5.982901e+17
5.854326e+17
5.651128e+17
5.350011e+17
4.88212e+17
3.998049e+17
3.311961e+17
2.483504e+17
2.048044e+17
1.764595e+17
1.263375e+17
1.104006e+17
1.709513e+17
1.915035e+17
2.221952e+17
2.852718e+17
3.64245e+17
4.503933e+17
5.019706e+17
5.351844e+17
5.581358e+17
5.727065e+17
5.798718e+17
5.798414e+17
5.726335e+17
5.580276e+17
5.350471e+17
5.018179e+17
4.50229e+17
3.640602e+17
2.850938e+17
2.220819e+17
1.91372e+17
1.708622e+17
1.103538e+17
1.323443e+17
1.774955e+17
2.041502e+17
2.435385e+17
3.208417e+17
3.816434e+17
4.504235e+17
4.884304e+17
5.180976e+17
5.364104e+17
5.456887e+17
5.456629e+17
5.363349e+17
5.179831e+17
4.882813e+17
4.502619e+17
3.814717e+17
3.206458e+17
2.433671e+17
2.040356e+17
1.7736e+17
1.322113e+17
1.12712e+17
1.680509e+17
1.868497e+17
2.091077e+17
2.565253e+17
3.208404e+17
3.64276e+17
4.000362e+17
4.573575e+17
4.830236e+17
4.981264e+17
4.98115e+17
4.82957e+17
4.572484e+17
3.998803e+17
3.641269e+17
3.206905e+17
2.563563e+17
2.089531e+17
1.867357e+17
1.679331e+17
1.1257e+17
1.153495e+17
1.71212e+17
1.887966e+17
2.090768e+17
2.434956e+17
2.852545e+17
3.31391e+17
3.645131e+17
3.892222e+17
4.290812e+17
4.290843e+17
3.891762e+17
3.644115e+17
3.312386e+17
2.851297e+17
2.433766e+17
2.089493e+17
1.886661e+17
1.710962e+17
1.152377e+17
1.164927e+17
1.711779e+17
1.868192e+17
2.041359e+17
2.221828e+17
2.483942e+17
2.811131e+17
3.148059e+17
3.265092e+17
3.265028e+17
3.147381e+17
2.810357e+17
2.483386e+17
2.220767e+17
2.040175e+17
1.867076e+17
1.710791e+17
1.164137e+17
1.152803e+17
1.68011e+17
1.774429e+17
1.914263e+17
2.048319e+17
2.161056e+17
2.310213e+17
2.431669e+17
2.431573e+17
2.309848e+17
2.160317e+17
2.047878e+17
1.913909e+17
1.77382e+17
1.679307e+17
1.152239e+17
1.126491e+17
1.322676e+17
1.708911e+17
1.764803e+17
1.829971e+17
1.90277e+17
1.960495e+17
1.960487e+17
1.902653e+17
1.829618e+17
1.764361e+17
1.708897e+17
1.322583e+17
1.126217e+17
1.103311e+17
1.263219e+17
1.315848e+17
1.351909e+17
1.374641e+17
1.374639e+17
1.352181e+17
1.316151e+17
1.263416e+17
1.103301e+17
9.340764e+16
1.067334e+17
1.099844e+17
1.112225e+17
1.112037e+17
1.099293e+17
1.066329e+17
9.334925e+16
9.32804e+16
1.129442e+17
1.240872e+17
1.585301e+17
1.645408e+17
1.680554e+17
1.696522e+17
1.696333e+17
1.679947e+17
1.644459e+17
1.585145e+17
1.241141e+17
1.129968e+17
9.338988e+16
1.031188e+17
1.535032e+17
1.68593e+17
1.867402e+17
2.065086e+17
2.155839e+17
2.211438e+17
2.237475e+17
2.237305e+17
2.210934e+17
2.155062e+17
2.064331e+17
1.867196e+17
1.686038e+17
1.535404e+17
1.032322e+17
9.645898e+16
1.211098e+17
1.653257e+17
1.980149e+17
2.335226e+17
2.742474e+17
2.944684e+17
3.061348e+17
3.138843e+17
3.178983e+17
3.178719e+17
3.138086e+17
3.060188e+17
2.943282e+17
2.741172e+17
2.334612e+17
1.980326e+17
1.653235e+17
1.211529e+17
9.64878e+16
9.738669e+16
1.502808e+17
1.752358e+17
2.202335e+17
2.793608e+17
3.206129e+17
3.551313e+17
4.094444e+17
4.347619e+17
4.496768e+17
4.570932e+17
4.570648e+17
4.496016e+17
4.346567e+17
4.093375e+17
3.550808e+17
3.205719e+17
2.793068e+17
2.201834e+17
1.752647e+17
1.502641e+17
9.739791e+16
9.645883e+16
1.503124e+17
1.811506e+17
2.293717e+17
3.0028e+17
3.518656e+17
4.217562e+17
4.669111e+17
5.061056e+17
5.352387e+17
5.550674e+17
5.649455e+17
5.649156e+17
5.549945e+17
5.351081e+17
5.05938e+17
4.667481e+17
4.215895e+17
3.517293e+17
3.001791e+17
2.293565e+17
1.81111e+17
1.502721e+17
9.646718e+16
1.211527e+17
1.752763e+17
2.293919e+17
3.051603e+17
3.639206e+17
4.462518e+17
5.06566e+17
5.557297e+17
5.978165e+17
6.318953e+17
6.563762e+17
6.663992e+17
6.66364e+17
6.562706e+17
6.317387e+17
5.976439e+17
5.555624e+17
5.063899e+17
4.460881e+17
3.637775e+17
3.050074e+17
2.293301e+17
1.752549e+17
1.211541e+17
1.03218e+17
1.653343e+17
2.202182e+17
3.003375e+17
3.639128e+17
4.536235e+17
5.251121e+17
5.879332e+17
6.421783e+17
6.881722e+17
7.224247e+17
7.468095e+17
7.608613e+17
7.608273e+17
7.467116e+17
7.222754e+17
6.879911e+17
6.419831e+17
5.87727e+17
5.249333e+17
4.534527e+17
3.637876e+17
3.002205e+17
2.201761e+17
1.653133e+17
1.031914e+17
9.330534e+16
1.535352e+17
1.980327e+17
2.793735e+17
3.519751e+17
4.46347e+17
5.251633e+17
5.995223e+17
6.673211e+17
7.224472e+17
7.678857e+17
8.057571e+17
8.323985e+17
8.468056e+17
8.467712e+17
8.322999e+17
8.056086e+17
7.677022e+17
7.22227e+17
6.670808e+17
5.992987e+17
5.249438e+17
4.461492e+17
3.518177e+17
2.792196e+17
1.980118e+17
1.534959e+17
9.327033e+16
1.129826e+17
1.68626e+17
2.335047e+17
3.207165e+17
4.21866e+17
5.066922e+17
5.880009e+17
6.673443e+17
7.349415e+17
7.945316e+17
8.427003e+17
8.801197e+17
9.052617e+17
9.18098e+17
9.180625e+17
9.051614e+17
8.799712e+17
8.425131e+17
7.943079e+17
7.346982e+17
6.670985e+17
5.877587e+17
5.064769e+17
4.216784e+17
3.205157e+17
2.334726e+17
1.686082e+17
1.129482e+17
1.240934e+17
1.867155e+17
2.741695e+17
3.552976e+17
4.670537e+17
5.558797e+17
6.422699e+17
7.225217e+17
7.945749e+17
8.563503e+17
9.043062e+17
9.396701e+17
9.629487e+17
9.745555e+17
9.745208e+17
9.628499e+17
9.395238e+17
9.041225e+17
8.561358e+17
7.943447e+17
7.22291e+17
6.420517e+17
5.556744e+17
4.668757e+17
3.55116e+17
2.741914e+17
1.867355e+17
1.240795e+17
9.340161e+16
1.585509e+17
2.064338e+17
2.9442e+17
4.096036e+17
5.062851e+17
5.979985e+17
6.883482e+17
7.680403e+17
8.428103e+17
9.043665e+17
9.5113e+17
9.848479e+17
1.006766e+18
1.01758e+18
1.017547e+18
1.006671e+18
9.847046e+17
9.509499e+17
9.041589e+17
8.425856e+17
7.678111e+17
6.881259e+17
5.977817e+17
5.061005e+17
4.094384e+17
2.944414e+17
2.064689e+17
1.584923e+17
9.337813e+16
1.06659e+17
1.644895e+17
2.155488e+17
3.061578e+17
4.349424e+17
5.354621e+17
6.320985e+17
7.226541e+17
8.059718e+17
8.802964e+17
9.398012e+17
9.849232e+17
1.017357e+18
1.038381e+18
1.048735e+18
1.048701e+18
1.038284e+18
1.01721e+18
9.847435e+17
9.396006e+17
8.8008e+17
8.057432e+17
7.224282e+17
6.319196e+17
5.352811e+17
4.347872e+17
3.061314e+17
2.155393e+17
1.644792e+17
1.066628e+17
1.09946e+17
1.680294e+17
2.211432e+17
3.139756e+17
4.499029e+17
5.553576e+17
6.566666e+17
7.471059e+17
8.326826e+17
9.055136e+17
9.631626e+17
1.006932e+18
1.038475e+18
1.058928e+18
1.068993e+18
1.068952e+18
1.05882e+18
1.038318e+18
1.006748e+18
9.629693e+17
9.053129e+17
8.324737e+17
7.469025e+17
6.56488e+17
5.551692e+17
4.497521e+17
3.139082e+17
2.211117e+17
1.680052e+17
1.099247e+17
1.112294e+17
1.696878e+17
2.238012e+17
3.180536e+17
4.573657e+17
5.652677e+17
6.667482e+17
7.612212e+17
8.471612e+17
9.184329e+17
9.748609e+17
1.017842e+18
1.048934e+18
1.069104e+18
1.079029e+18
1.078977e+18
1.068983e+18
1.048769e+18
1.017657e+18
9.746719e+17
9.18245e+17
8.469741e+17
7.610394e+17
6.665822e+17
5.651057e+17
4.572204e+17
3.179577e+17
2.237346e+17
1.696249e+17
1.111895e+17
1.112444e+17
1.697076e+17
2.238217e+17
3.180831e+17
4.57384e+17
5.652793e+17
6.66768e+17
7.612521e+17
8.472052e+17
9.184865e+17
9.749211e+17
1.017907e+18
1.049002e+18
1.069178e+18
1.079111e+18
1.079057e+18
1.069056e+18
1.048836e+18
1.017722e+18
9.747337e+17
9.183058e+17
8.470341e+17
7.610894e+17
6.666114e+17
5.651295e+17
4.572406e+17
3.179634e+17
2.237338e+17
1.696263e+17
1.111952e+17
1.100022e+17
1.681067e+17
2.212171e+17
3.140677e+17
4.499639e+17
5.554333e+17
6.567771e+17
7.472152e+17
8.328169e+17
9.056758e+17
9.633451e+17
1.007129e+18
1.038684e+18
1.05915e+18
1.069225e+18
1.069178e+18
1.059034e+18
1.038523e+18
1.006945e+18
9.631601e+17
9.055001e+17
8.326549e+17
7.470615e+17
6.566146e+17
5.552837e+17
4.498135e+17
3.139033e+17
2.211045e+17
1.680105e+17
1.099427e+17
1.067649e+17
1.646137e+17
2.15671e+17
3.063236e+17
4.350567e+17
5.356152e+17
6.323069e+17
7.228689e+17
8.06211e+17
8.805712e+17
9.401075e+17
9.852544e+17
1.017709e+18
1.03875e+18
1.049115e+18
1.049072e+18
1.038643e+18
1.017554e+18
9.850749e+17
9.399241e+17
8.803954e+17
8.060438e+17
7.227038e+17
6.321243e+17
5.354503e+17
4.348897e+17
3.060932e+17
2.155258e+17
1.64504e+17
1.066958e+17
9.352101e+16
1.58662e+17
2.066317e+17
2.946859e+17
4.097676e+17
5.065116e+17
5.982486e+17
6.886572e+17
7.683882e+17
8.431986e+17
9.04792e+17
9.51589e+17
9.853367e+17
1.007275e+18
1.018093e+18
1.018054e+18
1.007176e+18
9.851914e+17
9.514164e+17
9.046097e+17
8.430145e+17
7.682026e+17
6.884821e+17
5.980927e+17
5.06335e+17
4.095999e+17
2.943946e+17
2.064625e+17
1.585711e+17
9.344652e+16
1.24204e+17
1.86914e+17
2.744932e+17
3.554604e+17
4.673363e+17
5.561654e+17
6.426459e+17
7.229566e+17
7.950569e+17
8.568774e+17
9.048774e+17
9.402761e+17
9.63573e+17
9.751649e+17
9.751287e+17
9.634764e+17
9.401339e+17
9.047069e+17
8.566941e+17
7.948648e+17
7.227577e+17
6.42473e+17
5.560127e+17
4.67136e+17
3.553303e+17
2.741707e+17
1.867287e+17
1.24109e+17
1.130432e+17
1.687741e+17
2.337621e+17
3.209479e+17
4.221881e+17
5.069995e+17
5.883838e+17
6.678171e+17
7.354712e+17
7.951236e+17
8.433534e+17
8.808107e+17
9.059689e+17
9.187751e+17
9.18742e+17
9.058737e+17
8.806674e+17
8.431816e+17
7.949453e+17
7.352877e+17
6.676251e+17
5.88218e+17
5.068302e+17
4.219609e+17
3.208111e+17
2.335221e+17
1.686351e+17
1.129914e+17
9.332029e+16
1.53697e+17
1.982519e+17
2.796228e+17
3.52263e+17
4.466536e+17
5.25537e+17
5.999857e+17
6.678556e+17
7.230637e+17
7.685833e+17
8.064906e+17
8.331509e+17
8.475348e+17
8.475086e+17
8.330618e+17
8.063477e+17
7.684102e+17
7.228987e+17
6.676935e+17
5.998211e+17
5.253823e+17
4.464825e+17
3.520219e+17
2.794917e+17
1.980499e+17
1.535465e+17
9.332314e+16
1.032268e+17
1.654787e+17
2.20425e+17
3.005401e+17
3.642178e+17
4.539856e+17
5.255543e+17
5.884361e+17
6.427593e+17
6.888468e+17
7.231391e+17
7.475411e+17
7.615753e+17
7.61557e+17
7.474661e+17
7.230072e+17
6.886872e+17
6.426148e+17
5.882946e+17
5.254128e+17
4.538552e+17
3.640946e+17
3.004276e+17
2.202927e+17
1.653562e+17
1.031785e+17
1.212191e+17
1.754151e+17
2.295717e+17
3.053998e+17
3.641909e+17
4.466741e+17
5.070637e+17
5.562806e+17
5.983937e+17
6.325194e+17
6.570593e+17
6.67089e+17
6.670688e+17
6.569906e+17
6.32417e+17
5.982846e+17
5.561486e+17
5.069303e+17
4.46551e+17
3.64094e+17
3.052949e+17
2.294562e+17
1.752936e+17
1.211364e+17
9.654793e+16
1.504277e+17
1.812887e+17
2.295467e+17
3.005842e+17
3.522547e+17
4.221637e+17
4.67377e+17
5.066121e+17
5.357852e+17
5.556539e+17
5.655319e+17
5.655146e+17
5.556186e+17
5.357152e+17
5.065267e+17
4.673001e+17
4.221149e+17
3.521888e+17
3.005056e+17
2.294737e+17
1.812081e+17
1.503451e+17
9.648427e+16
9.743476e+16
1.504203e+17
1.754136e+17
2.203605e+17
2.795208e+17
3.20825e+17
3.554576e+17
4.097987e+17
4.351241e+17
4.500676e+17
4.574914e+17
4.574766e+17
4.500784e+17
4.351435e+17
4.098016e+17
3.554297e+17
3.20863e+17
2.795581e+17
2.203591e+17
1.753686e+17
1.503706e+17
9.740107e+16
9.652669e+16
1.212225e+17
1.654058e+17
1.981399e+17
2.335966e+17
2.743371e+17
2.945271e+17
3.061846e+17
3.139842e+17
3.1817e+17
3.181318e+17
3.140624e+17
3.063026e+17
2.946402e+17
2.744315e+17
2.336625e+17
1.981555e+17
1.654122e+17
1.211873e+17
9.651575e+16
1.031865e+17
1.535672e+17
1.686669e+17
1.86782e+17
2.064886e+17
2.155371e+17
2.211165e+17
2.238046e+17
2.237621e+17
2.211514e+17
2.155816e+17
2.065294e+17
1.867952e+17
1.686525e+17
1.536153e+17
1.031796e+17
9.326344e+16
1.129837e+17
1.241042e+17
1.585672e+17
1.644959e+17
1.680109e+17
1.697255e+17
1.697093e+17
1.680076e+17
1.644855e+17
1.58581e+17
1.241002e+17
1.129571e+17
9.329913e+16
9.343154e+16
1.066685e+17
1.099162e+17
1.112163e+17
1.112062e+17
1.099024e+17
1.066396e+17
9.336265e+16
8.296092e+16
9.420475e+16
9.666872e+16
9.664695e+16
9.413686e+16
8.293525e+16
7.953834e+16
1.00008e+17
1.123824e+17
1.268097e+17
1.596758e+17
1.666477e+17
1.693045e+17
1.692463e+17
1.665015e+17
1.595174e+17
1.268305e+17
1.124536e+17
1.000743e+17
7.964804e+16
8.015577e+16
1.051785e+17
1.489211e+17
1.75179e+17
1.984472e+17
2.327015e+17
2.513179e+17
2.589625e+17
2.626774e+17
2.625962e+17
2.587594e+17
2.511352e+17
2.326621e+17
1.984322e+17
1.751301e+17
1.489592e+17
1.052806e+17
8.029705e+16
8.999113e+16
1.433843e+17
1.812648e+17
2.355679e+17
2.666826e+17
2.975258e+17
3.253186e+17
3.713774e+17
3.890801e+17
3.961336e+17
3.960547e+17
3.888709e+17
3.711213e+17
3.251066e+17
2.973061e+17
2.665075e+17
2.353564e+17
1.813023e+17
1.434189e+17
9.011761e+16
9.669661e+16
1.599967e+17
2.101174e+17
2.715943e+17
3.198904e+17
3.861314e+17
4.291385e+17
4.621722e+17
4.897904e+17
5.067329e+17
5.145395e+17
5.144634e+17
5.065221e+17
4.894969e+17
4.618688e+17
4.288738e+17
3.859224e+17
3.197323e+17
2.714018e+17
2.101036e+17
1.599686e+17
9.674385e+16
1.004686e+17
1.737299e+17
2.440258e+17
2.975828e+17
3.506361e+17
4.374045e+17
4.996708e+17
5.489755e+17
5.838986e+17
6.103682e+17
6.275259e+17
6.358372e+17
6.357628e+17
6.273159e+17
6.100601e+17
5.835411e+17
5.486099e+17
4.993483e+17
4.371838e+17
3.504802e+17
2.973707e+17
2.438471e+17
1.736263e+17
1.004458e+17
9.673398e+16
1.737593e+17
2.552072e+17
3.174311e+17
4.052287e+17
4.779929e+17
5.509436e+17
6.117522e+17
6.623005e+17
7.049045e+17
7.362167e+17
7.562028e+17
7.659148e+17
7.658436e+17
7.560037e+17
7.359267e+17
7.045696e+17
6.619564e+17
6.114075e+17
5.50623e+17
4.776746e+17
4.049396e+17
3.171789e+17
2.548962e+17
1.736337e+17
9.670459e+16
9.005544e+16
1.600283e+17
2.441265e+17
3.174453e+17
4.159243e+17
5.023436e+17
5.828086e+17
6.539174e+17
7.204595e+17
7.769487e+17
8.233916e+17
8.577839e+17
8.801052e+17
8.909959e+17
8.909275e+17
8.799148e+17
8.574946e+17
8.230408e+17
7.765709e+17
7.200634e+17
6.535237e+17
5.82417e+17
5.019816e+17
4.155901e+17
3.171884e+17
2.439017e+17
1.599479e+17
9.002832e+16
8.021765e+16
1.434295e+17
2.102614e+17
2.976491e+17
4.053089e+17
5.024043e+17
5.937752e+17
6.749717e+17
7.536343e+17
8.251567e+17
8.855428e+17
9.346391e+17
9.717319e+17
9.960712e+17
1.007623e+18
1.007554e+18
9.958743e+17
9.714364e+17
9.34286e+17
8.851588e+17
8.247465e+17
7.532127e+17
6.74537e+17
5.93331e+17
5.020064e+17
4.049767e+17
2.974205e+17
2.101541e+17
1.43367e+17
8.01889e+16
1.052516e+17
1.814101e+17
2.716152e+17
3.508548e+17
4.781388e+17
5.829444e+17
6.750497e+17
7.643898e+17
8.481036e+17
9.227113e+17
9.861882e+17
1.037596e+18
1.076535e+18
1.102754e+18
1.116121e+18
1.116054e+18
1.102562e+18
1.076248e+18
1.037249e+18
9.858009e+17
9.222954e+17
8.476782e+17
7.639512e+17
6.746067e+17
5.825105e+17
4.777636e+17
3.505766e+17
2.714664e+17
1.813278e+17
1.052377e+17
7.962544e+16
1.489697e+17
2.355665e+17
3.200226e+17
4.37674e+17
5.511663e+17
6.541374e+17
7.53803e+17
8.481875e+17
9.348238e+17
1.01176e+18
1.07737e+18
1.131007e+18
1.172787e+18
1.201476e+18
1.21623e+18
1.216166e+18
1.201296e+18
1.172517e+18
1.130676e+18
1.076991e+18
1.011348e+18
9.343965e+17
8.477426e+17
7.53351e+17
6.536903e+17
5.507401e+17
4.373236e+17
3.197038e+17
2.354708e+17
1.489153e+17
7.965869e+16
1.000046e+17
1.751941e+17
2.667027e+17
3.86379e+17
4.999349e+17
6.120346e+17
7.207292e+17
8.253852e+17
9.228517e+17
1.011818e+18
1.090645e+18
1.159287e+18
1.215859e+18
1.259536e+18
1.289175e+18
1.304197e+18
1.304138e+18
1.28901e+18
1.259289e+18
1.215554e+18
1.158936e+18
1.09026e+18
1.011411e+18
9.224253e+17
8.249521e+17
7.202935e+17
6.115964e+17
4.995686e+17
3.860059e+17
2.664972e+17
1.75112e+17
1.000106e+17
1.12432e+17
1.985349e+17
2.976842e+17
4.294665e+17
5.492509e+17
6.626479e+17
7.772764e+17
8.858218e+17
9.863811e+17
1.077491e+18
1.159349e+18
1.230742e+18
1.288997e+18
1.333182e+18
1.362799e+18
1.377652e+18
1.377599e+18
1.36265e+18
1.332958e+18
1.288722e+18
1.230429e+18
1.159007e+18
1.077128e+18
9.860011e+17
8.854312e+17
7.76878e+17
6.62237e+17
5.488999e+17
4.290632e+17
2.973665e+17
1.983353e+17
1.123404e+17
1.268912e+17
2.32968e+17
3.256656e+17
4.625607e+17
5.842442e+17
7.053002e+17
8.237778e+17
9.349746e+17
1.037866e+18
1.131213e+18
1.216002e+18
1.289075e+18
1.347943e+18
1.392017e+18
1.421292e+18
1.435882e+18
1.435834e+18
1.421156e+18
1.391812e+18
1.347694e+18
1.288796e+18
1.215698e+18
1.13089e+18
1.037529e+18
9.346254e+17
8.23418e+17
7.04932e+17
5.839034e+17
4.621529e+17
3.252488e+17
2.32547e+17
1.267186e+17
8.302588e+16
1.597372e+17
2.516194e+17
3.71796e+17
4.902331e+17
6.107992e+17
7.36677e+17
8.582413e+17
9.721362e+17
1.076889e+18
1.173086e+18
1.259776e+18
1.333359e+18
1.392118e+18
1.435824e+18
1.464728e+18
1.479093e+18
1.479045e+18
1.464593e+18
1.435625e+18
1.391882e+18
1.333103e+18
1.259504e+18
1.172799e+18
1.076594e+18
9.718377e+17
8.579191e+17
7.363422e+17
6.104554e+17
4.898136e+17
3.713202e+17
2.511777e+17
1.595128e+17
8.291311e+16
9.419359e+16
1.667383e+17
2.59246e+17
3.895235e+17
5.072327e+17
6.28055e+17
7.567571e+17
8.806604e+17
9.965829e+17
1.103216e+18
1.201887e+18
1.289531e+18
1.363097e+18
1.421519e+18
1.464857e+18
1.493463e+18
1.507659e+18
1.507605e+18
1.493316e+18
1.464646e+18
1.421281e+18
1.362852e+18
1.289284e+18
1.201633e+18
1.102957e+18
9.96316e+17
8.803664e+17
7.564464e+17
6.27718e+17
5.068406e+17
3.890879e+17
2.588641e+17
1.665244e+17
9.414775e+16
9.670769e+16
1.694517e+17
2.629754e+17
3.966414e+17
5.151393e+17
6.36485e+17
7.665853e+17
8.916608e+17
1.008254e+18
1.116709e+18
1.21677e+18
1.304686e+18
1.378088e+18
1.436251e+18
1.479369e+18
1.507811e+18
1.521916e+18
1.521855e+18
1.50765e+18
1.479144e+18
1.436004e+18
1.377845e+18
1.304452e+18
1.216538e+18
1.116474e+18
1.00801e+18
8.913932e+17
7.662924e+17
6.361613e+17
5.147806e+17
3.962775e+17
2.627104e+17
1.692955e+17
9.666904e+16
9.671851e+16
1.694841e+17
2.63046e+17
3.966895e+17
5.151909e+17
6.365389e+17
7.666384e+17
8.917151e+17
1.008316e+18
1.116778e+18
1.216849e+18
1.304776e+18
1.378186e+18
1.436355e+18
1.479477e+18
1.507922e+18
1.522028e+18
1.521965e+18
1.507754e+18
1.479244e+18
1.436101e+18
1.37794e+18
1.304546e+18
1.21663e+18
1.116558e+18
1.008085e+18
8.914635e+17
7.66358e+17
6.362266e+17
5.148614e+17
3.963678e+17
2.627982e+17
1.69353e+17
9.66979e+16
9.427131e+16
1.668117e+17
2.593228e+17
3.896191e+17
5.073693e+17
6.282103e+17
7.569116e+17
8.808294e+17
9.967823e+17
1.103434e+18
1.20213e+18
1.289802e+18
1.363393e+18
1.421834e+18
1.465184e+18
1.493797e+18
1.507994e+18
1.507932e+18
1.493632e+18
1.464952e+18
1.42158e+18
1.363148e+18
1.289575e+18
1.201915e+18
1.103219e+18
9.965519e+17
8.805835e+17
7.566335e+17
6.278961e+17
5.070669e+17
3.893399e+17
2.591096e+17
1.666954e+17
9.423943e+16
8.313577e+16
1.597446e+17
2.516339e+17
3.719017e+17
4.904223e+17
6.110472e+17
7.369267e+17
8.585252e+17
9.72474e+17
1.077265e+18
1.173498e+18
1.260232e+18
1.333855e+18
1.392646e+18
1.436373e+18
1.465288e+18
1.479654e+18
1.479597e+18
1.465133e+18
1.436152e+18
1.3924e+18
1.333616e+18
1.260008e+18
1.173284e+18
1.077047e+18
9.722414e+17
8.58278e+17
7.366439e+17
6.10719e+17
4.901473e+17
3.716744e+17
2.514899e+17
1.596713e+17
8.309966e+16
1.269541e+17
2.329237e+17
3.257933e+17
4.627939e+17
5.845821e+17
7.056366e+17
8.241707e+17
9.354245e+17
1.038381e+18
1.131788e+18
1.216636e+18
1.289763e+18
1.348675e+18
1.392781e+18
1.422074e+18
1.436666e+18
1.436614e+18
1.421932e+18
1.392577e+18
1.348446e+18
1.289535e+18
1.216417e+18
1.131576e+18
1.038172e+18
9.352073e+17
8.239249e+17
7.053597e+17
5.842436e+17
4.62552e+17
3.256161e+17
2.328635e+17
1.268726e+17
1.124904e+17
1.986374e+17
2.978559e+17
4.296944e+17
5.496408e+17
6.630426e+17
7.77756e+17
8.863585e+17
9.870033e+17
1.078197e+18
1.160129e+18
1.231591e+18
1.289906e+18
1.334136e+18
1.363776e+18
1.37863e+18
1.378582e+18
1.363643e+18
1.333945e+18
1.289691e+18
1.231374e+18
1.159917e+18
1.077988e+18
9.86804e+17
8.861482e+17
7.775085e+17
6.627894e+17
5.49311e+17
4.294973e+17
2.976873e+17
1.985068e+17
1.123906e+17
1.001336e+17
1.753782e+17
2.6696e+17
3.865965e+17
5.003001e+17
6.12478e+17
7.21265e+17
8.259752e+17
9.235314e+17
1.012601e+18
1.091519e+18
1.16025e+18
1.216903e+18
1.260636e+18
1.290304e+18
1.305327e+18
1.305281e+18
1.290175e+18
1.260449e+18
1.216692e+18
1.160042e+18
1.091318e+18
1.012403e+18
9.233393e+17
8.257628e+17
7.210165e+17
6.122507e+17
5.000419e+17
3.864569e+17
2.66745e+17
1.752045e+17
1.000075e+17
7.973125e+16
1.491109e+17
2.358905e+17
3.202015e+17
4.379394e+17
5.515863e+17
6.546642e+17
7.544074e+17
8.488929e+17
9.356444e+17
1.012687e+18
1.078401e+18
1.132133e+18
1.173976e+18
1.202701e+18
1.217464e+18
1.21742e+18
1.202575e+18
1.173789e+18
1.131923e+18
1.078198e+18
1.012494e+18
9.354576e+17
8.487091e+17
7.542062e+17
6.544437e+17
5.514214e+17
4.377901e+17
3.20137e+17
2.355902e+17
1.48997e+17
7.963644e+16
1.053324e+17
1.815195e+17
2.718881e+17
3.509852e+17
4.785183e+17
5.834265e+17
6.756422e+17
7.651014e+17
8.489402e+17
9.236585e+17
9.872405e+17
1.038744e+18
1.077749e+18
1.104007e+18
1.117392e+18
1.117352e+18
1.10389e+18
1.077572e+18
1.038544e+18
9.870477e+17
9.234759e+17
8.487657e+17
7.649364e+17
6.754812e+17
5.832802e+17
4.783981e+17
3.509491e+17
2.717512e+17
1.814102e+17
1.052505e+17
8.024155e+16
1.435546e+17
2.104236e+17
2.979914e+17
4.057132e+17
5.02868e+17
5.943479e+17
6.756725e+17
7.544712e+17
8.261026e+17
8.865832e+17
9.357527e+17
9.729075e+17
9.97299e+17
1.008881e+18
1.008845e+18
9.97197e+17
9.727566e+17
9.355823e+17
8.864106e+17
8.259393e+17
7.543144e+17
6.755257e+17
5.94203e+17
5.027167e+17
4.055478e+17
2.978293e+17
2.103e+17
1.434808e+17
8.023972e+16
9.008054e+16
1.602049e+17
2.444032e+17
3.177272e+17
4.162951e+17
5.028595e+17
5.834726e+17
6.547113e+17
7.213292e+17
7.779098e+17
8.244246e+17
8.58872e+17
8.812429e+17
8.921638e+17
8.92134e+17
8.811701e+17
8.587633e+17
8.242986e+17
7.777912e+17
7.212281e+17
6.54594e+17
5.833495e+17
5.027572e+17
4.162005e+17
3.176526e+17
2.442234e+17
1.60107e+17
9.007391e+16
9.677389e+16
1.73881e+17
2.555206e+17
3.176744e+17
4.056902e+17
4.78541e+17
5.515965e+17
6.12469e+17
6.631113e+17
7.057751e+17
7.37132e+17
7.57174e+17
7.669336e+17
7.669073e+17
7.571384e+17
7.370916e+17
7.057279e+17
6.630666e+17
6.124381e+17
5.515239e+17
4.78443e+17
4.056244e+17
3.176261e+17
2.55436e+17
1.73829e+17
9.674692e+16
1.004973e+17
1.738575e+17
2.444048e+17
2.979751e+17
3.510935e+17
4.379722e+17
5.002659e+17
5.496064e+17
5.845872e+17
6.111056e+17
6.283377e+17
6.367506e+17
6.367133e+17
6.283221e+17
6.111023e+17
5.845903e+17
5.496283e+17
5.002594e+17
4.378977e+17
3.509538e+17
2.979323e+17
2.443731e+17
1.738447e+17
1.004897e+17
9.671628e+16
1.601079e+17
2.104314e+17
2.718733e+17
3.201392e+17
3.865469e+17
4.296601e+17
4.627917e+17
4.904575e+17
5.074467e+17
5.152903e+17
5.152417e+17
5.073885e+17