/*--------------------------------*- C++ -*----------------------------------*\
  =========                 |
  \\      /  F ield         | OpenFOAM: The Open Source CFD Toolbox
   \\    /   O peration     | Website:  https://openfoam.org
    \\  /    A nd           | Version:  6
     \\/     M anipulation  |
\*---------------------------------------------------------------------------*/
FoamFile
{
    version     2.0;
    format      ascii;
    class       volScalarField;
    location    "50/region0/neutronTransport";
    object      flux4;
}
// * * * * * * * * * * * * * * * * * * * * * * * * * * * * * * * * * * * * * //

dimensions      [0 -2 -1 0 0 0 0];

internalField   nonuniform List<scalar> 
203709
(
4.766667e+10
5.431415e+10
5.430375e+10
4.767454e+10
5.007527e+10
5.80976e+10
7.843021e+10
7.665341e+10
7.663796e+10
7.841338e+10
5.807696e+10
5.005627e+10
4.88389e+10
5.839083e+10
7.926929e+10
7.781507e+10
8.015032e+10
8.066292e+10
8.065439e+10
8.012895e+10
7.777906e+10
7.92209e+10
5.834395e+10
4.879053e+10
4.884864e+10
7.714238e+10
7.759283e+10
8.059129e+10
8.208149e+10
8.349714e+10
8.41056e+10
8.4102e+10
8.34704e+10
8.203688e+10
8.053526e+10
7.75238e+10
7.706278e+10
4.878777e+10
5.840073e+10
7.759746e+10
8.103402e+10
8.347466e+10
8.537547e+10
8.676833e+10
8.745504e+10
8.744943e+10
8.67372e+10
8.532786e+10
8.341444e+10
8.095738e+10
7.7509e+10
5.832126e+10
5.009229e+10
7.928402e+10
8.060388e+10
8.347782e+10
8.60727e+10
8.814022e+10
8.95805e+10
9.028623e+10
9.027788e+10
8.955501e+10
8.810252e+10
8.601447e+10
8.340356e+10
8.051803e+10
7.918653e+10
5.001641e+10
5.810963e+10
7.78278e+10
8.209128e+10
8.537327e+10
8.813747e+10
9.029623e+10
9.172627e+10
9.238426e+10
9.237806e+10
9.17117e+10
9.026438e+10
8.808884e+10
8.531372e+10
8.2015e+10
7.773516e+10
5.802995e+10
4.769596e+10
7.846121e+10
8.017987e+10
8.35209e+10
8.678435e+10
8.958638e+10
9.173055e+10
9.302512e+10
9.36676e+10
9.366529e+10
9.30175e+10
9.170507e+10
8.954833e+10
8.672851e+10
8.344471e+10
8.008729e+10
7.836253e+10
4.760793e+10
5.432551e+10
7.667418e+10
8.069232e+10
8.414425e+10
8.748686e+10
9.030612e+10
9.240174e+10
9.367963e+10
9.44012e+10
9.437138e+10
9.366921e+10
9.238579e+10
9.027919e+10
8.743653e+10
8.407083e+10
8.060913e+10
7.657715e+10
5.423991e+10
5.433482e+10
7.66958e+10
8.070256e+10
8.414579e+10
8.749206e+10
9.031677e+10
9.240986e+10
9.369002e+10
9.443488e+10
9.440282e+10
9.368105e+10
9.23948e+10
9.02861e+10
8.744817e+10
8.408229e+10
8.061917e+10
7.659757e+10
5.425788e+10
4.768446e+10
7.84822e+10
8.019383e+10
8.353735e+10
8.680766e+10
8.96169e+10
9.17636e+10
9.306242e+10
9.370889e+10
9.369659e+10
9.304814e+10
9.174209e+10
8.958157e+10
8.675957e+10
8.34728e+10
8.011188e+10
7.837574e+10
4.7625e+10
5.811528e+10
7.784738e+10
8.212253e+10
8.541887e+10
8.81863e+10
9.034782e+10
9.177822e+10
9.244308e+10
9.242602e+10
9.176114e+10
9.031397e+10
8.814012e+10
8.535804e+10
8.204906e+10
7.77686e+10
5.805246e+10
5.010307e+10
7.931373e+10
8.063674e+10
8.352346e+10
8.612407e+10
8.820125e+10
8.963733e+10
9.035374e+10
9.033803e+10
8.961744e+10
8.816003e+10
8.607175e+10
8.345955e+10
8.056484e+10
7.923174e+10
5.004338e+10
5.842561e+10
7.763674e+10
8.108504e+10
8.353466e+10
8.543966e+10
8.683672e+10
8.757366e+10
8.755983e+10
8.680491e+10
8.539253e+10
8.347478e+10
8.101756e+10
7.757207e+10
5.836808e+10
4.887788e+10
7.72002e+10
7.764532e+10
8.065174e+10
8.21385e+10
8.355631e+10
8.420841e+10
8.419864e+10
8.352849e+10
8.209633e+10
8.05935e+10
7.757593e+10
7.712548e+10
4.881515e+10
4.887386e+10
5.84272e+10
7.932188e+10
7.785174e+10
8.019746e+10
8.073198e+10
8.073414e+10
8.017983e+10
7.782966e+10
7.927831e+10
5.837547e+10
4.882455e+10
5.009742e+10
5.811399e+10
7.847384e+10
7.672974e+10
7.674179e+10
7.846568e+10
5.810257e+10
5.007856e+10
4.768477e+10
5.432561e+10
5.433156e+10
4.768639e+10
3.969744e+10
4.676811e+10
4.879172e+10
5.018001e+10
5.105825e+10
5.105596e+10
5.017423e+10
4.878269e+10
4.67581e+10
3.969188e+10
4.066539e+10
4.920553e+10
6.842965e+10
6.996692e+10
7.260051e+10
7.602126e+10
7.877438e+10
7.877142e+10
7.601903e+10
7.257801e+10
6.991803e+10
6.836018e+10
4.914667e+10
4.061492e+10
4.151597e+10
6.711337e+10
7.008436e+10
7.586515e+10
8.195093e+10
8.719682e+10
9.616577e+10
1.029693e+11
1.029634e+11
9.615445e+10
8.715242e+10
8.188464e+10
7.580152e+10
7.001339e+10
6.70452e+10
4.147383e+10
4.191595e+10
6.825919e+10
7.400407e+10
8.151902e+10
8.970511e+10
1.0447e+11
1.239647e+11
1.527138e+11
1.607085e+11
1.60695e+11
1.526565e+11
1.23906e+11
1.044138e+11
8.964986e+10
8.145268e+10
7.392865e+10
6.816284e+10
4.186386e+10
4.151478e+10
6.825021e+10
7.478214e+10
8.36606e+10
1.021102e+11
1.259139e+11
1.615695e+11
1.824074e+11
1.980082e+11
2.224369e+11
2.224147e+11
1.979595e+11
1.823288e+11
1.614595e+11
1.258298e+11
1.020151e+11
8.357838e+10
7.468221e+10
6.813765e+10
4.145055e+10
4.067029e+10
6.713371e+10
7.401028e+10
8.367285e+10
1.105485e+11
1.559648e+11
1.822202e+11
2.039667e+11
2.385994e+11
2.538703e+11
2.629245e+11
2.628974e+11
2.537933e+11
2.384795e+11
2.038251e+11
1.82056e+11
1.557751e+11
1.104011e+11
8.353807e+10
7.388038e+10
6.700454e+10
4.059403e+10
4.919043e+10
7.008299e+10
8.152576e+10
1.021254e+11
1.559725e+11
1.93505e+11
2.346278e+11
2.569208e+11
2.743263e+11
2.849664e+11
2.9038e+11
2.90349e+11
2.848742e+11
2.741847e+11
2.567336e+11
2.343991e+11
1.932656e+11
1.557437e+11
1.019506e+11
8.138302e+10
6.995237e+10
4.909427e+10
3.971217e+10
6.842081e+10
7.585877e+10
8.971944e+10
1.259311e+11
1.8227e+11
2.346536e+11
2.650475e+11
2.842693e+11
2.974403e+11
3.057358e+11
3.098084e+11
3.097769e+11
3.056398e+11
2.972901e+11
2.840666e+11
2.647978e+11
2.343805e+11
1.820215e+11
1.25749e+11
8.957713e+10
7.571458e+10
6.827055e+10
3.961177e+10
4.678158e+10
6.99859e+10
8.195085e+10
1.045079e+11
1.616504e+11
2.040519e+11
2.569809e+11
2.842987e+11
3.015438e+11
3.13025e+11
3.202198e+11
3.237023e+11
3.236729e+11
3.201318e+11
3.128827e+11
3.01344e+11
2.840458e+11
2.566925e+11
2.037749e+11
1.61403e+11
1.043123e+11
8.179633e+10
6.983048e+10
4.666352e+10
4.880439e+10
7.263348e+10
8.72057e+10
1.239856e+11
1.825184e+11
2.387124e+11
2.744174e+11
2.975012e+11
3.130587e+11
3.236057e+11
3.302473e+11
3.334761e+11
3.334496e+11
3.3017e+11
3.234743e+11
3.128721e+11
2.97262e+11
2.741311e+11
2.383964e+11
1.822029e+11
1.237946e+11
8.706184e+10
7.247006e+10
4.868445e+10
5.019048e+10
7.606278e+10
9.621958e+10
1.528081e+11
1.981489e+11
2.540241e+11
2.851001e+11
3.05844e+11
3.203022e+11
3.302965e+11
3.366073e+11
3.396852e+11
3.396576e+11
3.365335e+11
3.301724e+11
3.201307e+11
3.056245e+11
2.848318e+11
2.537185e+11
1.978488e+11
1.525723e+11
9.603717e+10
7.589832e+10
5.007896e+10
5.106352e+10
7.879909e+10
1.030111e+11
1.60825e+11
2.226083e+11
2.631146e+11
2.905651e+11
3.099766e+11
3.238468e+11
3.335884e+11
3.397502e+11
3.427727e+11
3.427312e+11
3.39673e+11
3.334721e+11
3.236889e+11
3.097731e+11
2.903164e+11
2.628325e+11
2.223191e+11
1.60592e+11
1.028451e+11
7.865501e+10
5.095953e+10
5.105564e+10
7.878092e+10
1.029888e+11
1.608089e+11
2.226135e+11
2.631318e+11
2.905896e+11
3.100084e+11
3.238845e+11
3.336281e+11
3.397957e+11
3.428325e+11
3.427905e+11
3.397226e+11
3.33519e+11
3.237347e+11
3.098185e+11
2.903613e+11
2.628774e+11
2.223569e+11
1.605956e+11
1.028355e+11
7.864681e+10
5.09547e+10
5.01717e+10
7.604311e+10
9.622066e+10
1.528273e+11
1.981507e+11
2.540663e+11
2.851715e+11
3.059381e+11
3.204136e+11
3.304181e+11
3.367398e+11
3.398309e+11
3.397997e+11
3.366717e+11
3.303125e+11
3.202701e+11
3.057607e+11
2.849646e+11
2.538458e+11
1.979544e+11
1.526371e+11
9.608088e+10
7.592016e+10
5.007564e+10
4.879444e+10
7.263526e+10
8.723875e+10
1.240265e+11
1.825459e+11
2.387855e+11
2.745302e+11
2.976482e+11
3.132316e+11
3.237982e+11
3.304552e+11
3.337008e+11
3.336718e+11
3.303919e+11
3.236952e+11
3.130925e+11
2.974803e+11
2.743414e+11
2.385898e+11
1.823782e+11
1.238563e+11
8.709487e+10
7.251974e+10
4.870365e+10
4.678385e+10
7.000675e+10
8.199297e+10
1.04533e+11
1.617281e+11
2.041571e+11
2.571293e+11
2.84482e+11
3.017578e+11
3.132689e+11
3.204851e+11
3.239852e+11
3.239588e+11
3.204268e+11
3.131742e+11
3.016302e+11
2.843282e+11
2.569561e+11
2.039735e+11
1.61549e+11
1.044063e+11
8.185592e+10
6.98901e+10
4.669599e+10
3.971916e+10
6.845942e+10
7.590496e+10
8.975903e+10
1.260196e+11
1.823941e+11
2.348274e+11
2.652576e+11
2.845148e+11
2.977178e+11
3.060411e+11
3.10119e+11
3.100971e+11
3.059859e+11
2.976323e+11
2.844006e+11
2.65121e+11
2.346716e+11
1.82225e+11
1.258635e+11
8.964356e+10
7.577773e+10
6.833665e+10
3.964675e+10
4.923352e+10
7.012402e+10
8.156812e+10
1.021895e+11
1.56103e+11
1.936728e+11
2.348472e+11
2.571824e+11
2.746198e+11
2.852901e+11
2.90696e+11
2.906807e+11
2.852449e+11
2.745495e+11
2.570873e+11
2.347374e+11
1.935524e+11
1.55962e+11
1.020679e+11
8.146965e+10
7.001221e+10
4.912648e+10
4.070475e+10
6.716196e+10
7.405059e+10
8.372177e+10
1.106314e+11
1.561058e+11
1.824182e+11
2.042132e+11
2.388837e+11
2.541933e+11
2.632479e+11
2.632452e+11
2.541652e+11
2.388347e+11
2.041405e+11
1.823458e+11
1.560258e+11
1.105361e+11
8.363038e+10
7.396811e+10
6.706941e+10
4.061001e+10
4.15484e+10
6.831594e+10
7.484059e+10
8.370899e+10
1.021691e+11
1.260141e+11
1.617725e+11
1.826382e+11
1.98264e+11
2.227118e+11
2.227207e+11
1.982574e+11
1.826063e+11
1.617139e+11
1.259699e+11
1.021228e+11
8.365232e+10
7.477291e+10
6.824319e+10
4.14822e+10
4.195051e+10
6.830497e+10
7.404305e+10
8.156791e+10
8.976092e+10
1.045169e+11
1.240431e+11
1.52902e+11
1.609052e+11
1.609088e+11
1.528834e+11
1.240286e+11
1.045176e+11
8.973243e+10
8.153028e+10
7.40022e+10
6.825991e+10
4.191099e+10
4.152479e+10
6.715569e+10
7.011287e+10
7.58815e+10
8.196352e+10
8.724124e+10
9.624626e+10
1.030472e+11
1.030486e+11
9.62457e+10
8.722861e+10
8.197311e+10
7.589364e+10
7.010727e+10
6.713442e+10
4.15064e+10
4.068867e+10
4.921395e+10
6.845036e+10
7.000922e+10
7.265706e+10
7.608308e+10
7.884382e+10
7.884939e+10
7.609317e+10
7.266218e+10
7.001347e+10
6.847906e+10
4.923051e+10
4.06909e+10
3.970818e+10
4.678037e+10
4.880262e+10
5.019248e+10
5.108024e+10
5.108432e+10
5.021642e+10
4.883366e+10
4.680998e+10
3.972683e+10
3.346917e+10
3.9387e+10
4.060432e+10
4.104622e+10
4.103403e+10
4.056782e+10
3.932115e+10
3.34221e+10
3.344373e+10
4.191384e+10
4.648924e+10
6.420697e+10
6.628722e+10
6.764903e+10
6.826102e+10
6.824549e+10
6.760046e+10
6.620932e+10
6.415202e+10
4.646133e+10
4.189128e+10
3.344554e+10
3.710277e+10
6.194601e+10
6.808526e+10
7.789556e+10
8.784411e+10
9.202586e+10
9.455768e+10
9.571445e+10
9.569641e+10
9.450461e+10
9.194229e+10
8.774577e+10
7.781585e+10
6.801291e+10
6.187871e+10
3.709099e+10
3.473851e+10
4.509968e+10
6.674787e+10
8.357552e+10
1.036027e+11
1.344386e+11
1.465305e+11
1.527965e+11
1.568342e+11
1.588871e+11
1.588548e+11
1.567403e+11
1.526486e+11
1.463408e+11
1.342342e+11
1.034551e+11
8.347105e+10
6.663209e+10
4.502945e+10
3.467207e+10
3.501135e+10
6.0237e+10
7.095397e+10
9.606502e+10
1.372697e+11
1.6198e+11
1.826691e+11
2.148174e+11
2.294141e+11
2.379253e+11
2.420697e+11
2.420281e+11
2.37808e+11
2.292359e+11
2.146022e+11
1.824681e+11
1.617702e+11
1.37044e+11
9.588162e+10
7.082934e+10
6.008974e+10
3.492548e+10
3.474242e+10
6.025572e+10
7.362188e+10
1.005393e+11
1.491904e+11
1.806811e+11
2.21991e+11
2.482347e+11
2.710818e+11
2.881317e+11
3.001033e+11
3.059277e+11
3.058807e+11
2.999748e+11
2.879182e+11
2.708015e+11
2.479194e+11
2.216459e+11
1.803492e+11
1.488875e+11
1.003455e+11
7.34427e+10
6.008045e+10
3.464743e+10
4.512168e+10
7.097074e+10
1.005523e+11
1.517836e+11
1.874475e+11
2.361348e+11
2.713504e+11
3.000089e+11
3.250328e+11
3.456003e+11
3.617896e+11
3.681559e+11
3.681025e+11
3.616305e+11
3.453538e+11
3.247246e+11
2.996584e+11
2.709583e+11
2.357297e+11
1.870658e+11
1.514128e+11
1.003104e+11
7.079223e+10
4.499925e+10
3.714912e+10
6.675083e+10
9.605719e+10
1.492289e+11
1.874459e+11
2.403774e+11
2.822832e+11
3.193415e+11
3.515593e+11
3.803017e+11
4.01146e+11
4.161214e+11
4.246421e+11
4.245869e+11
4.15959e+11
4.008884e+11
3.79965e+11
3.511642e+11
3.188989e+11
2.818306e+11
2.399218e+11
1.870424e+11
1.488621e+11
9.582212e+10
6.657132e+10
3.703182e+10
3.345891e+10
6.196766e+10
8.358486e+10
1.372798e+11
1.807503e+11
2.361986e+11
2.823212e+11
3.266076e+11
3.681643e+11
4.011464e+11
4.283947e+11
4.509462e+11
4.667762e+11
4.753122e+11
4.752545e+11
4.666065e+11
4.506762e+11
4.280366e+11
4.007074e+11
3.676651e+11
3.260905e+11
2.817943e+11
2.356928e+11
1.803111e+11
1.368929e+11
8.337751e+10
6.178589e+10
3.334322e+10
4.194051e+10
6.810386e+10
1.035968e+11
1.62052e+11
2.220685e+11
2.714416e+11
3.194009e+11
3.681919e+11
4.090045e+11
4.443696e+11
4.727763e+11
4.947695e+11
5.095023e+11
5.170011e+11
5.169404e+11
5.093253e+11
4.944885e+11
4.723991e+11
4.439047e+11
4.084734e+11
3.676231e+11
3.188237e+11
2.708875e+11
2.215571e+11
1.615986e+11
1.033434e+11
6.792395e+10
4.180328e+10
4.650171e+10
7.788846e+10
1.344032e+11
1.827831e+11
2.483415e+11
3.001278e+11
3.516492e+11
4.012249e+11
4.444164e+11
4.808714e+11
5.089517e+11
5.29571e+11
5.430991e+11
5.498183e+11
5.497583e+11
5.429227e+11
5.292879e+11
5.085693e+11
4.803996e+11
4.438755e+11
4.006426e+11
3.510598e+11
2.995541e+11
2.478091e+11
1.823156e+11
1.341212e+11
7.770772e+10
4.636533e+10
3.347924e+10
6.422346e+10
8.781456e+10
1.46522e+11
2.149369e+11
2.712237e+11
3.251884e+11
3.804645e+11
4.285453e+11
4.728866e+11
5.090096e+11
5.362588e+11
5.558156e+11
5.684847e+11
5.747096e+11
5.746538e+11
5.683196e+11
5.555464e+11
5.358891e+11
5.085452e+11
4.723439e+11
4.279517e+11
3.798532e+11
3.245897e+11
2.706688e+11
2.144405e+11
1.462236e+11
8.762594e+10
6.402464e+10
3.336627e+10
3.936466e+10
6.627595e+10
9.202569e+10
1.528416e+11
2.295604e+11
2.883166e+11
3.457899e+11
4.013667e+11
4.511613e+11
4.949479e+11
5.296975e+11
5.558851e+11
5.746282e+11
5.867397e+11
5.926829e+11
5.926316e+11
5.865882e+11
5.743792e+11
5.555409e+11
5.292589e+11
4.944245e+11
4.505751e+11
4.00754e+11
3.452099e+11
2.877601e+11
2.290636e+11
1.525145e+11
9.181022e+10
6.610034e+10
3.925315e+10
4.060209e+10
6.765548e+10
9.45804e+10
1.569325e+11
2.381184e+11
3.00351e+11
3.620594e+11
4.164129e+11
4.670674e+11
5.097626e+11
5.433128e+11
5.68645e+11
5.868313e+11
5.985911e+11
6.043598e+11
6.043099e+11
5.984483e+11
5.865995e+11
5.683273e+11
5.429083e+11
5.092744e+11
4.665129e+11
4.158278e+11
3.61485e+11
2.997949e+11
2.376273e+11
1.565859e+11
9.43569e+10
6.747482e+10
4.047805e+10
4.106842e+10
6.830255e+10
9.577157e+10
1.59038e+11
2.423151e+11
3.062232e+11
3.684931e+11
4.250079e+11
4.756878e+11
5.173593e+11
5.501406e+11
5.74983e+11
5.928886e+11
6.044748e+11
6.101592e+11
6.101069e+11
6.043355e+11
5.926687e+11
5.746851e+11
5.497641e+11
5.169072e+11
4.751743e+11
4.244613e+11
3.679463e+11
3.056966e+11
2.418369e+11
1.58683e+11
9.553495e+10
6.810548e+10
4.093578e+10
4.107307e+10
6.830957e+10
9.578004e+10
1.59055e+11
2.423283e+11
3.062331e+11
3.685078e+11
4.250306e+11
4.757226e+11
5.174071e+11
5.502008e+11
5.75053e+11
5.929644e+11
6.04556e+11
6.102466e+11
6.101953e+11
6.044218e+11
5.927543e+11
5.747705e+11
5.498487e+11
5.169903e+11
4.752541e+11
4.245303e+11
3.679967e+11
3.057373e+11
2.418691e+11
1.586986e+11
9.55397e+10
6.810815e+10
4.093863e+10
4.062322e+10
6.768662e+10
9.461196e+10
1.569841e+11
2.381595e+11
3.004025e+11
3.621336e+11
4.164908e+11
4.671717e+11
5.099029e+11
5.434882e+11
5.688489e+11
5.870538e+11
5.988277e+11
6.046085e+11
6.045615e+11
5.987e+11
5.868527e+11
5.685814e+11
5.43161e+11
5.095225e+11
4.667491e+11
4.160378e+11
3.616572e+11
2.999395e+11
2.37721e+11
1.566181e+11
9.436869e+10
6.748366e+10
4.048761e+10
3.94072e+10
6.632721e+10
9.207697e+10
1.529326e+11
2.296319e+11
2.884141e+11
3.459249e+11
4.015138e+11
4.513394e+11
4.951731e+11
5.299718e+11
5.562032e+11
5.749792e+11
5.87115e+11
5.930766e+11
5.93033e+11
5.869952e+11
5.747896e+11
5.559531e+11
5.296705e+11
4.948276e+11
4.509565e+11
4.010995e+11
3.454834e+11
2.879822e+11
2.292148e+11
1.525479e+11
9.182941e+10
6.612433e+10
3.927277e+10
3.352296e+10
6.426874e+10
8.790464e+10
1.466689e+11
2.150347e+11
2.713637e+11
3.253493e+11
3.806717e+11
4.287944e+11
4.731874e+11
5.093643e+11
5.366658e+11
5.562681e+11
5.689714e+11
5.752184e+11
5.751788e+11
5.688625e+11
5.560965e+11
5.364403e+11
5.090935e+11
4.728759e+11
4.284464e+11
3.80301e+11
3.249741e+11
2.709705e+11
2.14657e+11
1.462726e+11
8.766016e+10
6.408262e+10
3.340723e+10
4.654293e+10
7.797664e+10
1.34581e+11
1.828742e+11
2.485132e+11
3.003104e+11
3.518965e+11
4.015276e+11
4.447732e+11
4.812854e+11
5.094243e+11
5.300957e+11
5.436632e+11
5.503991e+11
5.503651e+11
5.435682e+11
5.299474e+11
5.092308e+11
4.810536e+11
4.445039e+11
4.012229e+11
3.515826e+11
2.999894e+11
2.481577e+11
1.825825e+11
1.342027e+11
7.77504e+10
4.640315e+10
4.195766e+10
6.816683e+10
1.037201e+11
1.621778e+11
2.222613e+11
2.716362e+11
3.196504e+11
3.685159e+11
4.093873e+11
4.448186e+11
4.732938e+11
4.953427e+11
5.10117e+11
5.176284e+11
5.176025e+11
5.100413e+11
4.952237e+11
4.731399e+11
4.446385e+11
4.091776e+11
3.682728e+11
3.193984e+11
2.713598e+11
2.219426e+11
1.619309e+11
1.034559e+11
6.798493e+10
4.18516e+10
3.345878e+10
6.203925e+10
8.368667e+10
1.37416e+11
1.809204e+11
2.363921e+11
2.825651e+11
3.269232e+11
3.685465e+11
4.016041e+11
4.289317e+11
4.515387e+11
4.674147e+11
4.759721e+11
4.759579e+11
4.673645e+11
4.51454e+11
4.28821e+11
4.014822e+11
3.684031e+11
3.26752e+11
2.823742e+11
2.361692e+11
1.806535e+11
1.372187e+11
8.348182e+10
6.186312e+10
3.339708e+10
3.714793e+10
6.681966e+10
9.615517e+10
1.493421e+11
1.876334e+11
2.406141e+11
2.82585e+11
3.196987e+11
3.519864e+11
3.808168e+11
4.01719e+11
4.16742e+11
4.252922e+11
4.252898e+11
4.16721e+11
4.016723e+11
3.807528e+11
3.519206e+11
3.19615e+11
2.824769e+11
2.40488e+11
1.874951e+11
1.491976e+11
9.601165e+10
6.667995e+10
3.70732e+10
4.514636e+10
7.103509e+10
1.006431e+11
1.519333e+11
1.876293e+11
2.364252e+11
2.717033e+11
3.004152e+11
3.254822e+11
3.461106e+11
3.623769e+11
3.687903e+11
3.687919e+11
3.623742e+11
3.46104e+11
3.254762e+11
3.003889e+11
2.716606e+11
2.363662e+11
1.875635e+11
1.51841e+11
1.005373e+11
7.09293e+10
4.506458e+10
3.477947e+10
6.031255e+10
7.368825e+10
1.006367e+11
1.493913e+11
1.809474e+11
2.22289e+11
2.485892e+11
2.714866e+11
2.885913e+11
3.006246e+11
3.064896e+11
3.064954e+11
3.006498e+11
2.886169e+11
2.715115e+11
2.486144e+11
2.223179e+11
1.80945e+11
1.493574e+11
1.005891e+11
7.362532e+10
6.02344e+10
3.472007e+10
3.503511e+10
6.031538e+10
7.104331e+10
9.613956e+10
1.373927e+11
1.621554e+11
1.829342e+11
2.151278e+11
2.297588e+11
2.383224e+11
2.425092e+11
2.425159e+11
2.383742e+11
2.29838e+11
2.152072e+11
1.82989e+11
1.622385e+11
1.374592e+11
9.615692e+10
7.102242e+10
6.027675e+10
3.500395e+10
3.477721e+10
4.515852e+10
6.679794e+10
8.365755e+10
1.03669e+11
1.345538e+11
1.466508e+11
1.529354e+11
1.570292e+11
1.592121e+11
1.592008e+11
1.571109e+11
1.53059e+11
1.467817e+11
1.346726e+11
1.037539e+11
8.3698e+10
6.682307e+10
4.514652e+10
3.476756e+10
3.714346e+10
6.200602e+10
6.814622e+10
7.795239e+10
8.788306e+10
9.20675e+10
9.462528e+10
9.583813e+10
9.582086e+10
9.466772e+10
9.212657e+10
8.794726e+10
7.800127e+10
6.817469e+10
6.205231e+10
3.715375e+10
3.345226e+10
4.195812e+10
4.652901e+10
6.426753e+10
6.631976e+10
6.769468e+10
6.838412e+10
6.838146e+10
6.771272e+10
6.634267e+10
6.430751e+10
4.655102e+10
4.196525e+10
3.348496e+10
3.351332e+10
3.939836e+10
4.062234e+10
4.110256e+10
4.11024e+10
4.062758e+10
3.940178e+10
3.350035e+10
2.980808e+10
3.48267e+10
3.580785e+10
3.579437e+10
3.47831e+10
2.978175e+10
2.836887e+10
3.719216e+10
4.241878e+10
4.985311e+10
6.83083e+10
7.153774e+10
7.271528e+10
7.267984e+10
7.144571e+10
6.819272e+10
4.983215e+10
4.241746e+10
3.718231e+10
2.838072e+10
2.860645e+10
3.941248e+10
6.26586e+10
7.581363e+10
8.883226e+10
1.147333e+11
1.26117e+11
1.302742e+11
1.322411e+11
1.321823e+11
1.301211e+11
1.259535e+11
1.146367e+11
8.875063e+10
7.571465e+10
6.259827e+10
3.940476e+10
2.862166e+10
3.238252e+10
5.867672e+10
7.958026e+10
1.165016e+11
1.344982e+11
1.523037e+11
1.690269e+11
1.964715e+11
2.067584e+11
2.107814e+11
2.107146e+11
2.065762e+11
1.962279e+11
1.687849e+11
1.52037e+11
1.342473e+11
1.162165e+11
7.948133e+10
5.859243e+10
3.237298e+10
3.520086e+10
6.779098e+10
9.46097e+10
1.365027e+11
1.659498e+11
2.051846e+11
2.306566e+11
2.49979e+11
2.661039e+11
2.758975e+11
2.803632e+11
2.8029e+11
2.756905e+11
2.657992e+11
2.496262e+11
2.302911e+11
2.048293e+11
1.656236e+11
1.361592e+11
9.442857e+10
6.763102e+10
3.513778e+10
3.691066e+10
7.616095e+10
1.212189e+11
1.52108e+11
1.834594e+11
2.353772e+11
2.7251e+11
3.029305e+11
3.236771e+11
3.391127e+11
3.490187e+11
3.537714e+11
3.536913e+11
3.487882e+11
3.387589e+11
3.232355e+11
3.024333e+11
2.720057e+11
2.34915e+11
1.830514e+11
1.51677e+11
1.208346e+11
7.59153e+10
3.680219e+10
3.521876e+10
7.617847e+10
1.280089e+11
1.646036e+11
2.161483e+11
2.594595e+11
3.039925e+11
3.402722e+11
3.703737e+11
3.954448e+11
4.137415e+11
4.253692e+11
4.309732e+11
4.308884e+11
4.251253e+11
4.133651e+11
3.9497e+11
3.698295e+11
3.396766e+11
3.033739e+11
2.588321e+11
2.155458e+11
1.640729e+11
1.274947e+11
7.590236e+10
3.510454e+10
3.241462e+10
6.781411e+10
1.212863e+11
1.646151e+11
2.224755e+11
2.737959e+11
3.227515e+11
3.65321e+11
4.046153e+11
4.378236e+11
4.650673e+11
4.852336e+11
4.983887e+11
5.047639e+11
5.046764e+11
4.981365e+11
4.848344e+11
4.645487e+11
4.372132e+11
4.039297e+11
3.645865e+11
3.219891e+11
2.730541e+11
2.217832e+11
1.640444e+11
1.208159e+11
6.757448e+10
3.23023e+10
2.864235e+10
5.870954e+10
9.469467e+10
1.521556e+11
2.162012e+11
2.738357e+11
3.291563e+11
3.776302e+11
4.240799e+11
4.661074e+11
5.015355e+11
5.304315e+11
5.523419e+11
5.669526e+11
5.7383e+11
5.737393e+11
5.666875e+11
5.51923e+11
5.298871e+11
5.008878e+11
4.653702e+11
4.232772e+11
3.767811e+11
3.282876e+11
2.730188e+11
2.154812e+11
1.516059e+11
9.436401e+10
5.849759e+10
2.853122e+10
3.945663e+10
7.96667e+10
1.365218e+11
1.836019e+11
2.595563e+11
3.228389e+11
3.776805e+11
4.303719e+11
4.795989e+11
5.234696e+11
5.608164e+11
5.912792e+11
6.142968e+11
6.298327e+11
6.377163e+11
6.376249e+11
6.295644e+11
6.138702e+11
5.907187e+11
5.601404e+11
5.226962e+11
4.787554e+11
4.294764e+11
3.76762e+11
3.219347e+11
2.587411e+11
1.829578e+11
1.360466e+11
7.937946e+10
3.931853e+10
2.841584e+10
6.268936e+10
1.165141e+11
1.660455e+11
2.35555e+11
3.041379e+11
3.654616e+11
4.241899e+11
4.796574e+11
5.307047e+11
5.761815e+11
6.148023e+11
6.463617e+11
6.708922e+11
6.877163e+11
6.96338e+11
6.962464e+11
6.874474e+11
6.704626e+11
6.457913e+11
6.141052e+11
5.753784e+11
5.298236e+11
4.787185e+11
4.232244e+11
3.645028e+11
3.03227e+11
2.347709e+11
1.65399e+11
1.161078e+11
6.2458e+10
2.832871e+10
3.719769e+10
7.583643e+10
1.34532e+11
2.053565e+11
2.726893e+11
3.40458e+11
4.04793e+11
4.662648e+11
5.23578e+11
5.762354e+11
6.227417e+11
6.630324e+11
6.961424e+11
7.216506e+11
7.389267e+11
7.476507e+11
7.475591e+11
7.386583e+11
7.21221e+11
6.955674e+11
6.623256e+11
6.219222e+11
5.753293e+11
5.226121e+11
4.652732e+11
4.038033e+11
3.394962e+11
2.718352e+11
2.04595e+11
1.340162e+11
7.555404e+10
3.70732e+10
4.245244e+10
8.889286e+10
1.524242e+11
2.308839e+11
3.031225e+11
3.706056e+11
4.380483e+11
5.017414e+11
5.609808e+11
6.149231e+11
6.631003e+11
7.048926e+11
7.388756e+11
7.645896e+11
7.817886e+11
7.903808e+11
7.90292e+11
7.815272e+11
7.641679e+11
7.383078e+11
7.041926e+11
6.622853e+11
6.140182e+11
5.600162e+11
5.00749e+11
4.370539e+11
3.696306e+11
3.022351e+11
2.300596e+11
1.518061e+11
8.851964e+10
4.226735e+10
4.990609e+10
1.149212e+11
1.692697e+11
2.502535e+11
3.239227e+11
3.957201e+11
4.653463e+11
5.306968e+11
5.915217e+11
6.465696e+11
6.962962e+11
7.389586e+11
7.73216e+11
7.988039e+11
8.157652e+11
8.241869e+11
8.241045e+11
8.155214e+11
7.984064e+11
7.726744e+11
7.382816e+11
6.954987e+11
6.456772e+11
5.905678e+11
5.297135e+11
4.643585e+11
3.947526e+11
3.230209e+11
2.493976e+11
1.685552e+11
1.143289e+11
4.966156e+10
2.984936e+10
6.835511e+10
1.263364e+11
1.96775e+11
2.664256e+11
3.394272e+11
4.140773e+11
4.855815e+11
5.526803e+11
6.146268e+11
6.711975e+11
7.219059e+11
7.647745e+11
7.989059e+11
8.242411e+11
8.409651e+11
8.492498e+11
8.491739e+11
8.407405e+11
8.238741e+11
7.984031e+11
7.641385e+11
7.21147e+11
6.703392e+11
6.137049e+11
5.517297e+11
4.846156e+11
4.131253e+11
3.38515e+11
2.655428e+11
1.959656e+11
1.257027e+11
6.802666e+10
2.969322e+10
3.48356e+10
7.160918e+10
1.304923e+11
2.070915e+11
2.762712e+11
3.494167e+11
4.257919e+11
4.9883e+11
5.673946e+11
6.302717e+11
6.881379e+11
7.39305e+11
7.821014e+11
8.159981e+11
8.41096e+11
8.57637e+11
8.65823e+11
8.657514e+11
8.574272e+11
8.407554e+11
8.155331e+11
7.815125e+11
7.38597e+11
6.873299e+11
6.293959e+11
5.664806e+11
4.978928e+11
4.248603e+11
3.485101e+11
2.754003e+11
2.06292e+11
1.298872e+11
7.127536e+10
3.469143e+10
3.584474e+10
7.28213e+10
1.324756e+11
2.111674e+11
2.808186e+11
3.542718e+11
4.315044e+11
5.053146e+11
5.743907e+11
6.382814e+11
6.968951e+11
7.481762e+11
7.908509e+11
8.245816e+11
8.49543e+11
8.659849e+11
8.74119e+11
8.740491e+11
8.65783e+11
8.492186e+11
8.241429e+11
7.902997e+11
7.475162e+11
6.961405e+11
6.374569e+11
5.735205e+11
5.044155e+11
4.305991e+11
3.533837e+11
2.79974e+11
2.104124e+11
1.319388e+11
7.251307e+10
3.570028e+10
3.584831e+10
7.283449e+10
1.325133e+11
2.111921e+11
2.808474e+11
3.543047e+11
4.315395e+11
5.053517e+11
5.744329e+11
6.383298e+11
6.96954e+11
7.482497e+11
7.9094e+11
8.24684e+11
8.496535e+11
8.661e+11
8.742372e+11
8.741683e+11
8.659022e+11
8.493383e+11
8.24263e+11
7.904195e+11
7.476339e+11
6.962531e+11
6.375597e+11
5.736105e+11
5.044951e+11
4.306674e+11
3.534434e+11
2.800355e+11
2.104731e+11
1.319915e+11
7.254063e+10
3.57124e+10
3.486792e+10
7.163976e+10
1.305262e+11
2.071368e+11
2.763462e+11
3.49511e+11
4.258932e+11
4.989437e+11
5.675287e+11
6.30422e+11
6.883158e+11
7.395225e+11
7.823624e+11
8.162965e+11
8.414192e+11
8.579751e+11
8.661705e+11
8.66103e+11
8.577812e+11
8.41112e+11
8.158921e+11
7.818715e+11
7.389503e+11
6.87668e+11
6.297063e+11
5.667556e+11
4.981333e+11
4.250584e+11
3.486784e+11
2.755759e+11
2.064634e+11
1.300361e+11
7.13583e+10
3.473171e+10
2.989063e+10
6.835118e+10
1.263293e+11
1.968209e+11
2.665275e+11
3.395769e+11
4.142392e+11
4.857702e+11
5.529061e+11
6.148832e+11
6.714939e+11
7.222585e+11
7.651892e+11
7.993772e+11
8.247539e+11
8.415058e+11
8.498086e+11
8.497437e+11
8.413193e+11
8.244602e+11
7.989948e+11
7.647317e+11
7.217313e+11
6.708989e+11
6.142226e+11
5.521871e+11
4.850103e+11
4.134471e+11
3.38776e+11
2.658111e+11
1.962137e+11
1.258987e+11
6.810201e+10
2.977359e+10
4.992645e+10
1.14873e+11
1.693256e+11
2.503787e+11
3.241257e+11
3.95936e+11
4.656054e+11
5.30998e+11
5.918724e+11
6.469762e+11
6.967701e+11
7.39504e+11
7.738295e+11
7.994738e+11
8.164762e+11
8.249256e+11
8.248656e+11
8.16304e+11
7.992041e+11
7.734812e+11
7.390901e+11
6.962943e+11
6.464396e+11
5.912785e+11
5.303509e+11
4.649065e+11
3.952034e+11
3.233698e+11
2.497347e+11
1.688255e+11
1.145387e+11
4.974084e+10
4.246822e+10
8.893624e+10
1.52507e+11
2.310047e+11
3.033555e+11
3.708571e+11
4.38363e+11
5.021011e+11
5.614036e+11
6.154159e+11
6.63667e+11
7.055374e+11
7.395967e+11
7.65377e+11
7.826266e+11
7.912533e+11
7.912008e+11
7.824759e+11
7.651427e+11
7.392967e+11
7.051823e+11
6.632575e+11
6.1495e+11
5.608875e+11
5.015298e+11
4.377333e+11
3.702056e+11
3.026664e+11
2.304458e+11
1.520643e+11
8.863695e+10
4.230075e+10
3.724873e+10
7.591476e+10
1.346635e+11
2.054712e+11
2.729039e+11
3.407375e+11
4.051429e+11
4.666598e+11
5.240395e+11
5.767782e+11
6.233655e+11
6.637429e+11
6.969381e+11
7.225194e+11
7.398528e+11
7.486177e+11
7.485755e+11
7.397308e+11
7.223302e+11
6.96698e+11
6.63461e+11
6.23039e+11
5.763996e+11
5.236105e+11
4.661689e+11
4.045917e+11
3.401779e+11
2.723355e+11
2.050141e+11
1.342481e+11
7.564031e+10
3.708521e+10
2.845334e+10
6.275058e+10
1.1669e+11
1.661376e+11
2.35709e+11
3.044028e+11
3.658071e+11
4.245961e+11
4.801373e+11
5.312706e+11
5.768335e+11
6.155453e+11
6.471957e+11
6.718029e+11
6.886913e+11
6.97365e+11
6.973359e+11
6.886049e+11
6.716669e+11
6.470236e+11
6.153447e+11
5.76596e+11
5.309857e+11
4.798004e+11
4.241981e+11
3.653572e+11
3.039641e+11
2.352909e+11
1.658158e+11
1.162746e+11
6.254236e+10
2.833738e+10
3.948211e+10
7.971069e+10
1.366744e+11
1.836748e+11
2.597941e+11
3.231562e+11
3.780791e+11
4.308554e+11
4.801725e+11
5.241283e+11
5.615627e+11
5.921155e+11
6.152119e+11
6.308188e+11
6.387668e+11
6.387521e+11
6.307722e+11
6.151349e+11
5.920167e+11
5.614451e+11
5.239798e+11
4.799812e+11
4.306167e+11
3.77791e+11
3.228346e+11
2.594707e+11
1.834218e+11
1.363803e+11
7.950233e+10
3.935863e+10
2.864455e+10
5.876335e+10
9.477186e+10
1.523579e+11
2.164562e+11
2.74141e+11
3.295443e+11
3.781093e+11
4.246546e+11
4.667649e+11
5.022729e+11
5.312447e+11
5.532336e+11
5.679272e+11
5.74883e+11
5.748799e+11
5.679172e+11
5.532151e+11
5.312187e+11
5.022312e+11
4.666981e+11
4.245475e+11
3.779562e+11
3.293404e+11
2.738921e+11
2.16179e+11
1.520911e+11
9.456992e+10
5.861974e+10
2.858676e+10
3.242338e+10
6.790245e+10
1.214516e+11
1.647968e+11
2.22725e+11
2.741489e+11
3.232103e+11
3.658733e+11
4.052319e+11
4.38519e+11
4.658385e+11
4.860812e+11
4.993203e+11
5.057775e+11
5.057841e+11
4.993457e+11
4.861165e+11
4.658768e+11
4.385542e+11
4.052519e+11
3.658432e+11
3.231275e+11
2.74031e+11
2.225731e+11
1.646393e+11
1.212261e+11
6.776191e+10
3.236835e+10
3.523741e+10
7.624817e+10
1.282128e+11
1.647767e+11
2.164655e+11
2.598466e+11
3.044647e+11
3.408048e+11
3.709885e+11
3.9613e+11
4.144984e+11
4.26215e+11
4.319109e+11
4.319218e+11
4.262694e+11
4.145866e+11
3.962326e+11
3.7109e+11
3.408928e+11
3.044914e+11
2.598129e+11
2.164104e+11
1.646987e+11
1.280918e+11
7.615492e+10
3.518507e+10
3.69278e+10
7.624227e+10
1.214741e+11
1.523783e+11
1.83786e+11
2.357969e+11
2.72971e+11
3.034443e+11
3.242614e+11
3.39771e+11
3.497741e+11
3.546452e+11
3.546482e+11
3.498377e+11
3.398783e+11
3.243924e+11
3.035867e+11
2.730769e+11
2.35829e+11
1.837406e+11
1.523601e+11
1.214323e+11
7.620231e+10
3.689809e+10
3.52163e+10
6.787123e+10
9.48019e+10
1.367128e+11
1.661696e+11
2.055324e+11
2.310973e+11
2.505141e+11
2.667117e+11
2.765802e+11
2.811135e+11
2.811063e+11
2.76609e+11
2.66767e+11
2.505896e+11
2.312065e+11
2.056533e+11