/*--------------------------------*- C++ -*----------------------------------*\
  =========                 |
  \\      /  F ield         | OpenFOAM: The Open Source CFD Toolbox
   \\    /   O peration     | Website:  https://openfoam.org
    \\  /    A nd           | Version:  6
     \\/     M anipulation  |
\*---------------------------------------------------------------------------*/
FoamFile
{
    version     2.0;
    format      ascii;
    class       volScalarField;
    location    "50/region0/neutronTransport";
    object      flux6;
}
// * * * * * * * * * * * * * * * * * * * * * * * * * * * * * * * * * * * * * //

dimensions      [0 -2 -1 0 0 0 0];

internalField   nonuniform List<scalar> 
203709
(
-5.343177e-36
-2.101806e-36
-3.13187e-36
-1.693999e-36
-5.343225e-36
-2.230721e-36
-8.163114e-37
-1.953146e-36
-2.198481e-36
-1.682502e-36
-3.56026e-36
-2.020959e-36
-5.343169e-36
-2.171856e-36
-1.073506e-36
-2.411202e-36
-3.022912e-36
-3.366403e-36
-3.439427e-36
-3.132664e-36
-2.750777e-36
-2.034724e-36
-3.560644e-36
-1.826673e-36
-5.343169e-36
5.860863e-37
-2.233762e-36
-3.056482e-36
-3.471361e-36
-3.625661e-36
-3.699251e-36
-3.71872e-36
-3.686742e-36
-3.60397e-36
-3.213851e-36
-2.692123e-36
-1.668561e-36
-1.732822e-36
-2.170749e-36
-2.233521e-36
-3.323779e-36
-3.602994e-36
-3.725327e-36
-3.780226e-36
-3.807397e-36
-3.813769e-36
-3.801536e-36
-3.771152e-36
-3.700362e-36
-3.549345e-36
-2.946392e-36
-1.110093e-36
-5.343224e-36
-1.07434e-36
-3.05616e-36
-3.603037e-36
-3.750593e-36
-3.811535e-36
-3.836937e-36
-3.850136e-36
-3.85342e-36
-3.848513e-36
-3.832194e-36
-3.797822e-36
-3.723966e-36
-3.540438e-36
-3.123651e-36
-1.993164e-36
-2.23043e-36
-2.411096e-36
-3.471533e-36
-3.725485e-36
-3.811423e-36
-3.845298e-36
-3.865421e-36
-3.875901e-36
-3.876254e-36
-3.868803e-36
-3.858872e-36
-3.838165e-36
-3.792125e-36
-3.684886e-36
-3.132743e-36
-1.2911e-36
-5.343177e-36
-8.14522e-37
-3.024388e-36
-3.625199e-36
-3.780104e-36
-3.836839e-36
-3.865217e-36
-3.880878e-36
-3.886603e-36
-3.890407e-36
-3.887754e-36
-3.873467e-36
-3.857538e-36
-3.824418e-36
-3.752122e-36
-3.55209e-36
-3.097382e-36
-1.649675e-36
-2.105797e-36
-1.954886e-36
-3.366092e-36
-3.699421e-36
-3.807249e-36
-3.849738e-36
-3.875467e-36
-3.886351e-36
-3.900937e-36
-3.898577e-36
-3.896787e-36
-3.879474e-36
-3.868189e-36
-3.83779e-36
-3.781674e-36
-3.635325e-36
-2.929423e-36
-9.933534e-37
-3.130923e-36
-2.197459e-36
-3.439529e-36
-3.718842e-36
-3.813604e-36
-3.853363e-36
-3.876013e-36
-3.890139e-36
-3.896909e-36
-3.897159e-36
-3.898625e-36
-3.882172e-36
-3.869636e-36
-3.840738e-36
-3.788073e-36
-3.646004e-36
-3.196741e-36
-1.897484e-36
-1.692481e-36
-1.680301e-36
-3.132102e-36
-3.686225e-36
-3.801517e-36
-3.848429e-36
-3.868882e-36
-3.887468e-36
-3.896078e-36
-3.898529e-36
-3.888927e-36
-3.88052e-36
-3.862684e-36
-3.833086e-36
-3.767479e-36
-3.58662e-36
-3.23613e-36
1.061862e-36
-3.559867e-36
-2.750114e-36
-3.603831e-36
-3.771062e-36
-3.832295e-36
-3.858718e-36
-3.873576e-36
-3.879239e-36
-3.882219e-36
-3.880657e-36
-3.869548e-36
-3.84897e-36
-3.813803e-36
-3.72139e-36
-3.456648e-36
-2.194334e-36
-2.020578e-36
-2.037586e-36
-3.214925e-36
-3.700304e-36
-3.797923e-36
-3.838293e-36
-3.857609e-36
-3.868321e-36
-3.869808e-36
-3.862542e-36
-3.848825e-36
-3.825367e-36
-3.766833e-36
-3.615129e-36
-3.361659e-36
3.185401e-37
-3.559374e-36
-2.692198e-36
-3.549802e-36
-3.724241e-36
-3.79204e-36
-3.824618e-36
-3.834492e-36
-3.840907e-36
-3.832429e-36
-3.813605e-36
-3.766741e-36
-3.668236e-36
-3.412469e-36
-2.16e-36
-1.828512e-36
-1.668985e-36
-2.946692e-36
-3.540267e-36
-3.685294e-36
-3.752799e-36
-3.781987e-36
-3.787966e-36
-3.765736e-36
-3.72149e-36
-3.615659e-36
-3.412134e-36
-3.092527e-36
6.735074e-37
-1.731624e-36
-1.110356e-36
-3.124327e-36
-3.132987e-36
-3.552728e-36
-3.632461e-36
-3.644882e-36
-3.586428e-36
-3.45688e-36
-3.362529e-36
-2.158625e-36
6.746908e-37
-1.994882e-36
-1.29335e-36
-3.099593e-36
-2.930891e-36
-3.196948e-36
-3.232841e-36
-2.196296e-36
3.155647e-37
-1.65388e-36
-9.97262e-37
-1.893116e-36
1.057478e-36
-5.34323e-36
-2.440192e-36
-3.549513e-36
-3.66108e-36
-3.698014e-36
-3.70211e-36
-3.687667e-36
-3.632557e-36
-3.457247e-36
-1.996364e-36
-5.343218e-36
-2.434634e-36
-1.191797e-36
-2.361457e-36
-2.740409e-36
-2.858586e-36
-2.879167e-36
-2.870566e-36
-2.859398e-36
-2.791269e-36
-2.616062e-36
-2.097133e-36
-3.662815e-36
-2.129054e-36
-5.343258e-36
-4.329432e-37
-2.587556e-36
-3.250527e-36
-3.577245e-36
-3.799338e-36
-3.7709e-36
-3.786173e-36
-3.750157e-36
-3.84257e-36
-3.788348e-36
-3.674584e-36
-3.358787e-36
-2.929736e-36
-2.100189e-36
-2.483481e-36
-5.343283e-36
-1.066498e-36
-2.994834e-36
-3.573529e-36
-3.865729e-36
-3.855679e-36
-3.757433e-36
-2.143162e-36
-2.628974e-36
-2.732042e-36
-2.954093e-36
-3.878852e-36
-3.936721e-36
-3.88596e-36
-3.738595e-36
-3.311131e-36
-2.692838e-36
-2.594395e-36
-5.343257e-36
-1.064792e-36
-3.06672e-36
-3.769224e-36
-3.852299e-36
-3.773717e-36
-2.267784e-36
-2.838555e-36
-2.975157e-36
-3.216647e-36
-3.075923e-36
-3.087055e-36
-2.861432e-36
-3.05964e-36
-3.910352e-36
-3.945724e-36
-3.86549e-36
-3.430874e-36
-2.76533e-36
-2.50269e-36
-5.343218e-36
-4.31149e-37
-2.993939e-36
-3.76844e-36
-3.73865e-36
-2.336912e-36
-2.807874e-36
-3.007541e-36
-3.272798e-36
-3.245131e-36
-3.075604e-36
-3.096594e-36
-3.170013e-36
-3.167347e-36
-3.164824e-36
-2.866637e-36
-3.080485e-36
-3.985209e-36
-3.873643e-36
-3.422711e-36
-2.624292e-36
-2.011592e-36
-2.434689e-36
-2.586143e-36
-3.573821e-36
-3.851659e-36
-2.335938e-36
-2.887314e-36
-3.214435e-36
-3.258677e-36
-3.133106e-36
-3.165937e-36
-3.181575e-36
-3.184279e-36
-3.174215e-36
-3.172839e-36
-3.205029e-36
-3.150783e-36
-3.082636e-36
-3.345193e-36
-3.955539e-36
-3.808602e-36
-3.24973e-36
-1.551443e-36
-5.34323e-36
-1.192642e-36
-3.250197e-36
-3.866177e-36
-3.773358e-36
-2.807768e-36
-3.214069e-36
-3.08104e-36
-3.158446e-36
-3.211815e-36
-3.247965e-36
-3.267701e-36
-3.271458e-36
-3.259025e-36
-3.229982e-36
-3.184128e-36
-3.138487e-36
-3.154652e-36
-3.550208e-36
-3.914441e-36
-3.869176e-36
-3.712568e-36
-3.305341e-36
-1.946998e-36
-2.439085e-36
-2.359012e-36
-3.5768e-36
-3.854719e-36
-2.266234e-36
-3.006089e-36
-3.258173e-36
-3.1582e-36
-3.226192e-36
-3.277508e-36
-3.310059e-36
-3.327323e-36
-3.330555e-36
-3.319626e-36
-3.294826e-36
-3.252104e-36
-3.188173e-36
-3.145592e-36
-3.140527e-36
-3.365591e-36
-3.971972e-36
-3.828125e-36
-3.220372e-36
-1.53292e-36
-3.54665e-36
-2.736437e-36
-3.799043e-36
-3.757256e-36
-2.837857e-36
-3.272371e-36
-3.133016e-36
-3.211799e-36
-3.277569e-36
-3.322936e-36
-3.350002e-36
-3.364056e-36
-3.366443e-36
-3.357032e-36
-3.336293e-36
-3.300981e-36
-3.244152e-36
-3.192544e-36
-3.207086e-36
-3.592989e-36
-3.912162e-36
-3.843836e-36
-3.565188e-36
-2.597143e-36
-3.658431e-36
-2.855186e-36
-3.769342e-36
-2.142181e-36
-2.975303e-36
-3.244499e-36
-3.165826e-36
-3.247776e-36
-3.309892e-36
-3.349787e-36
-3.375968e-36
-3.391425e-36
-3.39448e-36
-3.383982e-36
-3.362063e-36
-3.329735e-36
-3.278266e-36
-3.20144e-36
-3.139956e-36
-3.099646e-36
-3.353696e-36
-3.953533e-36
-3.64648e-36
-2.773868e-36
-3.696792e-36
-2.878437e-36
-3.785459e-36
-2.6284e-36
-3.216405e-36
-3.075844e-36
-3.181551e-36
-3.267387e-36
-3.327112e-36
-3.363783e-36
-3.391134e-36
-3.402202e-36
-3.405471e-36
-3.396699e-36
-3.376747e-36
-3.344047e-36
-3.296718e-36
-3.222139e-36
-3.146435e-36
-3.130186e-36
-3.655865e-36
-3.918392e-36
-3.600603e-36
-2.821869e-36
-3.702541e-36
-2.872924e-36
-3.751177e-36
-2.733158e-36
-3.076242e-36
-3.096808e-36
-3.184423e-36
-3.271443e-36
-3.330467e-36
-3.366264e-36
-3.394079e-36
-3.404541e-36
-3.408304e-36
-3.398871e-36
-3.379513e-36
-3.346304e-36
-3.299584e-36
-3.226319e-36
-3.128175e-36
-3.06789e-36
-3.709082e-36
-3.885087e-36
-3.610541e-36
-2.829588e-36
-3.689761e-36
-2.861891e-36
-3.842558e-36
-2.954191e-36
-3.086904e-36
-3.169983e-36
-3.174265e-36
-3.258868e-36
-3.319569e-36
-3.356974e-36
-3.383784e-36
-3.39631e-36
-3.3988e-36
-3.389957e-36
-3.368993e-36
-3.336091e-36
-3.287588e-36
-3.217326e-36
-3.160174e-36
-3.421341e-36
-4.01328e-36
-3.975738e-36
-3.644531e-36
-2.813892e-36
-3.634859e-36
-2.793683e-36
-3.788855e-36
-3.878556e-36
-2.86135e-36
-3.167539e-36
-3.172848e-36
-3.229784e-36
-3.294833e-36
-3.336359e-36
-3.361927e-36
-3.376573e-36
-3.379602e-36
-3.368945e-36
-3.347199e-36
-3.313522e-36
-3.260986e-36
-3.192776e-36
-3.18289e-36
-3.657154e-36
-3.951485e-36
-3.80282e-36
-3.65506e-36
-2.726433e-36
-3.460189e-36
-2.618018e-36
-3.675119e-36
-3.934856e-36
-3.060118e-36
-3.16453e-36
-3.204912e-36
-3.184107e-36
-3.252189e-36
-3.30095e-36
-3.32973e-36
-3.343768e-36
-3.346192e-36
-3.33603e-36
-3.313438e-36
-3.274363e-36
-3.218416e-36
-3.184146e-36
-3.477088e-36
-4.030007e-36
-3.922487e-36
-3.898113e-36
-3.482587e-36
-2.437299e-36
-2.00524e-36
-2.103878e-36
-3.36031e-36
-3.885716e-36
-3.911258e-36
-2.866957e-36
-3.151078e-36
-3.138706e-36
-3.188267e-36
-3.244143e-36
-3.278135e-36
-3.296e-36
-3.297854e-36
-3.287324e-36
-3.26082e-36
-3.218391e-36
-3.155868e-36
-3.154865e-36
-3.660931e-36
-3.964533e-36
-3.831567e-36
-3.825465e-36
-3.444653e-36
3.739857e-37
-3.660237e-36
-2.929951e-36
-3.738639e-36
-3.946014e-36
-3.080631e-36
-3.081919e-36
-3.154392e-36
-3.145844e-36
-3.192746e-36
-3.201513e-36
-3.220891e-36
-3.223473e-36
-3.217073e-36
-3.192707e-36
-3.183992e-36
-3.155045e-36
-3.397171e-36
-4.030861e-36
-3.920674e-36
-3.909911e-36
-3.602215e-36
-2.383569e-36
-2.13517e-36
-2.09785e-36
-3.311274e-36
-3.867047e-36
-3.98469e-36
-3.344821e-36
-3.549781e-36
-3.14071e-36
-3.207276e-36
-3.140102e-36
-3.14626e-36
-3.126085e-36
-3.160119e-36
-3.183006e-36
-3.476788e-36
-3.661036e-36
-4.030247e-36
-4.052389e-36
-3.834163e-36
-3.773412e-36
-3.396996e-36
1.321658e-38
-2.482883e-36
-2.693958e-36
-3.431674e-36
-3.874172e-36
-3.954476e-36
-3.914519e-36
-3.365542e-36
-3.591521e-36
-3.10007e-36
-3.129183e-36
-3.064645e-36
-3.421675e-36
-3.657586e-36
-4.030528e-36
-3.964337e-36
-3.92051e-36
-3.834186e-36
-3.868047e-36
-3.521234e-36
-1.034605e-37
-2.595496e-36
-2.765138e-36
-3.421469e-36
-3.808632e-36
-3.868937e-36
-3.972583e-36
-3.912335e-36
-3.354695e-36
-3.656273e-36
-3.707959e-36
-4.013366e-36
-3.951076e-36
-3.92327e-36
-3.8321e-36
-3.910203e-36
-3.774289e-36
-3.522468e-36
-3.287177e-37
-2.498409e-36
-2.624597e-36
-3.249849e-36
-3.712826e-36
-3.828058e-36
-3.842818e-36
-3.953608e-36
-3.916797e-36
-3.88481e-36
-3.97567e-36
-3.80364e-36
-3.898463e-36
-3.823738e-36
-3.600196e-36
-3.394691e-36
-1.046994e-37
-2.013473e-36
-1.55145e-36
-3.303819e-36
-3.218478e-36
-3.564767e-36
-3.646343e-36
-3.601462e-36
-3.611425e-36
-3.642089e-36
-3.654538e-36
-3.482481e-36
-3.445209e-36
-2.381887e-36
1.564914e-38
-1.94777e-36
-1.531726e-36
-2.596042e-36
-2.773406e-36
-2.818367e-36
-2.829106e-36
-2.812823e-36
-2.724123e-36
-2.434814e-36
3.894001e-37
-5.34322e-36
-2.560374e-36
-3.614394e-36
-3.714415e-36
-3.731588e-36
-3.69854e-36
-3.53218e-36
-2.142435e-36
-5.343233e-36
-2.703054e-36
-3.673325e-36
-1.618703e-36
-2.530677e-36
-2.772193e-36
-2.852828e-36
-2.865568e-36
-2.826067e-36
-2.711604e-36
-2.383848e-36
-3.944728e-36
-3.657933e-36
-2.184476e-36
-5.343346e-36
-9.200764e-37
-2.854681e-36
-3.24151e-36
-3.517932e-36
-3.686493e-36
-3.758692e-36
-3.782191e-36
-3.787139e-36
-3.775758e-36
-3.753588e-36
-3.531296e-36
-3.404206e-36
-3.05793e-36
-2.414555e-36
-2.853595e-36
-5.343247e-36
-2.792694e-36
-2.548264e-36
-3.306672e-36
-3.504963e-36
-2.133344e-36
-2.710534e-36
-2.905168e-36
-2.982525e-36
-3.010288e-36
-3.015933e-36
-3.002702e-36
-2.961016e-36
-2.877639e-36
-2.950681e-36
-3.753627e-36
-3.552367e-36
-3.300982e-36
-3.956003e-36
-2.389628e-36
-5.343244e-36
-8.935749e-37
-3.031666e-36
-3.370561e-36
-2.198789e-36
-2.83174e-36
-3.070925e-36
-3.342282e-36
-3.248126e-36
-3.286349e-36
-3.288418e-36
-3.291817e-36
-3.297942e-36
-3.280388e-36
-3.23806e-36
-3.207692e-36
-2.919808e-36
-3.005523e-36
-3.713037e-36
-3.274055e-36
-2.52099e-36
-2.567847e-36
-5.343246e-36
-8.856261e-37
-3.263231e-36
-3.517462e-36
-2.480036e-36
-2.945882e-36
-3.301759e-36
-3.355197e-36
-3.229675e-36
-3.229322e-36
-3.318746e-36
-3.294881e-36
-3.299125e-36
-3.293562e-36
-3.287602e-36
-3.273608e-36
-3.308115e-36
-3.252061e-36
-3.201531e-36
-3.185613e-36
-3.841326e-36
-3.492046e-36
-2.844835e-36
-2.283681e-36
-2.79052e-36
-3.032773e-36
-3.514411e-36
-2.505714e-36
-2.967148e-36
-3.463378e-36
-3.231201e-36
-3.258769e-36
-3.346056e-36
-3.374766e-36
-3.403524e-36
-3.439737e-36
-3.458563e-36
-3.412201e-36
-3.341979e-36
-3.331397e-36
-3.3209e-36
-3.284488e-36
-3.302548e-36
-3.233102e-36
-3.247444e-36
-3.861724e-36
-3.468552e-36
-2.100154e-36
-5.343346e-36
-2.545386e-36
-3.368536e-36
-2.481374e-36
-2.968531e-36
-3.489316e-36
-3.246524e-36
-3.336181e-36
-3.384334e-36
-3.422087e-36
-3.432582e-36
-3.527749e-36
-3.305591e-36
-3.311789e-36
-3.407575e-36
-3.451779e-36
-3.451512e-36
-3.365258e-36
-3.332551e-36
-3.33717e-36
-3.334268e-36
-3.247589e-36
-3.253989e-36
-3.83799e-36
-3.71657e-36
-3.033959e-36
-5.343233e-36
-9.141128e-37
-3.30759e-36
-2.198232e-36
-2.943933e-36
-3.463317e-36
-3.246911e-36
-3.391669e-36
-3.403207e-36
-3.431248e-36
-3.546982e-36
-3.337647e-36
-3.311987e-36
-3.275307e-36
-3.265827e-36
-3.285127e-36
-3.339218e-36
-3.43682e-36
-3.461385e-36
-3.445748e-36
-3.343131e-36
-3.356376e-36
-3.320422e-36
-3.197853e-36
-3.365848e-36
-3.671669e-36
-3.054095e-36
-2.139243e-36
-2.702934e-36
-2.85211e-36
-3.502308e-36
-2.831949e-36
-3.301382e-36
-3.230592e-36
-3.336398e-36
-3.403152e-36
-3.507267e-36
-3.324559e-36
-3.322403e-36
-3.306289e-36
-3.303419e-36
-3.29989e-36
-3.298855e-36
-3.298994e-36
-3.299978e-36
-3.308023e-36
-3.340802e-36
-3.42328e-36
-3.388052e-36
-3.385432e-36
-3.32257e-36
-3.275545e-36
-3.592805e-36
-3.84068e-36
-3.376803e-36
-1.970061e-36
-3.67092e-36
-3.238666e-36
-2.13529e-36
-3.07076e-36
-3.354923e-36
-3.258185e-36
-3.384413e-36
-3.430887e-36
-3.324268e-36
-3.293609e-36
-3.303739e-36
-3.321483e-36
-3.33817e-36
-3.34786e-36
-3.349647e-36
-3.34331e-36
-3.329651e-36
-3.311345e-36
-3.297382e-36
-3.330378e-36
-3.360205e-36
-3.317041e-36
-3.361977e-36
-3.282934e-36
-3.226081e-36
-3.367991e-36
-3.79866e-36
-2.990803e-36
-5.343217e-36
-1.610486e-36
-3.513979e-36
-2.711098e-36
-3.340457e-36
-3.229365e-36
-3.34556e-36
-3.421356e-36
-3.54628e-36
-3.321962e-36
-3.303578e-36
-3.327571e-36
-3.357487e-36
-3.380607e-36
-3.393718e-36
-3.396248e-36
-3.388043e-36
-3.369822e-36
-3.343115e-36
-3.314857e-36
-3.330863e-36
-3.433055e-36
-3.40802e-36
-3.398039e-36
-3.329566e-36
-3.277575e-36
-3.712467e-36
-3.873772e-36
-3.594585e-36
-2.040014e-36
-2.555471e-36
-2.525965e-36
-3.686099e-36
-2.90441e-36
-3.246158e-36
-3.228489e-36
-3.374753e-36
-3.431882e-36
-3.337041e-36
-3.306026e-36
-3.321377e-36
-3.357471e-36
-3.391231e-36
-3.415125e-36
-3.428342e-36
-3.430868e-36
-3.422563e-36
-3.403878e-36
-3.375372e-36
-3.339754e-36
-3.312218e-36
-3.339524e-36
-3.364181e-36
-3.309625e-36
-3.346516e-36
-3.249303e-36
-3.757094e-36
-3.892736e-36
-3.349564e-36
-1.711556e-36
-3.613176e-36
-2.773926e-36
-3.759446e-36
-2.981788e-36
-3.284797e-36
-3.317213e-36
-3.40295e-36
-3.527166e-36
-3.311509e-36
-3.303235e-36
-3.338034e-36
-3.3805e-36
-3.415027e-36
-3.439316e-36
-3.453113e-36
-3.455841e-36
-3.447081e-36
-3.427741e-36
-3.398612e-36
-3.360274e-36
-3.320312e-36
-3.326028e-36
-3.416255e-36
-3.388682e-36
-3.384612e-36
-3.290534e-36
-3.798649e-36
-3.917467e-36
-3.566883e-36
-2.665e-36
-3.714528e-36
-2.855194e-36
-3.782852e-36
-3.01022e-36
-3.288097e-36
-3.294449e-36
-3.439468e-36
-3.305358e-36
-3.275258e-36
-3.29983e-36
-3.347714e-36
-3.393586e-36
-3.428191e-36
-3.452975e-36
-3.465601e-36
-3.468369e-36
-3.460021e-36
-3.441133e-36
-3.411424e-36
-3.371958e-36
-3.325227e-36
-3.28892e-36
-3.307618e-36
-3.328215e-36
-3.334465e-36
-3.301982e-36
-3.815106e-36
-3.927993e-36
-3.603744e-36
-2.803931e-36
-3.732444e-36
-2.866402e-36
-3.787576e-36
-3.017025e-36
-3.292779e-36
-3.300083e-36
-3.459247e-36
-3.312163e-36
-3.265991e-36
-3.298917e-36
-3.349615e-36
-3.396166e-36
-3.430734e-36
-3.45562e-36
-3.468046e-36
-3.470898e-36
-3.462426e-36
-3.443725e-36
-3.413925e-36
-3.374577e-36
-3.327891e-36
-3.289271e-36
-3.318508e-36
-3.33273e-36
-3.335598e-36
-3.302189e-36
-3.819368e-36
-3.931152e-36
-3.61196e-36
-2.829087e-36
-3.698754e-36
-2.825283e-36
-3.776174e-36
-3.004766e-36
-3.299747e-36
-3.294413e-36
-3.412484e-36
-3.408051e-36
-3.28532e-36
-3.299061e-36
-3.343258e-36
-3.387987e-36
-3.422478e-36
-3.446921e-36
-3.459801e-36
-3.462355e-36
-3.454143e-36
-3.435133e-36
-3.405992e-36
-3.368094e-36
-3.327e-36
-3.319852e-36
-3.281651e-36
-3.388762e-36
-3.360293e-36
-3.295082e-36
-3.813422e-36
-3.925207e-36
-3.591098e-36
-2.773712e-36
-3.533995e-36
-2.707823e-36
-3.753328e-36
-2.963358e-36
-3.28233e-36
-3.287544e-36
-3.341781e-36
-3.451969e-36
-3.339406e-36
-3.300028e-36
-3.329591e-36
-3.369795e-36
-3.403845e-36
-3.42761e-36
-3.44096e-36
-3.443645e-36
-3.43507e-36
-3.416261e-36
-3.388291e-36
-3.353276e-36
-3.322336e-36
-3.355454e-36
-3.362909e-36
-3.291961e-36
-3.385045e-36
-3.27445e-36
-3.792755e-36
-3.908282e-36
-3.518236e-36
-2.537837e-36
-2.159773e-36
-2.383025e-36
-3.530702e-36
-2.879195e-36
-3.240051e-36
-3.272842e-36
-3.331425e-36
-3.451362e-36
-3.436774e-36
-3.307984e-36
-3.311319e-36
-3.343115e-36
-3.37531e-36
-3.398489e-36
-3.411152e-36
-3.413667e-36
-3.405831e-36
-3.388207e-36
-3.36192e-36
-3.332918e-36
-3.337357e-36
-3.313519e-36
-3.430831e-36
-3.386082e-36
-3.315753e-36
-3.253182e-36
-3.788342e-36
-3.871998e-36
-3.569326e-36
8.332526e-38
-3.941723e-36
-3.404613e-36
-2.950913e-36
-3.209828e-36
-3.307588e-36
-3.321815e-36
-3.365294e-36
-3.461197e-36
-3.340713e-36
-3.297385e-36
-3.314856e-36
-3.339687e-36
-3.360066e-36
-3.371492e-36
-3.37371e-36
-3.367729e-36
-3.35311e-36
-3.332864e-36
-3.313229e-36
-3.351511e-36
-3.367875e-36
-3.312973e-36
-3.412434e-36
-3.314103e-36
-3.524547e-36
-4.016023e-36
-3.892632e-36
-2.926294e-36
-3.660731e-36
-3.057512e-36
-3.752068e-36
-2.920948e-36
-3.250816e-36
-3.285853e-36
-3.332952e-36
-3.445405e-36
-3.422889e-36
-3.330194e-36
-3.330864e-36
-3.312182e-36
-3.320104e-36
-3.32448e-36
-3.326556e-36
-3.326545e-36
-3.322179e-36
-3.337259e-36
-3.351426e-36
-3.306232e-36
-3.41571e-36
-3.38079e-36
-3.324646e-36
-3.288244e-36
-3.693598e-36
-3.910592e-36
-3.555657e-36
-2.980557e-36
-2.174123e-36
-2.417474e-36
-3.552832e-36
-3.005225e-36
-3.200167e-36
-3.303952e-36
-3.337596e-36
-3.343016e-36
-3.387422e-36
-3.359956e-36
-3.433019e-36
-3.339436e-36
-3.325801e-36
-3.288434e-36
-3.288138e-36
-3.319474e-36
-3.35545e-36
-3.313519e-36
-3.367605e-36
-3.415323e-36
-3.306963e-36
-3.396307e-36
-3.31808e-36
-3.518323e-36
-4.01531e-36
-3.783988e-36
-3.595662e-36
-1.980957e-37
-2.857364e-36
-3.300518e-36
-3.714096e-36
-3.185829e-36
-3.234169e-36
-3.334266e-36
-3.355932e-36
-3.385055e-36
-3.317051e-36
-3.408076e-36
-3.363916e-36
-3.416017e-36
-3.307032e-36
-3.317227e-36
-3.28137e-36
-3.363114e-36
-3.431107e-36
-3.312803e-36
-3.380519e-36
-3.396317e-36
-3.331844e-36
-3.583943e-36
-3.938522e-36
-3.981575e-36
-3.715591e-36
-1.06389e-36
-3.950719e-36
-3.273977e-36
-3.840328e-36
-3.247721e-36
-3.247093e-36
-3.320396e-36
-3.322164e-36
-3.361952e-36
-3.398131e-36
-3.309299e-36
-3.388603e-36
-3.327735e-36
-3.331791e-36
-3.388411e-36
-3.292191e-36
-3.38639e-36
-3.412178e-36
-3.32452e-36
-3.318193e-36
-3.584661e-36
-3.947051e-36
-3.996395e-36
-3.568761e-36
-3.000322e-36
-2.388379e-36
-2.515584e-36
-3.493794e-36
-3.861581e-36
-3.253316e-36
-3.197907e-36
-3.275384e-36
-3.282923e-36
-3.329607e-36
-3.346557e-36
-3.384221e-36
-3.334083e-36
-3.334494e-36
-3.359818e-36
-3.384996e-36
-3.315645e-36
-3.313964e-36
-3.287981e-36
-3.517823e-36
-3.938363e-36
-3.996886e-36
-3.600381e-36
-3.643434e-36
-6.282451e-37
-2.563017e-36
-2.845539e-36
-3.464754e-36
-3.838045e-36
-3.365466e-36
-3.592917e-36
-3.226054e-36
-3.277702e-36
-3.249298e-36
-3.290464e-36
-3.301249e-36
-3.299727e-36
-3.293962e-36
-3.273877e-36
-3.252925e-36
-3.524607e-36
-3.692612e-36
-4.015343e-36
-3.981313e-36
-3.565185e-36
-3.645804e-36
-2.898792e-37
-2.268345e-36
-2.100383e-36
-3.715609e-36
-3.67117e-36
-3.840747e-36
-3.368947e-36
-3.713322e-36
-3.757757e-36
-3.799596e-36
-3.814627e-36
-3.819613e-36
-3.812528e-36
-3.791386e-36
-3.787024e-36
-4.013167e-36
-3.908848e-36
-3.783291e-36
-3.717976e-36
-2.993706e-36
-6.142566e-37
-3.032384e-36
-3.053826e-36
-3.376143e-36
-3.798427e-36
-3.874059e-36
-3.893409e-36
-3.91858e-36
-3.927732e-36
-3.932478e-36
-3.925962e-36
-3.908699e-36
-3.872274e-36
-3.893592e-36
-3.558251e-36
-3.596021e-36
-1.061615e-36
-2.138767e-36
-1.967315e-36
-2.990533e-36
-3.592603e-36
-3.349201e-36
-3.567745e-36
-3.603407e-36
-3.613719e-36
-3.590904e-36
-3.519124e-36
-3.568019e-36
-2.926579e-36
-2.97945e-36
-1.943683e-37
-2.032649e-36
-1.706483e-36
-2.665489e-36
-2.804293e-36
-2.828981e-36
-2.775006e-36
-2.538928e-36
9.361761e-38
-5.343267e-36
-2.736123e-36
-3.70133e-36
-3.74728e-36
-3.621209e-36
-2.363844e-36
-5.343272e-36
-2.91069e-36
-3.937172e-36
-3.921826e-36
-2.17963e-36
-2.874488e-36
-3.033114e-36
-3.063115e-36
-3.002787e-36
-2.860039e-36
-4.215795e-36
-3.980722e-36
-3.762042e-36
-2.359065e-36
-5.343254e-36
-3.166617e-36
-2.0912e-36
-2.887725e-36
-2.92087e-36
-1.661069e-36
-2.431995e-36
-2.730916e-36
-2.836563e-36
-2.852137e-36
-2.81708e-36
-2.590972e-36
-2.463466e-36
-3.202082e-36
-3.022454e-36
-2.990777e-36
-3.897107e-36
-2.794751e-36
-5.343332e-36
-1.564178e-36
-2.809932e-36
-1.887511e-36
-2.588863e-36
-2.956887e-36
-3.091537e-36
-3.322933e-36
-3.224643e-36
-3.256367e-36
-3.262344e-36
-3.243133e-36
-3.216572e-36
-3.200178e-36
-2.950419e-36
-2.802187e-36
-2.710164e-36
-3.345944e-36
-2.726753e-36
-2.996638e-36
-5.34338e-36
-1.979151e-36
-3.158291e-36
-2.374832e-36
-2.939435e-36
-3.290447e-36
-3.306257e-36
-3.439802e-36
-3.3038e-36
-3.324172e-36
-3.342046e-36
-3.345936e-36
-3.333988e-36
-3.332289e-36
-3.37126e-36
-3.321847e-36
-3.285526e-36
-3.191942e-36
-3.15132e-36
-3.459184e-36
-3.358074e-36
-3.148261e-36
-5.34338e-36
-1.819618e-36
-1.840063e-36
-2.746437e-36
-3.097694e-36
-3.567773e-36
-3.312333e-36
-3.37327e-36
-3.459822e-36
-3.505207e-36
-3.534405e-36
-3.552101e-36
-3.55661e-36
-3.546971e-36
-3.523991e-36
-3.497989e-36
-3.407929e-36
-3.310809e-36
-3.335311e-36
-3.34375e-36
-2.999672e-36
-2.785501e-36
-3.504624e-36
-3.13884e-36
-5.343379e-36
-1.81696e-36
-2.028488e-36
-2.843596e-36
-3.295095e-36
-3.500225e-36
-3.378483e-36
-3.408189e-36
-3.535323e-36
-3.369177e-36
-3.378096e-36
-3.397114e-36
-3.411244e-36
-3.414718e-36
-3.407417e-36
-3.390848e-36
-3.393164e-36
-3.447318e-36
-3.447414e-36
-3.436817e-36
-3.375476e-36
-3.329257e-36
-3.203879e-36
-2.94539e-36
-3.470714e-36
-3.066917e-36
-5.343332e-36
-1.9718e-36
-1.841088e-36
-2.842974e-36
-3.398947e-36
-3.314582e-36
-3.361374e-36
-3.514282e-36
-3.359644e-36
-3.370682e-36
-3.367326e-36
-3.373959e-36
-3.382428e-36
-3.386571e-36
-3.388544e-36
-3.387187e-36
-3.380323e-36
-3.371794e-36
-3.366436e-36
-3.381967e-36
-3.445376e-36
-3.393419e-36
-3.314767e-36
-3.323424e-36
-3.181302e-36
-3.129308e-36
-3.438831e-36
-2.995703e-36
-5.343253e-36
-1.552831e-36
-3.160271e-36
-2.742014e-36
-3.294308e-36
-3.314513e-36
-3.363499e-36
-3.527981e-36
-3.383184e-36
-3.36912e-36
-3.378271e-36
-3.383829e-36
-3.383702e-36
-3.378562e-36
-3.374605e-36
-3.375052e-36
-3.378648e-36
-3.382979e-36
-3.387845e-36
-3.382993e-36
-3.374606e-36
-3.391622e-36
-3.459751e-36
-3.404093e-36
-3.317112e-36
-3.323803e-36
-3.572648e-36
-3.615492e-36
-3.163391e-36
-2.530328e-36
-3.169097e-36
-2.810203e-36
-2.370161e-36
-3.098371e-36
-3.500174e-36
-3.361146e-36
-3.528589e-36
-3.392559e-36
-3.379467e-36
-3.38169e-36
-3.389466e-36
-3.392376e-36
-3.387054e-36
-3.378938e-36
-3.35275e-36
-3.346109e-36
-3.36096e-36
-3.382921e-36
-3.393694e-36
-3.393719e-36
-3.390065e-36
-3.381713e-36
-3.400727e-36
-3.463428e-36
-3.401749e-36
-3.332102e-36
-3.37198e-36
-3.259304e-36
-3.535692e-36
-2.325593e-36
-5.343272e-36
-2.090423e-36
-1.887451e-36
-2.941465e-36
-3.566038e-36
-3.378149e-36
-3.513606e-36
-3.383004e-36
-3.379476e-36
-3.381817e-36
-3.384432e-36
-3.387806e-36
-3.390193e-36
-3.367906e-36
-3.350866e-36
-3.333033e-36
-3.32835e-36
-3.337827e-36
-3.355613e-36
-3.375779e-36
-3.390978e-36
-3.392803e-36
-3.386551e-36
-3.381095e-36
-3.397602e-36
-3.449775e-36
-3.398371e-36
-3.422203e-36
-3.270765e-36
-3.290503e-36
-3.74442e-36
-2.458748e-36
-2.913988e-36
-2.887669e-36
-2.590244e-36
-3.289396e-36
-3.312381e-36
-3.407884e-36
-3.359117e-36
-3.368757e-36
-3.381657e-36
-3.384398e-36
-3.381914e-36
-3.364609e-36
-3.357935e-36
-3.348446e-36
-3.343083e-36
-3.338434e-36
-3.337039e-36
-3.339073e-36
-3.343848e-36
-3.350826e-36
-3.360483e-36
-3.375008e-36
-3.385207e-36
-3.385232e-36
-3.378685e-36
-3.385833e-36
-3.364532e-36
-3.27917e-36
-3.327521e-36
-3.660823e-36
-3.532667e-36
-2.193089e-36
-3.934918e-36
-2.924744e-36
-2.958701e-36
-3.305771e-36
-3.374248e-36
-3.534749e-36
-3.370069e-36
-3.37786e-36
-3.389398e-36
-3.387584e-36
-3.364469e-36
-3.346029e-36
-3.345768e-36
-3.351723e-36
-3.358813e-36
-3.363106e-36
-3.363817e-36
-3.360868e-36
-3.354933e-36
-3.348224e-36
-3.345759e-36
-3.355983e-36
-3.37439e-36
-3.387189e-36
-3.386457e-36
-3.396846e-36
-3.452239e-36
-3.384407e-36
-3.355832e-36
-3.656473e-36
-3.673062e-36
-3.083753e-36
-3.924879e-36
-1.654232e-36
-3.08673e-36
-3.439752e-36
-3.460578e-36
-3.368666e-36
-3.366928e-36
-3.383463e-36
-3.392e-36
-3.389802e-36
-3.357709e-36
-3.345685e-36
-3.354729e-36
-3.370578e-36
-3.384631e-36
-3.393113e-36
-3.394792e-36
-3.389501e-36
-3.378109e-36
-3.363013e-36
-3.349991e-36
-3.350118e-36
-3.370664e-36
-3.388887e-36
-3.39025e-36
-3.381924e-36
-3.388585e-36
-3.376972e-36
-3.360945e-36
-3.318691e-36
-3.300273e-36
-3.433258e-36
-5.343266e-36
-2.174004e-36
-2.429049e-36
-3.321229e-36
-3.303979e-36
-3.505491e-36
-3.3776e-36
-3.373487e-36
-3.383509e-36
-3.386656e-36
-3.367576e-36
-3.348271e-36
-3.351647e-36
-3.370555e-36
-3.39218e-36
-3.409475e-36
-3.419635e-36
-3.42168e-36
-3.415435e-36
-3.401636e-36
-3.382173e-36
-3.361704e-36
-3.349633e-36
-3.356764e-36
-3.373953e-36
-3.385118e-36
-3.386176e-36
-3.402903e-36
-3.409925e-36
-3.389455e-36
-3.320005e-36
-3.679495e-36
-3.875918e-36
-2.146869e-36
-2.740034e-36
-2.873013e-36
-2.731647e-36
-3.225586e-36
-3.325055e-36
-3.534654e-36
-3.396726e-36
-3.381818e-36
-3.378225e-36
-3.378599e-36
-3.350625e-36
-3.342965e-36
-3.358737e-36
-3.384574e-36
-3.40943e-36
-3.428429e-36
-3.439472e-36
-3.441719e-36
-3.434933e-36
-3.419846e-36
-3.397979e-36
-3.372616e-36
-3.351011e-36
-3.345394e-36
-3.361789e-36
-3.378428e-36
-3.386601e-36
-3.417819e-36
-3.435291e-36
-3.389515e-36
-3.27144e-36
-3.735309e-36
-3.537135e-36
-2.035977e-36
-3.696868e-36
-3.035068e-36
-2.840236e-36
-3.258543e-36
-3.343156e-36
-3.552553e-36
-3.411379e-36
-3.386489e-36
-3.374503e-36
-3.352664e-36
-3.332994e-36
-3.338401e-36
-3.363045e-36
-3.393042e-36
-3.419556e-36
-3.439408e-36
-3.45053e-36
-3.452845e-36
-3.445969e-36
-3.430478e-36
-3.40741e-36
-3.379517e-36
-3.35241e-36
-3.336895e-36
-3.342995e-36
-3.362351e-36
-3.382614e-36
-3.425977e-36
-3.450664e-36
-3.404981e-36
-3.293775e-36
-3.765601e-36
-3.69326e-36
-2.816647e-36
-3.745905e-36
-3.063628e-36
-2.853387e-36
-3.263189e-36
-3.346692e-36
-3.557313e-36
-3.415435e-36
-3.389115e-36
-3.375461e-36
-3.346354e-36
-3.328474e-36
-3.337085e-36
-3.3638e-36
-3.394737e-36
-3.421593e-36
-3.4416e-36
-3.452728e-36
-3.455064e-36
-3.448179e-36
-3.432693e-36
-3.409505e-36
-3.381347e-36
-3.353364e-36
-3.335234e-36
-3.339984e-36
-3.358168e-36
-3.381274e-36
-3.427488e-36
-3.453399e-36
-3.407802e-36
-3.298379e-36
-3.770847e-36
-3.702237e-36
-2.860494e-36
-3.624801e-36
-3.000388e-36
-2.814592e-36
-3.242399e-36
-3.334251e-36
-3.547804e-36
-3.408464e-36
-3.387889e-36
-3.379009e-36
-3.361297e-36
-3.338003e-36
-3.339143e-36
-3.36086e-36
-3.389458e-36
-3.415357e-36
-3.434816e-36
-3.445838e-36
-3.448118e-36
-3.441445e-36
-3.42632e-36
-3.404126e-36
-3.377947e-36
-3.353794e-36
-3.343005e-36
-3.34766e-36
-3.368934e-36
-3.382017e-36
-3.42171e-36
-3.443066e-36
-3.398078e-36
-3.285456e-36
-3.749755e-36
-3.659566e-36
-2.696394e-36
-2.384969e-36
-2.862614e-36
-2.58972e-36
-3.213869e-36
-3.331571e-36
-3.524671e-36
-3.39185e-36
-3.38069e-36
-3.383093e-36
-3.383135e-36
-3.355762e-36
-3.343908e-36
-3.354923e-36
-3.378075e-36
-3.401569e-36
-3.419727e-36
-3.430329e-36
-3.432578e-36
-3.426253e-36
-3.412156e-36
-3.3921e-36
-3.369984e-36
-3.353208e-36
-3.35459e-36
-3.367933e-36
-3.377782e-36
-3.383038e-36
-3.409195e-36
-3.420748e-36
-3.380124e-36
-3.282386e-36
-3.735546e-36
-3.754673e-36
-4.052602e-37
-4.21354e-36
-2.468735e-36
-3.197884e-36
-3.369609e-36
-3.498296e-36
-3.394015e-36
-3.371898e-36
-3.38806e-36
-3.393792e-36
-3.375844e-36
-3.350842e-36
-3.348214e-36
-3.362983e-36
-3.382093e-36
-3.39783e-36
-3.407182e-36
-3.409264e-36
-3.403962e-36
-3.392021e-36
-3.375569e-36
-3.359535e-36
-3.354317e-36
-3.362124e-36
-3.383036e-36
-3.386673e-36
-3.385347e-36
-3.410731e-36
-3.400233e-36
-3.377491e-36
-3.567845e-36
-3.946516e-36
-3.327378e-36
-3.980735e-36
-3.206398e-36
-2.953343e-36
-3.319475e-36
-3.407647e-36
-3.448048e-36
-3.366637e-36
-3.383467e-36
-3.393866e-36
-3.390961e-36
-3.360446e-36
-3.345734e-36
-3.349953e-36
-3.361607e-36
-3.372411e-36
-3.379169e-36
-3.380866e-36
-3.377649e-36
-3.36983e-36
-3.359476e-36
-3.351331e-36
-3.357385e-36
-3.374109e-36
-3.386321e-36
-3.388163e-36
-3.398967e-36
-3.343654e-36
-3.410196e-36
-3.372053e-36
-3.693627e-36
-3.805803e-36
-3.21174e-36
-3.765103e-36
-3.020468e-36
-2.802044e-36
-3.28627e-36
-3.310529e-36
-3.447765e-36
-3.38199e-36
-3.375217e-36
-3.390397e-36
-3.392764e-36
-3.374855e-36
-3.355886e-36
-3.350068e-36
-3.349531e-36
-3.350775e-36
-3.351941e-36
-3.352701e-36
-3.353419e-36
-3.353032e-36
-3.35422e-36
-3.357312e-36
-3.362966e-36
-3.38141e-36
-3.38668e-36
-3.38701e-36
-3.408441e-36
-3.383367e-36
-3.262343e-36
-3.361399e-36
-3.754541e-36
-3.563272e-36
-2.966203e-36
-2.372918e-36
-2.987047e-36
-2.70731e-36
-3.194732e-36
-3.335704e-36
-3.437965e-36
-3.445547e-36
-3.392202e-36
-3.382055e-36
-3.386546e-36
-3.384956e-36
-3.374265e-36
-3.370613e-36
-3.356655e-36
-3.345159e-36
-3.336466e-36
-3.334592e-36
-3.342655e-36
-3.354472e-36
-3.362067e-36
-3.373966e-36
-3.381242e-36
-3.381355e-36