/*--------------------------------*- C++ -*----------------------------------*\
  =========                 |
  \\      /  F ield         | OpenFOAM: The Open Source CFD Toolbox
   \\    /   O peration     | Website:  https://openfoam.org
    \\  /    A nd           | Version:  6
     \\/     M anipulation  |
\*---------------------------------------------------------------------------*/
FoamFile
{
    version     2.0;
    format      ascii;
    class       volScalarField;
    location    "50/region0/neutronTransport";
    object      flux5;
}
// * * * * * * * * * * * * * * * * * * * * * * * * * * * * * * * * * * * * * //

dimensions      [0 -2 -1 0 0 0 0];

internalField   nonuniform List<scalar> 
203709
(
7380002
9365735
9365709
7386195
7848025
1.008391e+07
1.454488e+07
1.430289e+07
1.430245e+07
1.454916e+07
1.008883e+07
7852351
7613196
1.011989e+07
1.470265e+07
1.453231e+07
1.50125e+07
1.513486e+07
1.51354e+07
1.501425e+07
1.453507e+07
1.470553e+07
1.012151e+07
7614676
7613968
1.426827e+07
1.447659e+07
1.509332e+07
1.541117e+07
1.569911e+07
1.582435e+07
1.582539e+07
1.569873e+07
1.541037e+07
1.509243e+07
1.447528e+07
1.426786e+07
7613208
1.011927e+07
1.447611e+07
1.519426e+07
1.568995e+07
1.606747e+07
1.634114e+07
1.647671e+07
1.64768e+07
1.633876e+07
1.606444e+07
1.568663e+07
1.519017e+07
1.44722e+07
1.011621e+07
7848022
1.470104e+07
1.509327e+07
1.568969e+07
1.620353e+07
1.66061e+07
1.688486e+07
1.702154e+07
1.702069e+07
1.688245e+07
1.660348e+07
1.61993e+07
1.56852e+07
1.50895e+07
1.469838e+07
7845338
1.008086e+07
1.452837e+07
1.540837e+07
1.606388e+07
1.660316e+07
1.70195e+07
1.729565e+07
1.742443e+07
1.742433e+07
1.729605e+07
1.701832e+07
1.659966e+07
1.606018e+07
1.540385e+07
1.452303e+07
1.00767e+07
7377442
1.453893e+07
1.500831e+07
1.56957e+07
1.633719e+07
1.687824e+07
1.729058e+07
1.754178e+07
1.766902e+07
1.767117e+07
1.754715e+07
1.729464e+07
1.687997e+07
1.633467e+07
1.568965e+07
1.500051e+07
1.453211e+07
7370130
9353921
1.429059e+07
1.512717e+07
1.582027e+07
1.647244e+07
1.701456e+07
1.741779e+07
1.766554e+07
1.780676e+07
1.780392e+07
1.767165e+07
1.742533e+07
1.701999e+07
1.647209e+07
1.581458e+07
1.51199e+07
1.428259e+07
9348597
9354299
1.429254e+07
1.512687e+07
1.581841e+07
1.647136e+07
1.701492e+07
1.741805e+07
1.766638e+07
1.7812e+07
1.780831e+07
1.76719e+07
1.742506e+07
1.701947e+07
1.647245e+07
1.581475e+07
1.511943e+07
1.428363e+07
9349602
7371575
1.453629e+07
1.50049e+07
1.569264e+07
1.633546e+07
1.687925e+07
1.729305e+07
1.754506e+07
1.767234e+07
1.767175e+07
1.754734e+07
1.729621e+07
1.68808e+07
1.633446e+07
1.568801e+07
1.499708e+07
1.452594e+07
7370402
1.007569e+07
1.452371e+07
1.540512e+07
1.606309e+07
1.660364e+07
1.702214e+07
1.729868e+07
1.742845e+07
1.742558e+07
1.729692e+07
1.701823e+07
1.659842e+07
1.605592e+07
1.539614e+07
1.451426e+07
1.007031e+07
7845099
1.469774e+07
1.509013e+07
1.568903e+07
1.620448e+07
1.660974e+07
1.688757e+07
1.702518e+07
1.702103e+07
1.688102e+07
1.65983e+07
1.619125e+07
1.567478e+07
1.507591e+07
1.468319e+07
7837563
1.011845e+07
1.447628e+07
1.519676e+07
1.569389e+07
1.607125e+07
1.634383e+07
1.648499e+07
1.648012e+07
1.633163e+07
1.605342e+07
1.567255e+07
1.517452e+07
1.445663e+07
1.010532e+07
7614802
1.427217e+07
1.447853e+07
1.50948e+07
1.540917e+07
1.569393e+07
1.582223e+07
1.581773e+07
1.56812e+07
1.539009e+07
1.507055e+07
1.445158e+07
1.424507e+07
7600478
7612359
1.011661e+07
1.469605e+07
1.451944e+07
1.499637e+07
1.511706e+07
1.511531e+07
1.498657e+07
1.450517e+07
1.467507e+07
1.009789e+07
7597780
7839289
1.006856e+07
1.451979e+07
1.427873e+07
1.427952e+07
1.451271e+07
1.006001e+07
7831106
7363761
9337530
9337819
7362069
6177517
8100149
8526841
8801899
8970016
8971702
8807119
8535499
8112443
6191452
6360979
8552543
1.27118e+07
1.309053e+07
1.362671e+07
1.430171e+07
1.484101e+07
1.484386e+07
1.431134e+07
1.363874e+07
1.310356e+07
1.27271e+07
8566018
6372524
6565079
1.2437e+07
1.310693e+07
1.426041e+07
1.547155e+07
1.649757e+07
1.825287e+07
1.959956e+07
1.96028e+07
1.826335e+07
1.650839e+07
1.548465e+07
1.427889e+07
1.312793e+07
1.246226e+07
6579017
6649002
1.266557e+07
1.387766e+07
1.537924e+07
1.697955e+07
1.987008e+07
2.373142e+07
3.003319e+07
3.161675e+07
3.162135e+07
3.004258e+07
2.374711e+07
1.98902e+07
1.700214e+07
1.540322e+07
1.39025e+07
1.268901e+07
6665005
6560576
1.266183e+07
1.403565e+07
1.579166e+07
1.940133e+07
2.409997e+07
3.17626e+07
3.587327e+07
3.895374e+07
4.377434e+07
4.377937e+07
3.897021e+07
3.589522e+07
3.178559e+07
2.412634e+07
1.942392e+07
1.581525e+07
1.405727e+07
1.268245e+07
6573975
6356120
1.243173e+07
1.387449e+07
1.579299e+07
2.107552e+07
3.06499e+07
3.582499e+07
4.01131e+07
4.694066e+07
4.995724e+07
5.175033e+07
5.175422e+07
4.996938e+07
4.695796e+07
4.013331e+07
3.584419e+07
3.066261e+07
2.108919e+07
1.580356e+07
1.388743e+07
1.244733e+07
6366857
8540396
1.309639e+07
1.537395e+07
1.940113e+07
3.064925e+07
3.804395e+07
4.614742e+07
5.054559e+07
5.398243e+07
5.608685e+07
5.716156e+07
5.716311e+07
5.609113e+07
5.398865e+07
5.055217e+07
4.615117e+07
3.804401e+07
3.06461e+07
1.939986e+07
1.537848e+07
1.310475e+07
8550033
6171585
1.269153e+07
1.424624e+07
1.697307e+07
2.409609e+07
3.58285e+07
4.614873e+07
5.214301e+07
5.593865e+07
5.85422e+07
6.018421e+07
6.099297e+07
6.099174e+07
6.018028e+07
5.853697e+07
5.593127e+07
5.213259e+07
4.613692e+07
3.581931e+07
2.40945e+07
1.697609e+07
1.425103e+07
1.270209e+07
6177887
8085322
1.307139e+07
1.545413e+07
1.986333e+07
3.176496e+07
4.011885e+07
5.054889e+07
5.59401e+07
5.93483e+07
6.161993e+07
6.304592e+07
6.373845e+07
6.373584e+07
6.303868e+07
6.160954e+07
5.933457e+07
5.592434e+07
5.053307e+07
4.010687e+07
3.175701e+07
1.985804e+07
1.545743e+07
1.308012e+07
8093778
8508757
1.360569e+07
1.647558e+07
2.37122e+07
3.587196e+07
4.69417e+07
5.39823e+07
5.853964e+07
6.161523e+07
6.370336e+07
6.502426e+07
6.567069e+07
6.567022e+07
6.502279e+07
6.369852e+07
6.160347e+07
5.852239e+07
5.396084e+07
4.691831e+07
3.584814e+07
2.370814e+07
1.647967e+07
1.361078e+07
8515821
8781141
1.427714e+07
1.82308e+07
3.001257e+07
3.894597e+07
4.995365e+07
5.608274e+07
6.017638e+07
6.303053e+07
6.50107e+07
6.626951e+07
6.68912e+07
6.689577e+07
6.628205e+07
6.502309e+07
6.30347e+07
6.016596e+07
5.606051e+07
4.992546e+07
3.892075e+07
3.000207e+07
1.82269e+07
1.427938e+07
8786983
8946380
1.480817e+07
1.956568e+07
3.15858e+07
4.375236e+07
5.173728e+07
5.715298e+07
6.098427e+07
6.372388e+07
6.565323e+07
6.688095e+07
6.749149e+07
6.749527e+07
6.689772e+07
6.567276e+07
6.373544e+07
6.098076e+07
5.713491e+07
5.171126e+07
4.372746e+07
3.157416e+07
1.956384e+07
1.481145e+07
8950812
8945696
1.480462e+07
1.955952e+07
3.157788e+07
4.374576e+07
5.173212e+07
5.714912e+07
6.098268e+07
6.372513e+07
6.565603e+07
6.688498e+07
6.749723e+07
6.749935e+07
6.689884e+07
6.567316e+07
6.373589e+07
6.098123e+07
5.713486e+07
5.171054e+07
4.37253e+07
3.156724e+07
1.955704e+07
1.480616e+07
8947927
8779851
1.427328e+07
1.822595e+07
3.000385e+07
3.892702e+07
4.99386e+07
5.607212e+07
6.017149e+07
6.303413e+07
6.501863e+07
6.627851e+07
6.689976e+07
6.690071e+07
6.628478e+07
6.502579e+07
6.303652e+07
6.016529e+07
5.605667e+07
4.991911e+07
3.891217e+07
2.999217e+07
1.822075e+07
1.427216e+07
8779775
8510009
1.360608e+07
1.647526e+07
2.37058e+07
3.585414e+07
4.692567e+07
5.396976e+07
5.853253e+07
6.161526e+07
6.371129e+07
6.503553e+07
6.568309e+07
6.567914e+07
6.502834e+07
6.36995e+07
6.159859e+07
5.851102e+07
5.394399e+07
4.689957e+07
3.583623e+07
2.368832e+07
1.646315e+07
1.360109e+07
8507433
8089179
1.307615e+07
1.545565e+07
1.985596e+07
3.175857e+07
4.011149e+07
5.054233e+07
5.59388e+07
5.93542e+07
6.163314e+07
6.306189e+07
6.375271e+07
6.374297e+07
6.303795e+07
6.159747e+07
5.931142e+07
5.589368e+07
5.049824e+07
4.007129e+07
3.172612e+07
1.983784e+07
1.543904e+07
1.306586e+07
8083974
6175495
1.270127e+07
1.425052e+07
1.69723e+07
2.409881e+07
3.583105e+07
4.6155e+07
5.215388e+07
5.595354e+07
5.855779e+07
6.019633e+07
6.099399e+07
6.098049e+07
6.015942e+07
5.85028e+07
5.588722e+07
5.208497e+07
4.609076e+07
3.577837e+07
2.406028e+07
1.694826e+07
1.423e+07
1.268501e+07
6169995
8549111
1.310223e+07
1.537728e+07
1.940409e+07
3.065795e+07
3.805414e+07
4.615785e+07
5.055409e+07
5.398338e+07
5.607772e+07
5.713319e+07
5.71201e+07
5.60398e+07
5.39261e+07
5.048361e+07
4.608404e+07
3.798666e+07
3.059985e+07
1.936531e+07
1.535031e+07
1.308009e+07
8533734
6361756
1.243604e+07
1.387773e+07
1.579327e+07
2.107613e+07
3.064772e+07
3.582172e+07
4.010663e+07
4.691927e+07
4.992328e+07
5.169555e+07
5.168667e+07
4.989375e+07
4.687482e+07
4.005322e+07
3.576916e+07
3.059811e+07
2.103453e+07
1.576074e+07
1.385204e+07
1.241558e+07
6348712
6565264
1.26666e+07
1.403462e+07
1.578372e+07
1.938622e+07
2.407901e+07
3.174008e+07
3.583623e+07
3.890141e+07
4.369732e+07
4.36932e+07
3.888385e+07
3.580775e+07
3.170338e+07
2.404781e+07
1.935801e+07
1.575727e+07
1.400959e+07
1.264441e+07
6552317
6648434
1.26597e+07
1.386448e+07
1.536037e+07
1.695341e+07
1.982921e+07
2.367743e+07
2.997179e+07
3.153964e+07
3.153705e+07
2.995892e+07
2.366265e+07
1.981581e+07
1.693426e+07
1.534009e+07
1.384486e+07
1.264168e+07
6639013
6555916
1.242019e+07
1.308177e+07
1.422459e+07
1.542596e+07
1.644904e+07
1.819898e+07
1.953239e+07
1.953115e+07
1.819481e+07
1.644066e+07
1.542012e+07
1.421799e+07
1.307165e+07
1.240802e+07
6549650
6351411
8532127
1.267542e+07
1.305149e+07
1.358378e+07
1.425315e+07
1.478718e+07
1.478746e+07
1.425288e+07
1.358153e+07
1.304784e+07
1.267491e+07
8529826
6348241
6161409
8071466
8493433
8765768
8932692
8932781
8768929
8497374
8074560
6160150
5219710
6823026
7091336
7186343
7186371
7091761
6821697
5218250
5244694
7331677
8232809
1.199775e+07
1.245226e+07
1.272894e+07
1.285305e+07
1.285368e+07
1.273067e+07
1.245615e+07
1.201148e+07
8248138
7350490
5265300
5997172
1.154654e+07
1.278923e+07
1.470968e+07
1.666449e+07
1.749119e+07
1.799207e+07
1.822203e+07
1.822333e+07
1.799636e+07
1.749963e+07
1.667939e+07
1.47324e+07
1.281494e+07
1.157584e+07
6019425
5492790
7919967
1.247982e+07
1.579899e+07
1.976278e+07
2.638431e+07
2.877391e+07
3.001651e+07
3.082016e+07
3.123229e+07
3.123366e+07
3.082514e+07
3.002698e+07
2.879141e+07
2.640978e+07
1.979416e+07
1.583445e+07
1.250589e+07
7938770
5503757
5564011
1.119652e+07
1.333113e+07
1.825374e+07
2.69215e+07
3.179189e+07
3.587376e+07
4.221243e+07
4.509977e+07
4.678929e+07
4.761789e+07
4.762118e+07
4.680073e+07
4.51217e+07
4.224653e+07
3.591964e+07
3.184258e+07
2.696872e+07
1.828758e+07
1.336124e+07
1.121676e+07
5575124
5488728
1.119738e+07
1.384371e+07
1.912464e+07
2.925653e+07
3.545848e+07
4.359753e+07
4.877829e+07
5.329308e+07
5.666765e+07
5.904259e+07
6.020598e+07
6.021125e+07
5.906044e+07
5.66954e+07
5.333042e+07
4.882592e+07
4.364932e+07
3.550886e+07
2.930503e+07
1.916461e+07
1.38706e+07
1.12163e+07
5500137
7918460
1.332733e+07
1.91222e+07
2.975839e+07
3.677981e+07
4.636709e+07
5.331461e+07
5.897478e+07
6.39214e+07
6.799162e+07
7.120112e+07
7.247507e+07
7.248202e+07
7.122137e+07
6.802504e+07
6.396778e+07
5.903179e+07
5.337529e+07
4.642883e+07
3.683351e+07
2.980219e+07
1.915764e+07
1.335484e+07
7935000
6001538
1.246892e+07
1.823872e+07
2.924817e+07
3.67699e+07
4.719065e+07
5.545293e+07
6.276756e+07
6.913104e+07
7.48125e+07
7.893961e+07
8.191162e+07
8.361231e+07
8.362099e+07
8.193687e+07
7.897891e+07
7.486231e+07
6.918854e+07
6.282781e+07
5.551687e+07
4.725057e+07
3.68232e+07
2.929407e+07
1.827352e+07
1.249335e+07
6011063
5241878
1.153585e+07
1.578134e+07
2.689522e+07
3.544367e+07
4.635772e+07
5.545014e+07
6.418712e+07
7.239132e+07
7.890785e+07
8.429574e+07
8.87599e+07
9.190019e+07
9.360268e+07
9.360977e+07
9.192122e+07
8.879277e+07
8.433661e+07
7.895144e+07
7.243445e+07
6.423324e+07
5.549527e+07
4.640241e+07
3.548402e+07
2.692592e+07
1.580967e+07
1.155582e+07
5247806
7323392
1.277039e+07
1.973042e+07
3.176095e+07
4.356656e+07
5.329868e+07
6.275989e+07
7.238867e+07
8.044878e+07
8.743649e+07
9.305305e+07
9.740586e+07
1.003273e+08
1.01822e+08
1.018256e+08
1.003377e+08
9.742115e+07
9.307061e+07
8.74526e+07
8.046201e+07
7.240026e+07
6.277292e+07
5.331916e+07
4.359511e+07
3.178251e+07
1.97587e+07
1.279114e+07
7332525
8216358
1.467779e+07
2.632609e+07
3.583559e+07
4.873778e+07
5.895341e+07
6.912027e+07
7.890653e+07
8.743724e+07
9.464078e+07
1.001934e+08
1.042743e+08
1.069555e+08
1.082924e+08
1.082907e+08
1.069511e+08
1.042677e+08
1.001838e+08
9.462636e+07
8.741871e+07
7.888767e+07
6.911025e+07
5.895767e+07
4.876076e+07
3.586033e+07
2.636964e+07
1.470409e+07
8229794
5205197
1.197098e+07
1.662014e+07
2.870705e+07
4.215274e+07
5.32414e+07
6.389211e+07
7.480265e+07
8.429627e+07
9.305526e+07
1.001951e+08
1.055856e+08
1.094579e+08
1.119701e+08
1.132088e+08
1.132043e+08
1.119574e+08
1.094382e+08
1.055602e+08
1.001658e+08
9.302453e+07
8.426845e+07
7.478393e+07
6.388951e+07
5.326315e+07
4.218632e+07
2.875411e+07
1.665184e+07
1.198867e+07
5216764
6800931
1.241814e+07
1.744676e+07
2.995002e+07
4.502785e+07
5.660418e+07
6.794731e+07
7.892197e+07
8.875528e+07
9.740398e+07
1.042717e+08
1.094521e+08
1.131643e+08
1.155727e+08
1.167622e+08
1.167612e+08
1.155692e+08
1.131548e+08
1.094306e+08
1.042395e+08
9.736398e+07
8.871347e+07
7.888886e+07
6.793929e+07
5.661925e+07
4.505813e+07
2.998822e+07
1.747221e+07
1.243829e+07
6814674
7072188
1.269526e+07
1.794696e+07
3.075562e+07
4.671056e+07
5.896885e+07
7.114486e+07
8.188109e+07
9.188666e+07
1.003196e+08
1.069449e+08
1.119468e+08
1.155505e+08
1.178955e+08
1.190589e+08
1.190669e+08
1.179158e+08
1.155718e+08
1.119536e+08
1.06924e+08
1.002772e+08
9.183581e+07
8.183898e+07
7.112701e+07
5.897352e+07
4.67318e+07
3.078167e+07
1.796657e+07
1.271131e+07
7081846
7169440
1.282298e+07
1.817959e+07
3.11713e+07
4.753581e+07
6.011984e+07
7.240244e+07
8.356321e+07
9.357488e+07
1.01807e+08
1.082809e+08
1.131882e+08
1.167339e+08
1.190409e+08
1.201874e+08
1.201983e+08
1.190704e+08
1.167664e+08
1.132055e+08
1.082706e+08
1.017711e+08
9.352682e+07
8.352068e+07
7.238084e+07
6.011904e+07
4.754712e+07
3.118535e+07
1.819051e+07
1.28318e+07
7175891
7169956
1.28248e+07
1.818243e+07
3.11767e+07
4.753924e+07
6.011812e+07
7.239532e+07
8.35529e+07
9.356527e+07
1.018005e+08
1.082792e+08
1.131918e+08
1.167403e+08
1.190479e+08
1.201934e+08
1.202017e+08
1.190714e+08
1.167666e+08
1.132058e+08
1.082707e+08
1.017701e+08
9.35239e+07
8.351488e+07
7.237212e+07
6.01107e+07
4.754023e+07
3.11795e+07
1.818601e+07
1.282816e+07
7173993
7075620
1.270251e+07
1.795633e+07
3.07717e+07
4.672135e+07
5.896958e+07
7.113275e+07
8.185679e+07
9.186257e+07
1.003022e+08
1.069384e+08
1.119551e+08
1.155655e+08
1.179102e+08
1.190706e+08
1.19074e+08
1.179198e+08
1.155743e+08
1.119541e+08
1.069206e+08
1.002682e+08
9.182078e+07
8.18179e+07
7.110301e+07
5.895221e+07
4.671029e+07
3.076132e+07
1.795289e+07
1.270108e+07
7076772
6809767
1.24302e+07
1.746123e+07
2.997695e+07
4.504705e+07
5.661242e+07
6.793943e+07
7.889872e+07
8.873018e+07
9.738415e+07
1.042605e+08
1.094529e+08
1.131779e+08
1.155916e+08
1.167807e+08
1.167752e+08
1.15577e+08
1.131542e+08
1.094195e+08
1.04217e+08
9.733141e+07
8.867425e+07
7.884727e+07
6.789514e+07
5.658e+07
4.502191e+07
2.99513e+07
1.745057e+07
1.242447e+07
6807963
5218127
1.198371e+07
1.664299e+07
2.874685e+07
4.21798e+07
5.326107e+07
6.389126e+07
7.479246e+07
8.428369e+07
9.304587e+07
1.001951e+08
1.055979e+08
1.094808e+08
1.119967e+08
1.132298e+08
1.132134e+08
1.119516e+08
1.094138e+08
1.055177e+08
1.001095e+08
9.296017e+07
8.420169e+07
7.472058e+07
6.383339e+07
5.32124e+07
4.214294e+07
2.870706e+07
1.662629e+07
1.197648e+07
5212449
8227572
1.470024e+07
2.637212e+07
3.586259e+07
4.876909e+07
5.896635e+07
6.912901e+07
7.891414e+07
8.744856e+07
9.465901e+07
1.002172e+08
1.042975e+08
1.069692e+08
1.082861e+08
1.082622e+08
1.069018e+08
1.041966e+08
1.000964e+08
9.453227e+07
8.732685e+07
7.880424e+07
6.903703e+07
5.889222e+07
4.870507e+07
3.582354e+07
2.632303e+07
1.467881e+07
8218724
7328716
1.278714e+07
1.976013e+07
3.179403e+07
4.360543e+07
5.332304e+07
6.277991e+07
7.240833e+07
8.046517e+07
8.744939e+07
9.305928e+07
9.739748e+07
1.002967e+08
1.017605e+08
1.017368e+08
1.002287e+08
9.729409e+07
9.293314e+07
8.731455e+07
8.033247e+07
7.228559e+07
6.267757e+07
5.323857e+07
4.353312e+07
3.175289e+07
1.972434e+07
1.276836e+07
7323531
5240242
1.15517e+07
1.580324e+07
2.692401e+07
3.547306e+07
4.637808e+07
5.546233e+07
6.419207e+07
7.238447e+07
7.888999e+07
8.426471e+07
8.870632e+07
9.18191e+07
9.348895e+07
9.347125e+07
9.17666e+07
8.862546e+07
8.416538e+07
7.878416e+07
7.227866e+07
6.409197e+07
5.537538e+07
4.630387e+07
3.540902e+07
2.688798e+07
1.577385e+07
1.15315e+07
5242086
5999740
1.248254e+07
1.82547e+07
2.926034e+07
3.678243e+07
4.719094e+07
5.544059e+07
6.273621e+07
6.908169e+07
7.474508e+07
7.884682e+07
8.179068e+07
8.346128e+07
8.345073e+07
8.175756e+07
7.879372e+07
7.467858e+07
6.901087e+07
6.266388e+07
5.537051e+07
4.713017e+07
3.673461e+07
2.922391e+07
1.822888e+07
1.246208e+07
5994443
7920688
1.333522e+07
1.91289e+07
2.97609e+07
3.676766e+07
4.634564e+07
5.327196e+07
5.890831e+07
6.382689e+07
6.78721e+07
7.106031e+07
7.231358e+07
7.230827e+07
7.104338e+07
6.784522e+07
6.379293e+07
5.886608e+07
5.322651e+07
4.630145e+07
3.673211e+07
2.972941e+07
1.910457e+07
1.331738e+07
7911717
5493073
1.120195e+07
1.384509e+07
1.912162e+07
2.924934e+07
3.54372e+07
4.354473e+07
4.87023e+07
5.319186e+07
5.654495e+07
5.890314e+07
6.005132e+07
6.004993e+07
5.890064e+07
5.653782e+07
5.318006e+07
4.86872e+07
4.352964e+07
3.541918e+07
2.922986e+07
1.910669e+07
1.383199e+07
1.118996e+07
5488845
5562845
1.119882e+07
1.332812e+07
1.82331e+07
2.688159e+07
3.173335e+07
3.58045e+07
4.211356e+07
4.498156e+07
4.66606e+07
4.74812e+07
4.748151e+07
4.666797e+07
4.499255e+07
4.212248e+07
3.580676e+07
3.174049e+07
2.688639e+07
1.823191e+07
1.33221e+07
1.119268e+07
5559802
5488036
7915227
1.246169e+07
1.577262e+07
1.971347e+07
2.631192e+07
2.868173e+07
2.991361e+07
3.071655e+07
3.114452e+07
3.11417e+07
3.073109e+07
2.993577e+07
2.87046e+07
2.633122e+07
1.972625e+07
1.577783e+07
1.246592e+07
7913116
5488081
5992590
1.152627e+07
1.275814e+07
1.466516e+07
1.660383e+07
1.742279e+07
1.792203e+07
1.815601e+07
1.815196e+07
1.792901e+07
1.743263e+07
1.661458e+07
1.467326e+07
1.276222e+07
1.153277e+07
5992130
5232406
7314862
8207893
1.195827e+07
1.240313e+07
1.267835e+07
1.281306e+07
1.281218e+07
1.268097e+07
1.240627e+07
1.196375e+07
8210676
7315167
5235480
5204207
6794616
7062102
7161691
7161465
7062609
6794060
5197506
4715106
6082395
6291784
6292046
6080681
4717644
4486145
6528707
7564221
8978811
1.287329e+07
1.353253e+07
1.37696e+07
1.376718e+07
1.352774e+07
1.287107e+07
8995308
7587230
6551414
4507168
4526523
6952634
1.174793e+07
1.434662e+07
1.691578e+07
2.2488e+07
2.473165e+07
2.555583e+07
2.594935e+07
2.594514e+07
2.554823e+07
2.473759e+07
2.252022e+07
1.695021e+07
1.438e+07
1.178542e+07
6981103
4551290
5255206
1.095442e+07
1.507456e+07
2.280829e+07
2.63518e+07
2.986002e+07
3.315845e+07
3.85651e+07
4.059974e+07
4.140199e+07
4.140026e+07
4.059838e+07
3.857426e+07
3.318356e+07
2.989254e+07
2.639337e+07
2.284406e+07
1.512101e+07
1.098898e+07
5280162
5804779
1.272274e+07
1.800041e+07
2.672671e+07
3.251536e+07
4.023569e+07
4.526089e+07
4.90818e+07
5.227406e+07
5.421831e+07
5.511204e+07
5.511233e+07
5.422186e+07
5.228827e+07
4.911431e+07
4.531188e+07
4.029767e+07
3.257506e+07
2.677061e+07
1.804489e+07
1.274966e+07
5821556
6111072
1.437017e+07
2.371812e+07
2.978285e+07
3.594562e+07
4.615413e+07
5.347474e+07
5.948391e+07
6.359579e+07
6.666181e+07
6.863557e+07
6.959103e+07
6.959331e+07
6.864459e+07
6.668341e+07
6.363499e+07
5.953999e+07
5.354211e+07
4.622899e+07
3.600772e+07
2.982299e+07
2.374514e+07
1.438554e+07
6120498
5807161
1.437169e+07
2.504468e+07
3.222716e+07
4.235178e+07
5.087343e+07
5.964761e+07
6.681375e+07
7.277057e+07
7.774213e+07
8.137913e+07
8.369923e+07
8.482824e+07
8.48334e+07
8.371673e+07
8.141381e+07
7.779719e+07
7.284389e+07
6.689594e+07
5.97311e+07
5.094245e+07
4.240374e+07
3.225774e+07
2.505005e+07
1.438203e+07
5814527
5259504
1.272193e+07
2.372455e+07
3.222365e+07
4.358398e+07
5.367674e+07
6.331982e+07
7.172154e+07
7.94914e+07
8.606754e+07
9.147237e+07
9.548293e+07
9.810979e+07
9.939643e+07
9.940507e+07
9.813706e+07
9.553107e+07
9.154147e+07
8.615373e+07
7.958555e+07
7.181617e+07
6.340363e+07
5.374391e+07
4.362893e+07
3.224979e+07
2.373665e+07
1.273503e+07
5266569
4528671
1.095312e+07
1.800608e+07
2.977632e+07
4.234426e+07
5.367144e+07
6.456222e+07
7.412342e+07
8.329947e+07
9.161465e+07
9.863273e+07
1.043663e+08
1.087237e+08
1.116413e+08
1.130314e+08
1.130436e+08
1.116775e+08
1.087836e+08
1.04448e+08
9.873095e+07
9.17205e+07
8.340695e+07
7.422209e+07
6.464491e+07
5.373639e+07
4.239001e+07
2.980662e+07
1.802744e+07
1.096821e+07
4534270
6953203
1.507701e+07
2.670766e+07
3.594394e+07
5.08561e+07
6.330328e+07
7.411273e+07
8.451531e+07
9.424675e+07
1.029296e+08
1.103276e+08
1.163703e+08
1.209465e+08
1.240477e+08
1.256381e+08
1.256519e+08
1.240883e+08
1.210118e+08
1.164558e+08
1.104269e+08
1.030357e+08
9.435681e+07
8.462187e+07
7.420976e+07
6.338514e+07
5.09193e+07
3.598454e+07
2.674299e+07
1.509661e+07
6964887
4490075
1.173928e+07
2.278408e+07
3.249547e+07
4.613544e+07
5.961318e+07
7.168786e+07
8.32749e+07
9.423539e+07
1.043329e+08
1.133352e+08
1.209846e+08
1.272418e+08
1.321137e+08
1.354662e+08
1.371997e+08
1.372114e+08
1.35501e+08
1.32169e+08
1.273125e+08
1.21064e+08
1.134185e+08
1.044205e+08
9.432509e+07
8.336435e+07
7.176984e+07
5.967908e+07
4.618412e+07
3.251969e+07
2.281517e+07
1.175556e+07
4501485
6519647
1.432909e+07
2.631584e+07
4.020429e+07
5.342519e+07
6.675261e+07
7.943114e+07
9.157248e+07
1.029089e+08
1.13329e+08
1.225355e+08
1.305134e+08
1.370735e+08
1.421336e+08
1.455693e+08
1.473167e+08
1.473237e+08
1.455888e+08
1.421627e+08
1.371088e+08
1.305503e+08
1.225715e+08
1.13366e+08
1.029503e+08
9.162594e+07
7.949348e+07
6.680879e+07
5.347298e+07
4.022948e+07
2.633691e+07
1.434537e+07
6531655
7556117
1.689386e+07
2.982326e+07
4.521397e+07
5.940349e+07
7.268256e+07
8.598282e+07
9.857651e+07
1.103011e+08
1.209766e+08
1.30512e+08
1.387846e+08
1.455146e+08
1.506112e+08
1.540256e+08
1.557394e+08
1.557379e+08
1.540217e+08
1.506053e+08
1.455057e+08
1.387701e+08
1.304916e+08
1.20956e+08
1.102942e+08
9.859842e+07
8.603394e+07
7.273939e+07
5.945751e+07
4.524197e+07
2.983756e+07
1.690602e+07
7562181
8966980
2.247087e+07
3.312671e+07
4.90173e+07
6.349278e+07
7.762492e+07
9.136203e+07
1.042921e+08
1.163364e+08
1.272302e+08
1.370704e+08
1.455146e+08
1.522991e+08
1.573708e+08
1.607372e+08
1.624151e+08
1.624091e+08
1.607196e+08
1.573426e+08
1.522629e+08
1.454729e+08
1.370262e+08
1.271904e+08
1.163133e+08
1.043055e+08
9.141405e+07
7.768982e+07
6.355366e+07
4.905266e+07
3.313812e+07
2.246655e+07
8970850
4709188
1.284606e+07
2.470744e+07
3.851969e+07
5.219399e+07
6.654287e+07
8.123873e+07
9.534834e+07
1.086256e+08
1.208958e+08
1.320928e+08
1.421241e+08
1.506064e+08
1.573647e+08
1.623869e+08
1.657137e+08
1.673726e+08
1.673715e+08
1.657086e+08
1.623722e+08
1.573336e+08
1.505602e+08
1.42067e+08
1.320344e+08
1.208556e+08
1.086271e+08
9.539023e+07
8.129662e+07
6.659618e+07
5.222618e+07
3.853133e+07
2.470643e+07
1.285615e+07
4712697
6065810
1.35059e+07
2.552278e+07
4.054487e+07
5.413016e+07
6.85101e+07
8.354595e+07
9.795614e+07
1.115191e+08
1.239738e+08
1.354301e+08
1.455517e+08
1.540114e+08
1.607089e+08
1.656845e+08
1.689845e+08
1.706353e+08
1.706463e+08
1.690118e+08
1.657134e+08
1.607165e+08
1.539797e+08
1.454901e+08
1.353588e+08
1.2392e+08
1.115062e+08
9.798099e+07
8.358637e+07
6.85466e+07
5.415333e+07
4.055534e+07
2.55268e+07
1.351616e+07
6077624
6280026
1.374659e+07
2.591275e+07
4.134643e+07
5.502634e+07
6.946858e+07
8.467252e+07
9.923033e+07
1.128865e+08
1.255369e+08
1.371424e+08
1.472887e+08
1.557248e+08
1.623915e+08
1.673359e+08
1.706103e+08
1.722506e+08
1.722667e+08
1.70651e+08
1.673794e+08
1.624122e+08
1.557058e+08
1.472343e+08
1.370735e+08
1.254813e+08
1.128647e+08
9.923905e+07
8.469276e+07
6.948556e+07
5.503626e+07
4.135314e+07
2.592346e+07
1.37584e+07
6290307
6279987
1.374924e+07
2.592116e+07
4.135276e+07
5.503462e+07
6.947894e+07
8.468249e+07
9.923517e+07
1.128821e+08
1.255248e+08
1.371295e+08
1.472803e+08
1.557238e+08
1.623986e+08
1.673467e+08
1.706204e+08
1.722575e+08
1.722698e+08
1.706512e+08
1.673783e+08
1.624109e+08
1.557041e+08
1.47231e+08
1.370673e+08
1.254716e+08
1.128526e+08
9.922714e+07
8.468211e+07
6.947676e+07
5.503074e+07
4.135051e+07
2.592437e+07
1.375884e+07
6290578
6072614
1.35136e+07
2.553248e+07
4.055803e+07
5.41523e+07
6.853966e+07
8.357489e+07
9.797273e+07
1.115115e+08
1.23945e+08
1.353985e+08
1.455301e+08
1.540057e+08
1.607234e+08
1.657073e+08
1.690044e+08
1.706492e+08
1.706536e+08
1.690143e+08
1.657127e+08
1.607122e+08
1.539696e+08
1.454721e+08
1.353317e+08
1.238849e+08
1.114673e+08
9.794368e+07
8.355198e+07
6.851797e+07
5.413627e+07
4.054794e+07
2.55299e+07
1.351832e+07
6079484
4721902
1.285046e+07
2.471102e+07
3.853538e+07
5.2225e+07
6.658853e+07
8.128484e+07
9.538022e+07
1.086255e+08
1.208676e+08
1.320594e+08
1.420998e+08
1.505946e+08
1.573682e+08
1.62406e+08
1.657393e+08
1.673959e+08
1.673873e+08
1.657142e+08
1.623649e+08
1.573111e+08
1.505214e+08
1.420135e+08
1.3197e+08
1.207855e+08
1.085565e+08
9.532465e+07
8.12374e+07
6.654663e+07
5.219835e+07
3.851999e+07
2.470758e+07
1.285228e+07
4724098
8975761
2.246739e+07
3.314548e+07
4.905465e+07
6.355134e+07
7.768516e+07
9.141189e+07
1.043089e+08
1.163261e+08
1.27214e+08
1.370598e+08
1.455177e+08
1.523187e+08
1.574031e+08
1.607726e+08
1.62441e+08
1.624163e+08
1.607032e+08
1.572997e+08
1.521949e+08
1.453855e+08
1.369272e+08
1.270872e+08
1.16212e+08
1.042109e+08
9.132853e+07
7.761544e+07
6.349103e+07
4.90194e+07
3.312659e+07
2.246689e+07
8971928
7561423
1.690744e+07
2.984705e+07
4.524989e+07
5.946693e+07
7.274978e+07
8.604809e+07
9.861615e+07
1.103198e+08
1.209886e+08
1.305275e+08
1.388087e+08
1.45544e+08
1.506368e+08
1.54035e+08
1.557206e+08
1.556853e+08
1.539348e+08
1.504869e+08
1.453649e+08
1.386206e+08
1.303459e+08
1.208224e+08
1.101741e+08
9.849146e+07
8.594223e+07
7.266575e+07
5.939436e+07
4.521033e+07
2.982346e+07
1.689433e+07
7555417
6530191
1.434634e+07
2.634729e+07
4.023551e+07
5.347905e+07
6.681917e+07
7.950164e+07
9.162753e+07
1.029467e+08
1.133556e+08
1.225526e+08
1.305216e+08
1.370677e+08
1.421039e+08
1.455053e+08
1.472107e+08
1.471764e+08
1.45407e+08
1.419551e+08
1.36887e+08
1.303279e+08
1.22361e+08
1.131763e+08
1.027886e+08
9.149211e+07
7.938841e+07
6.673324e+07
5.34112e+07
4.019869e+07
2.631541e+07
1.432934e+07
6520804
4498269
1.175326e+07
2.282162e+07
3.251712e+07
4.616879e+07
5.966366e+07
7.174171e+07
8.331669e+07
9.42592e+07
1.043367e+08
1.133163e+08
1.209429e+08
1.27173e+08
1.320094e+08
1.353199e+08
1.370092e+08
1.369837e+08
1.352465e+08
1.318971e+08
1.270354e+08
1.207939e+08
1.131665e+08
1.041936e+08
9.413079e+07
8.320506e+07
7.164783e+07
5.959476e+07
4.611948e+07
3.249245e+07
2.277822e+07
1.17394e+07
4490442
6958974
1.508565e+07
2.673721e+07
3.595529e+07
5.08914e+07
6.333832e+07
7.413748e+07
8.452041e+07
9.422502e+07
1.028743e+08
1.102374e+08
1.162427e+08
1.207774e+08
1.238364e+08
1.253878e+08
1.253731e+08
1.23793e+08
1.207094e+08
1.161571e+08
1.101421e+08
1.027754e+08
9.412811e+07
8.443219e+07
7.406028e+07
6.327447e+07
5.084287e+07
3.593021e+07
2.670882e+07
1.506989e+07
6950571
4527655
1.096245e+07
1.801746e+07
2.980849e+07
4.237604e+07
5.3695e+07
6.457329e+07
7.411379e+07
8.325992e+07
9.153468e+07
9.851003e+07
1.041992e+08
1.08515e+08
1.113968e+08
1.127583e+08
1.127525e+08
1.113795e+08
1.084868e+08
1.041616e+08
9.846449e+07
9.148466e+07
8.320823e+07
7.406471e+07
6.452735e+07
5.365258e+07
4.233713e+07
2.977712e+07
1.79992e+07
1.095182e+07
4529802
5257118
1.273436e+07
2.374622e+07
3.223777e+07
4.359147e+07
5.367523e+07
6.329981e+07
7.167183e+07
7.939745e+07
8.593053e+07
9.129286e+07
9.526637e+07
9.786541e+07
9.913276e+07
9.913278e+07
9.786696e+07
9.526768e+07
9.12918e+07
8.592696e+07
7.939137e+07
7.165979e+07
6.328321e+07
5.365818e+07
4.357325e+07
3.22218e+07
2.371948e+07
1.272187e+07
5257857
5805512
1.437435e+07
2.506139e+07
3.222116e+07
4.234512e+07
5.084541e+07
5.959115e+07
6.671742e+07
7.263697e+07
7.757052e+07
8.117654e+07
8.347784e+07
8.459707e+07
8.459934e+07
8.348969e+07
8.11964e+07
7.759401e+07
7.266099e+07
6.673907e+07
5.960262e+07
5.084758e+07
4.234555e+07
3.221829e+07
2.505145e+07
1.436898e+07
5804227
6107224
1.436758e+07
2.373262e+07
2.977961e+07
3.592794e+07
4.611226e+07
5.339554e+07
5.936758e+07
6.345065e+07
6.649437e+07
6.845857e+07
6.941537e+07
6.941609e+07
6.847218e+07
6.651824e+07
6.348053e+07
5.940102e+07
5.342183e+07
4.612494e+07
3.592615e+07
2.978488e+07
2.373474e+07
1.43697e+07
6107939
5799154
1.271583e+07
1.799926e+07
2.670398e+07
3.246795e+07
4.017344e+07
4.517977e+07
4.898465e+07
5.215945e+07
5.40947e+07
5.498374e+07
5.498177e+07
5.409934e+07
5.216961e+07
4.899903e+07
4.52015e+07
4.019725e+07
3.249105e+07
2.671322e+07
1.800139e+07
1.272473e+07
5801554
5249601
1.094385e+07
1.506468e+07
2.277559e+07
2.629908e+07
2.979595e+07
3.310038e+07
3.849093e+07
4.051678e+07
4.131314e+07
4.131181e+07
4.051981e+07
3.849814e+07
3.310769e+07
2.981684e+07
2.63262e+07
2.279284e+07
1.506417e+07
1.094756e+07
5249820
4517342
6944705
1.172675e+07
1.43126e+07
1.687457e+07
2.244357e+07
2.468465e+07
2.550429e+07
2.589461e+07
2.589055e+07
2.550631e+07
2.469465e+07
2.246245e+07
1.689091e+07
1.432575e+07
1.173387e+07
6943836
4519682
4489644
6510204
7543796
8957430
1.283151e+07
1.349308e+07
1.373313e+07
1.373173e+07
1.34948e+07
1.283801e+07
8961133
7550705
6515900
4479847
4710567
6059195
6270880
6269872
6058592
4703835
3796639
5416786
6576670
7260374
7479411
7489112
7287074
6628876
5466345
3818900
3955287
6621299
8215310
1.208848e+07
1.451611e+07
1.956451e+07
2.092472e+07
2.139823e+07
2.138997e+07
2.091929e+07
1.957308e+07
1.454609e+07
1.213662e+07
8242309
6655179
3973157
5985401
1.266605e+07
1.923362e+07
2.226219e+07
2.526387e+07
2.842244e+07
3.129142e+07
3.609743e+07
3.75559e+07
3.75491e+07
3.609044e+07
3.129813e+07
2.843224e+07
2.530251e+07
2.233295e+07
1.930729e+07
1.271363e+07
6006352
4476646