/*--------------------------------*- C++ -*----------------------------------*\
  =========                 |
  \\      /  F ield         | OpenFOAM: The Open Source CFD Toolbox
   \\    /   O peration     | Website:  https://openfoam.org
    \\  /    A nd           | Version:  6
     \\/     M anipulation  |
\*---------------------------------------------------------------------------*/
FoamFile
{
    version     2.0;
    format      ascii;
    class       volScalarField;
    location    "50/region0/neutronTransport";
    object      flux3;
}
// * * * * * * * * * * * * * * * * * * * * * * * * * * * * * * * * * * * * * //

dimensions      [0 -2 -1 0 0 0 0];

internalField   nonuniform List<scalar> 
203709
(
5.550641e+13
6.38769e+13
6.386574e+13
5.551951e+13
5.834616e+13
6.834909e+13
9.365002e+13
9.160053e+13
9.158332e+13
9.363484e+13
6.833098e+13
5.832986e+13
5.688931e+13
6.868818e+13
9.464183e+13
9.299141e+13
9.589676e+13
9.656512e+13
9.655597e+13
9.587366e+13
9.295293e+13
9.45887e+13
6.863672e+13
5.683626e+13
5.690139e+13
9.205123e+13
9.270674e+13
9.642435e+13
9.828803e+13
1.000333e+14
1.00785e+14
1.007803e+14
1.000013e+14
9.823631e+13
9.63575e+13
9.262386e+13
9.195666e+13
5.682956e+13
6.870045e+13
9.271249e+13
9.699456e+13
1.000007e+14
1.023224e+14
1.040158e+14
1.048502e+14
1.048428e+14
1.039769e+14
1.022632e+14
9.992531e+13
9.689984e+13
9.260326e+13
6.860363e+13
5.836546e+13
9.46592e+13
9.643821e+13
1.000018e+14
1.031677e+14
1.056732e+14
1.074137e+14
1.082653e+14
1.082546e+14
1.073817e+14
1.05627e+14
1.030968e+14
9.991119e+13
9.633306e+13
9.454067e+13
5.827469e+13
6.836127e+13
9.300497e+13
9.829535e+13
1.023106e+14
1.05661e+14
1.082716e+14
1.09998e+14
1.107941e+14
1.107868e+14
1.099815e+14
1.082359e+14
1.056088e+14
1.022426e+14
9.820335e+13
9.289127e+13
6.826433e+13
5.553448e+13
9.368099e+13
9.59281e+13
1.000558e+14
1.040249e+14
1.074103e+14
1.099963e+14
1.115598e+14
1.123389e+14
1.123383e+14
1.115564e+14
1.099732e+14
1.07372e+14
1.03962e+14
9.996362e+13
9.581329e+13
9.355796e+13
5.542875e+13
6.387942e+13
9.161553e+13
9.659389e+13
1.008252e+14
1.048803e+14
1.08281e+14
1.108073e+14
1.123495e+14
1.13221e+14
1.13187e+14
1.12343e+14
1.107955e+14
1.082548e+14
1.048231e+14
1.007361e+14
9.649028e+13
9.149509e+13
6.377635e+13
6.388933e+13
9.163975e+13
9.660461e+13
1.008264e+14
1.048871e+14
1.082949e+14
1.10818e+14
1.123627e+14
1.132622e+14
1.132248e+14
1.123566e+14
1.108059e+14
1.082631e+14
1.048372e+14
1.0075e+14
9.650196e+13
9.151874e+13
6.37969e+13
5.55169e+13
9.370035e+13
9.594082e+13
1.000742e+14
1.040553e+14
1.074519e+14
1.100402e+14
1.116069e+14
1.123889e+14
1.123747e+14
1.115917e+14
1.10017e+14
1.074119e+14
1.039991e+14
9.999662e+13
9.58407e+13
9.357087e+13
5.544693e+13
6.836243e+13
9.302335e+13
9.833092e+13
1.023683e+14
1.057264e+14
1.08337e+14
1.100615e+14
1.108643e+14
1.108429e+14
1.100394e+14
1.08294e+14
1.056686e+14
1.022932e+14
9.824066e+13
9.292615e+13
6.828644e+13
5.837317e+13
9.468969e+13
9.647496e+13
1.000557e+14
1.0323e+14
1.057478e+14
1.074821e+14
1.083451e+14
1.083242e+14
1.074534e+14
1.056912e+14
1.031594e+14
9.997151e+13
9.638169e+13
9.458467e+13
5.829964e+13
6.872641e+13
9.275717e+13
9.705371e+13
1.000708e+14
1.023971e+14
1.040942e+14
1.049849e+14
1.049659e+14
1.040497e+14
1.023311e+14
9.998762e+13
9.696101e+13
9.266843e+13
6.865088e+13
5.6932e+13
9.211712e+13
9.276541e+13
9.649208e+13
9.835031e+13
1.000963e+14
1.008959e+14
1.00882e+14
1.000572e+14
9.829128e+13
9.641202e+13
9.267094e+13
9.2015e+13
5.685096e+13
5.692353e+13
6.872259e+13
9.469376e+13
9.302343e+13
9.593864e+13
9.662761e+13
9.662916e+13
9.59139e+13
9.299146e+13
9.463442e+13
6.865566e+13
5.68597e+13
5.835931e+13
6.83533e+13
9.367937e+13
9.166551e+13
9.167987e+13
9.366705e+13
6.833718e+13
5.833444e+13
5.550779e+13
6.386573e+13
6.387296e+13
5.550944e+13
4.619621e+13
5.50105e+13
5.747238e+13
5.914134e+13
6.019161e+13
6.018979e+13
5.913736e+13
5.74669e+13
5.500669e+13
4.619968e+13
4.73351e+13
5.78877e+13
8.176291e+13
8.373052e+13
8.696771e+13
9.113751e+13
9.448501e+13
9.448277e+13
9.113907e+13
8.69479e+13
8.368227e+13
8.169362e+13
5.783148e+13
4.728795e+13
4.832431e+13
8.012659e+13
8.385438e+13
9.09599e+13
9.841905e+13
1.048066e+14
1.158143e+14
1.241327e+14
1.241276e+14
1.158072e+14
1.047631e+14
9.835299e+13
9.089942e+13
8.378699e+13
8.0063e+13
4.828676e+13
4.879681e+13
8.151884e+13
8.866207e+13
9.78849e+13
1.078592e+14
1.259414e+14
1.49874e+14
1.865499e+14
1.96377e+14
1.963647e+14
1.864921e+14
1.498184e+14
1.258903e+14
1.078094e+14
9.782259e+13
8.858866e+13
8.142145e+13
4.874876e+13
4.831883e+13
8.150703e+13
8.96246e+13
1.004888e+14
1.230601e+14
1.522384e+14
1.973644e+14
2.228828e+14
2.420256e+14
2.718322e+14
2.718105e+14
2.419823e+14
2.228083e+14
1.972538e+14
1.521585e+14
1.229641e+14
1.004064e+14
8.952014e+13
8.138765e+13
4.825517e+13
4.733451e+13
8.014328e+13
8.866722e+13
1.005045e+14
1.334767e+14
1.905126e+14
2.226437e+14
2.492934e+14
2.915359e+14
3.101554e+14
3.211915e+14
3.211634e+14
3.10076e+14
2.914098e+14
2.491428e+14
2.224649e+14
1.902981e+14
1.333118e+14
1.003517e+14
8.852081e+13
8.000014e+13
4.725512e+13
5.786032e+13
8.384528e+13
9.78896e+13
1.230791e+14
1.905218e+14
2.365213e+14
2.866861e+14
3.138736e+14
3.350896e+14
3.4806e+14
3.546599e+14
3.54624e+14
3.479549e+14
3.349277e+14
3.136566e+14
2.864171e+14
2.36236e+14
1.902445e+14
1.228693e+14
9.772062e+13
8.369243e+13
5.775383e+13
4.620265e+13
8.173628e+13
9.094303e+13
1.078718e+14
1.522575e+14
2.227036e+14
2.86717e+14
3.237739e+14
3.472098e+14
3.63268e+14
3.733822e+14
3.783476e+14
3.783084e+14
3.732639e+14
3.630826e+14
3.469598e+14
3.234664e+14
2.863791e+14
2.223949e+14
1.520337e+14
1.076999e+14
9.077092e+13
8.156438e+13
4.609218e+13
5.501019e+13
8.373442e+13
9.840646e+13
1.259798e+14
1.974574e+14
2.493939e+14
3.139428e+14
3.472409e+14
3.682669e+14
3.822684e+14
3.910453e+14
3.952935e+14
3.952556e+14
3.909335e+14
3.820895e+14
3.680168e+14
3.469249e+14
3.135828e+14
2.490499e+14
1.971508e+14
1.257424e+14
9.822275e+13
8.355683e+13
5.488015e+13
5.746877e+13
8.69852e+13
1.048001e+14
1.49885e+14
2.230064e+14
2.916638e+14
3.351873e+14
3.633235e+14
3.822925e+14
3.951623e+14
4.032726e+14
4.072185e+14
4.071872e+14
4.031812e+14
3.950063e+14
3.820691e+14
3.630301e+14
3.348299e+14
2.912674e+14
2.226138e+14
1.496518e+14
1.046299e+14
8.679778e+13
5.733636e+13
5.913382e+13
9.116216e+13
1.158559e+14
1.866396e+14
2.42177e+14
3.103252e+14
3.482017e+14
3.734856e+14
3.911129e+14
4.033093e+14
4.110207e+14
4.147892e+14
4.147633e+14
4.109509e+14
4.031828e+14
3.90924e+14
3.732238e+14
3.478658e+14
3.099368e+14
2.417989e+14
1.86347e+14
1.156377e+14
9.097125e+13
5.900938e+13
6.017716e+13
9.448683e+13
1.241533e+14
1.964826e+14
2.720064e+14
3.213942e+14
3.548574e+14
3.785225e+14
3.95436e+14
4.073231e+14
4.148508e+14
4.185507e+14
4.185099e+14
4.147819e+14
4.072118e+14
3.952677e+14
3.782842e+14
3.545482e+14
3.210349e+14
2.716389e+14
1.961925e+14
1.239538e+14
9.431831e+13
6.005951e+13
6.016857e+13
9.446538e+13
1.241251e+14
1.964588e+14
2.720056e+14
3.21408e+14
3.548818e+14
3.785588e+14
3.954823e+14
4.07373e+14
4.149075e+14
4.186234e+14
4.185801e+14
4.148394e+14
4.072664e+14
3.953218e+14
3.783383e+14
3.546012e+14
3.210868e+14
2.716809e+14
1.961934e+14
1.239401e+14
9.430712e+13
6.005283e+13
5.911345e+13
9.113953e+13
1.158534e+14
1.866525e+14
2.421628e+14
3.103576e+14
3.482737e+14
3.735937e+14
3.912507e+14
4.034612e+14
4.111833e+14
4.149633e+14
4.149294e+14
4.111113e+14
4.033468e+14
3.910882e+14
3.733832e+14
3.480184e+14
3.100796e+14
2.419148e+14
1.864157e+14
1.156842e+14
9.099277e+13
5.9002e+13
5.745946e+13
8.698832e+13
1.048344e+14
1.499226e+14
2.230209e+14
2.917291e+14
3.353037e+14
3.634893e+14
3.824983e+14
3.953939e+14
4.035212e+14
4.074844e+14
4.074474e+14
4.034399e+14
3.952623e+14
3.823212e+14
3.632749e+14
3.350608e+14
2.914763e+14
2.22806e+14
1.497114e+14
1.046591e+14
8.684822e+13
5.735283e+13
5.501499e+13
8.376022e+13
9.845149e+13
1.26e+14
1.975355e+14
2.495022e+14
3.141016e+14
3.474463e+14
3.685157e+14
3.825577e+14
3.913597e+14
3.956252e+14
3.955858e+14
3.912685e+14
3.824132e+14
3.68327e+14
3.47226e+14
3.138607e+14
2.492559e+14
1.973021e+14
1.258398e+14
9.828267e+13
8.361659e+13
5.491087e+13
4.62116e+13
8.178382e+13
9.099363e+13
1.07913e+14
1.523535e+14
2.228408e+14
2.869131e+14
3.240148e+14
3.47494e+14
3.63589e+14
3.737319e+14
3.786951e+14
3.786583e+14
3.736359e+14
3.634419e+14
3.47304e+14
3.237966e+14
2.866779e+14
2.226044e+14
1.521476e+14
1.077635e+14
9.083519e+13
8.163094e+13
4.612612e+13
5.791076e+13
8.389049e+13
9.793612e+13
1.231478e+14
1.906688e+14
2.367114e+14
2.869322e+14
3.141649e+14
3.354114e+14
3.484081e+14
3.549862e+14
3.549585e+14
3.483272e+14
3.352863e+14
3.140019e+14
2.867495e+14
2.365234e+14
1.90467e+14
1.229842e+14
9.780553e+13
8.375016e+13
5.778076e+13
4.737289e+13
8.017264e+13
8.870873e+13
1.00552e+14
1.335612e+14
1.906599e+14
2.228528e+14
2.495537e+14
2.918273e+14
3.104811e+14
3.21503e+14
3.214937e+14
3.104299e+14
2.917425e+14
2.494388e+14
2.227386e+14
1.905392e+14
1.334303e+14
1.004318e+14
8.860049e+13
8.005638e+13
4.725906e+13
4.835441e+13
8.157568e+13
8.968116e+13
1.005313e+14
1.231091e+14
1.523278e+14
1.975659e+14
2.231048e+14
2.422648e+14
2.720735e+14
2.720814e+14
2.422493e+14
2.230553e+14
1.97483e+14
1.522639e+14
1.230443e+14
1.004564e+14
8.959444e+13
8.148285e+13
4.827349e+13
4.882961e+13
8.156011e+13
8.869162e+13
9.792132e+13
1.078987e+14
1.259609e+14
1.499182e+14
1.867104e+14
1.965367e+14
1.965406e+14
1.866866e+14
1.498984e+14
1.259592e+14
1.078616e+14
9.787343e+13
8.863982e+13
8.150313e+13
4.878163e+13
4.832247e+13
8.015526e+13
8.386311e+13
9.09491e+13
9.839792e+13
1.048184e+14
1.158621e+14
1.241687e+14
1.241709e+14
1.158636e+14
1.04806e+14
9.841261e+13
9.096578e+13
8.385766e+13
8.013032e+13
4.830148e+13
4.734755e+13
5.787698e+13
8.175523e+13
8.374496e+13
8.6996e+13
9.116988e+13
9.452377e+13
9.453148e+13
9.1185e+13
8.700679e+13
8.375495e+13
8.179357e+13
5.789922e+13
4.735223e+13
4.618859e+13
5.499892e+13
5.745696e+13
5.912713e+13
6.018801e+13
6.019354e+13
5.915807e+13
5.749772e+13
5.503852e+13
4.621377e+13
3.892302e+13
4.631037e+13
4.780538e+13
4.834337e+13
4.832999e+13
4.776576e+13
4.623759e+13
3.887281e+13
3.890191e+13
4.935325e+13
5.486543e+13
7.687338e+13
7.947887e+13
8.115374e+13
8.190221e+13
8.188497e+13
8.110022e+13
7.939455e+13
7.681876e+13
5.484388e+13
4.934091e+13
3.891961e+13
4.323934e+13
7.410266e+13
8.164151e+13
9.367012e+13
1.058386e+14
1.109554e+14
1.140497e+14
1.154607e+14
1.154408e+14
1.139917e+14
1.108662e+14
1.057376e+14
9.359439e+13
8.157477e+13
7.404407e+13
4.324014e+13
4.042572e+13
5.313257e+13
7.992559e+13
1.005848e+14
1.25173e+14
1.642264e+14
1.790696e+14
1.86739e+14
1.916825e+14
1.941969e+14
1.941605e+14
1.91578e+14
1.865771e+14
1.788655e+14
1.640106e+14
1.250261e+14
1.004867e+14
7.98065e+13
5.306066e+13
4.035536e+13
4.074143e+13
7.199582e+13
8.510107e+13
1.159078e+14
1.676626e+14
1.979231e+14
2.232828e+14
2.625135e+14
2.803243e+14
2.907117e+14
2.957735e+14
2.957283e+14
2.905859e+14
2.801364e+14
2.622917e+14
2.230828e+14
1.977149e+14
1.674325e+14
1.157161e+14
8.496821e+13
7.183105e+13
4.064663e+13
4.042727e+13
7.201569e+13
8.83638e+13
1.213657e+14
1.822307e+14
2.208333e+14
2.712353e+14
3.032496e+14
3.311051e+14
3.518847e+14
3.664724e+14
3.73572e+14
3.735228e+14
3.663401e+14
3.51664e+14
3.308156e+14
3.029258e+14
2.708785e+14
2.204868e+14
1.819098e+14
1.211604e+14
8.816625e+13
7.181523e+13
4.03202e+13
5.315389e+13
8.511461e+13
1.213775e+14
1.853952e+14
2.290881e+14
2.88477e+14
3.314066e+14
3.663329e+14
3.968165e+14
4.218636e+14
4.416466e+14
4.493971e+14
4.49343e+14
4.41485e+14
4.216132e+14
3.965044e+14
3.659776e+14
3.310038e+14
2.880565e+14
2.286828e+14
1.849914e+14
1.211142e+14
8.491587e+13
5.301629e+13
4.329008e+13
7.991917e+13
1.15887e+14
1.822645e+14
2.290789e+14
2.936429e+14
3.447107e+14
3.898581e+14
4.290973e+14
4.641603e+14
4.89522e+14
5.077453e+14
5.181163e+14
5.180617e+14
5.07584e+14
4.892642e+14
4.638195e+14
4.286923e+14
3.893969e+14
3.442359e+14
2.93157e+14
2.286427e+14
1.818632e+14
1.156312e+14
7.971944e+13
4.316032e+13
3.89142e+13
7.411633e+13
1.005793e+14
1.676514e+14
2.20895e+14
2.885404e+14
3.447525e+14
3.986963e+14
4.493668e+14
4.895051e+14
5.226633e+14
5.500998e+14
5.693614e+14
5.797534e+14
5.796942e+14
5.691873e+14
5.498203e+14
5.222872e+14
4.890357e+14
4.488237e+14
3.981293e+14
3.441696e+14
2.879787e+14
2.204056e+14
1.67216e+14
1.003506e+14
7.391403e+13
3.878561e+13
4.937332e+13
8.164387e+13
1.251393e+14
1.979735e+14
2.712944e+14
3.31497e+14
3.899231e+14
4.493991e+14
4.990627e+14
5.420889e+14
5.766526e+14
6.034145e+14
6.213446e+14
6.304746e+14
6.304073e+14
6.211496e+14
6.031024e+14
5.762285e+14
5.415594e+14
4.9845e+14
4.487365e+14
3.892492e+14
3.308543e+14
2.707076e+14
1.974532e+14
1.248549e+14
8.144209e+13
4.921916e+13
5.486271e+13
9.363494e+13
1.641394e+14
2.233719e+14
3.033343e+14
3.664519e+14
4.291969e+14
4.89598e+14
5.421451e+14
5.864988e+14
6.206701e+14
6.457649e+14
6.622305e+14
6.704091e+14
6.703367e+14
6.620186e+14
6.454244e+14
6.202098e+14
5.859289e+14
5.414878e+14
4.888874e+14
4.284804e+14
3.657645e+14
3.027116e+14
2.228322e+14
1.638231e+14
9.343264e+13
5.471168e+13
3.89197e+13
7.686668e+13
1.05771e+14
1.790045e+14
2.625912e+14
3.312193e+14
3.969709e+14
4.643419e+14
5.22839e+14
5.76781e+14
6.207348e+14
6.538993e+14
6.777064e+14
6.931328e+14
7.007128e+14
7.006425e+14
6.929261e+14
6.773709e+14
6.53439e+14
6.20157e+14
5.761064e+14
5.221036e+14
4.635907e+14
3.962488e+14
3.305707e+14
2.620245e+14
1.786732e+14
1.055623e+14
7.664409e+13
3.879812e+13
4.626698e+13
7.944034e+13
1.109206e+14
1.867326e+14
2.804214e+14
3.520356e+14
4.220432e+14
4.897609e+14
5.503432e+14
6.036124e+14
6.458949e+14
6.777689e+14
7.005937e+14
7.153536e+14
7.226014e+14
7.225415e+14
7.15176e+14
7.002988e+14
6.773526e+14
6.453532e+14
6.029569e+14
5.496073e+14
4.88999e+14
4.213388e+14
3.513825e+14
2.798535e+14
1.863656e+14
1.10679e+14
7.92433e+13
4.614632e+13
4.778673e+13
8.113613e+13
1.140396e+14
1.917364e+14
2.908548e+14
3.666822e+14
4.419017e+14
5.080502e+14
5.696813e+14
6.216283e+14
6.62449e+14
6.932761e+14
7.15427e+14
7.297666e+14
7.36813e+14
7.367662e+14
7.296289e+14
7.151895e+14
6.929247e+14
6.619633e+14
6.210142e+14
5.689748e+14
5.073125e+14
4.41197e+14
3.660229e+14
2.902865e+14
1.913397e+14
1.13786e+14
8.093078e+13
4.764916e+13
4.835272e+13
8.192519e+13
1.154905e+14
1.943126e+14
2.959722e+14
3.738239e+14
4.497101e+14
5.184852e+14
5.801531e+14
6.308626e+14
6.707542e+14
7.009912e+14
7.227975e+14
7.369218e+14
7.438653e+14
7.438195e+14
7.367984e+14
7.225854e+14
7.00672e+14
6.703114e+14
6.302983e+14
5.794988e+14
5.177936e+14
4.490362e+14
3.731942e+14
2.95411e+14
1.938981e+14
1.152172e+14
8.169792e+13
4.820363e+13
4.83572e+13
8.1933e+13
1.155013e+14
1.943353e+14
2.959892e+14
3.738323e+14
4.497179e+14
5.184982e+14
5.801804e+14
6.309088e+14
6.708216e+14
7.010762e+14
7.22892e+14
7.370222e+14
7.439705e+14
7.439228e+14
7.368974e+14
7.226838e+14
7.007711e+14
6.704101e+14
6.303942e+14
5.795884e+14
5.17868e+14
4.490874e+14
3.732345e+14
2.954426e+14
1.939123e+14
1.152196e+14
8.169826e+13
4.820488e+13
4.780993e+13
8.117193e+13
1.140789e+14
1.91805e+14
2.909074e+14
3.66735e+14
4.419649e+14
5.081062e+14
5.69768e+14
6.217661e+14
6.626445e+14
6.935231e+14
7.157005e+14
7.300533e+14
7.371074e+14
7.370582e+14
7.299188e+14
7.154818e+14
6.932183e+14
6.622527e+14
6.212926e+14
5.692327e+14
5.075343e+14
4.413735e+14
3.661698e+14
2.903771e+14
1.913641e+14
1.137908e+14
8.093334e+13
4.765462e+13
4.631714e+13
7.950061e+13
1.109835e+14
1.868514e+14
2.805126e+14
3.52142e+14
4.221726e+14
4.898903e+14
5.505074e+14
6.038399e+14
6.461948e+14
6.781361e+14
7.010089e+14
7.157979e+14
7.230636e+14
7.230081e+14
7.156453e+14
7.00767e+14
6.778152e+14
6.45805e+14
6.03389e+14
5.500072e+14
4.893555e+14
4.216135e+14
3.516035e+14
2.799984e+14
1.86382e+14
1.106878e+14
7.926017e+13
4.616124e+13
3.897321e+13
7.692194e+13
1.058811e+14
1.79192e+14
2.627157e+14
3.313794e+14
3.971338e+14
4.64547e+14
5.23091e+14
5.770985e+14
6.211269e+14
6.543659e+14
6.782359e+14
6.937033e+14
7.01303e+14
7.012413e+14
6.935328e+14
6.779712e+14
6.54026e+14
6.207295e+14
5.766545e+14
5.226084e+14
4.640466e+14
3.9664e+14
3.308749e+14
2.622399e+14
1.787035e+14
1.055868e+14
7.669929e+13
3.883783e+13
5.491245e+13
9.374244e+13
1.643636e+14
2.234881e+14
3.035372e+14
3.666505e+14
4.294621e+14
4.899265e+14
5.425404e+14
5.869662e+14
6.212097e+14
6.463637e+14
6.628669e+14
6.710495e+14
6.709885e+14
6.626952e+14
6.460991e+14
6.208736e+14
5.865792e+14
5.421141e+14
4.894707e+14
4.290116e+14
3.662076e+14
3.030676e+14
2.231122e+14
1.638929e+14
9.346803e+13
5.474585e+13
4.939252e+13
8.172037e+13
1.252891e+14
1.9813e+14
2.715258e+14
3.317178e+14
3.901987e+14
4.497564e+14
4.994837e+14
5.425815e+14
5.772171e+14
6.040305e+14
6.219902e+14
6.311111e+14
6.310613e+14
6.218459e+14
6.038062e+14
5.769327e+14
5.422581e+14
4.991265e+14
4.493687e+14
3.898166e+14
3.313235e+14
2.710977e+14
1.978086e+14
1.249628e+14
8.149798e+13
4.926636e+13
3.891067e+13
7.420128e+13
1.007002e+14
1.678151e+14
2.210946e+14
2.887553e+14
3.450131e+14
3.990283e+14
4.497624e+14
4.899755e+14
5.232115e+14
5.506933e+14
5.699852e+14
5.803763e+14
5.803465e+14
5.698881e+14
5.505355e+14
5.230094e+14
4.897536e+14
4.495139e+14
3.987514e+14
3.447232e+14
2.884395e+14
2.20741e+14
1.675591e+14
1.004476e+14
7.398564e+13
3.883906e+13
4.32851e+13
7.999991e+13
1.159993e+14
1.823911e+14
2.292838e+14
2.93889e+14
3.450162e+14
3.902078e+14
4.295088e+14
4.646533e+14
4.900591e+14
5.083134e+14
5.186955e+14
5.186863e+14
5.082691e+14
4.89973e+14
4.645378e+14
4.293854e+14
3.900607e+14
3.448409e+14
2.936991e+14
2.290898e+14
1.821973e+14
1.158178e+14
7.982677e+13
4.319592e+13
5.317879e+13
8.518625e+13
1.214769e+14
1.855544e+14
2.292696e+14
2.887658e+14
3.31744e+14
3.667085e+14
3.972174e+14
4.223118e+14
4.42163e+14
4.499518e+14
4.499524e+14
4.421554e+14
4.222956e+14
3.971968e+14
3.666579e+14
3.316701e+14
2.886713e+14
2.291721e+14
1.854289e+14
1.21341e+14
8.505685e+13
5.308189e+13
4.046731e+13
7.20779e+13
8.843391e+13
1.21466e+14
1.824383e+14
2.210986e+14
2.715071e+14
3.035629e+14
3.314534e+14
3.522772e+14
3.669219e+14
3.740587e+14
3.740677e+14
3.669577e+14
3.523145e+14
3.31488e+14
3.03594e+14
2.715392e+14
2.210909e+14
1.823925e+14
1.214061e+14
8.835648e+13
7.198362e+13
4.039842e+13
4.076335e+13
7.207949e+13
8.51915e+13
1.159694e+14
1.677626e+14
1.980632e+14
2.235097e+14
2.627657e+14
2.806011e+14
2.910415e+14
2.961487e+14
2.961599e+14
2.911135e+14
2.807103e+14
2.62876e+14
2.235871e+14
1.981722e+14
1.678484e+14
1.159941e+14
8.516908e+13
7.20351e+13
4.072816e+13
4.046129e+13
5.318842e+13
7.996348e+13
1.006508e+14
1.252042e+14
1.642945e+14
1.791295e+14
1.868141e+14
1.918219e+14
1.944929e+14
1.944814e+14
1.91929e+14
1.869763e+14
1.793027e+14
1.644523e+14
1.253169e+14
1.007074e+14
8.000168e+13
5.317876e+13
4.045325e+13
4.327546e+13
7.415182e+13
8.168179e+13
9.369636e+13
1.058357e+14
1.109528e+14
1.140771e+14
1.155527e+14
1.155329e+14
1.141337e+14
1.110325e+14
1.059238e+14
9.376669e+13
8.172595e+13
7.421339e+13
4.329172e+13
3.889879e+13
4.938636e+13
5.488705e+13
7.690804e+13
7.948057e+13
8.11721e+13
8.201393e+13
8.201231e+13
8.11988e+13
7.951519e+13
7.696345e+13
5.491969e+13
4.94002e+13
3.894089e+13
3.895551e+13
4.630105e+13
4.780468e+13
4.838884e+13
4.838969e+13
4.781383e+13
4.630857e+13
3.894195e+13
3.468075e+13
4.098064e+13
4.21854e+13
4.217116e+13
4.093181e+13
3.465366e+13
3.298089e+13
4.380797e+13
5.011656e+13
5.913816e+13
8.211687e+13
8.611435e+13
8.755763e+13
8.751716e+13
8.600953e+13
8.198589e+13
5.912528e+13
5.013085e+13
4.381396e+13
3.3011e+13
3.32498e+13
4.64552e+13
7.520594e+13
9.129803e+13
1.072595e+14
1.400894e+14
1.540977e+14
1.591913e+14
1.616022e+14
1.615334e+14
1.590146e+14
1.53917e+14
1.399995e+14
1.071909e+14
9.121274e+13
7.51654e+13
4.646627e+13
3.328507e+13
3.771824e+13
7.024139e+13
9.592374e+13
1.422733e+14
1.643195e+14
1.860782e+14
2.065826e+14
2.400706e+14
2.526209e+14
2.57533e+14
2.574564e+14
2.524146e+14
2.398027e+14
2.06328e+14
1.858025e+14
1.640681e+14
1.419801e+14
9.584204e+13
7.016584e+13
3.772277e+13
4.106614e+13
8.137194e+13
1.142562e+14
1.667059e+14
2.027956e+14
2.506471e+14
2.817004e+14
3.052675e+14
3.249321e+14
3.368783e+14
3.423289e+14
3.422462e+14
3.366469e+14
3.24599e+14
3.048946e+14
2.813267e+14
2.502912e+14
2.024678e+14
1.663438e+14
1.140736e+14
8.120004e+13
4.100177e+13
4.309261e+13
9.164253e+13
1.480005e+14
1.858003e+14
2.241473e+14
2.874293e+14
3.326691e+14
3.697968e+14
3.950785e+14
4.138945e+14
4.259754e+14
4.317763e+14
4.316873e+14
4.257219e+14
4.13512e+14
3.946114e+14
3.692794e+14
3.32149e+14
2.869556e+14
2.237181e+14
1.853257e+14
1.475643e+14
9.13606e+13
4.297127e+13
4.10872e+13
9.166259e+13
1.56291e+14
2.01117e+14
2.639721e+14
3.167481e+14
3.710506e+14
4.152274e+14
4.51889e+14
4.824299e+14
5.04726e+14
5.189012e+14
5.257397e+14
5.256483e+14
5.186405e+14
5.043294e+14
4.819374e+14
4.513297e+14
4.146132e+14
3.704056e+14
3.16075e+14
2.633065e+14
2.005118e+14
1.556875e+14
9.134071e+13
4.095827e+13
3.775579e+13
8.139647e+13
1.480789e+14
2.011268e+14
2.716762e+14
3.341921e+14
3.938684e+14
4.456949e+14
4.935369e+14
5.33976e+14
5.67157e+14
5.917226e+14
6.077503e+14
6.155262e+14
6.154356e+14
6.074909e+14
5.913146e+14
5.666296e+14
5.333547e+14
4.92832e+14
4.449282e+14
3.930539e+14
3.333789e+14
2.708951e+14
2.00465e+14
1.475229e+14
8.111792e+13
3.762959e+13
3.329037e+13
7.027613e+13
1.143521e+14
1.858468e+14
2.640216e+14
3.342289e+14
4.016497e+14
4.606578e+14
5.172003e+14
5.683682e+14
6.115039e+14
6.466854e+14
6.733623e+14
6.911548e+14
6.995385e+14
6.994484e+14
6.908918e+14
6.729462e+14
6.461432e+14
6.108532e+14
5.676162e+14
5.163684e+14
4.597589e+14
4.00709e+14
3.333243e+14
2.632043e+14
1.852081e+14
1.139689e+14
7.003158e+13
3.316445e+13
4.650319e+13
9.601896e+13
1.667123e+14
2.242973e+14
3.168341e+14
3.939442e+14
4.607011e+14
5.248379e+14
5.847598e+14
6.381622e+14
6.836201e+14
7.206969e+14
7.487123e+14
7.67627e+14
7.772366e+14
7.771476e+14
7.673651e+14
7.482936e+14
7.20141e+14
6.829391e+14
6.373692e+14
5.838829e+14
5.238928e+14
4.597169e+14
3.929593e+14
3.15929e+14
2.235646e+14
1.661654e+14
9.568713e+13
4.634571e+13
3.303303e+13
7.523325e+13
1.422702e+14
2.02882e+14
2.875997e+14
3.711709e+14
4.458117e+14
5.172973e+14
5.84816e+14
6.469453e+14
7.022898e+14
7.492857e+14
7.87689e+14
8.175432e+14
8.38026e+14
8.485332e+14
8.484413e+14
8.377563e+14
8.171092e+14
7.871045e+14
7.485586e+14
7.014378e+14
6.460003e+14
5.838018e+14
5.162505e+14
4.447662e+14
3.701644e+14
2.867188e+14
2.021386e+14
1.418011e+14
7.496592e+13
3.293759e+13
4.380705e+13
9.131108e+13
1.643278e+14
2.508013e+14
3.328123e+14
4.153655e+14
4.93672e+14
5.685067e+14
6.382709e+14
7.023496e+14
7.589336e+14
8.079573e+14
8.482467e+14
8.792895e+14
9.003189e+14
9.109452e+14
9.108469e+14
9.000315e+14
8.788247e+14
8.476165e+14
8.071715e+14
7.580105e+14
7.013207e+14
6.371735e+14
5.673891e+14
4.92568e+14
4.142905e+14
3.318494e+14
2.499274e+14
1.637286e+14
9.098339e+13
4.366616e+13
5.014623e+13
1.073071e+14
1.86176e+14
2.818982e+14
3.69925e+14
4.520526e+14
5.341435e+14
6.116888e+14
6.837911e+14
7.494238e+14
8.080374e+14
8.58888e+14
9.002404e+14
9.315328e+14
9.524641e+14
9.629223e+14
9.628172e+14
9.521561e+14
9.310348e+14
8.995684e+14
8.580545e+14
8.070599e+14
7.483348e+14
6.826382e+14
6.105266e+14
5.330112e+14
4.509544e+14
3.689236e+14
2.809524e+14
1.854569e+14
1.068757e+14
4.993407e+13
5.918362e+13
1.402761e+14
2.068133e+14
3.055e+14
3.952441e+14
4.826159e+14
5.673633e+14
6.469225e+14
7.209505e+14
7.879242e+14
8.48424e+14
9.003348e+14
9.420233e+14
9.73165e+14
9.93811e+14
1.004063e+15
1.00396e+15
9.935083e+14
9.726718e+14
9.413508e+14
8.994942e+14
8.474349e+14
7.868226e+14
7.197884e+14
6.457584e+14
5.662363e+14
4.815312e+14
3.942323e+14
3.045247e+14
2.059854e+14
1.395823e+14
5.890506e+13
3.471691e+13
8.214361e+13
1.543134e+14
2.40355e+14
3.25203e+14
4.141212e+14
5.049584e+14
5.91983e+14
6.736582e+14
7.490482e+14
8.178794e+14
8.79573e+14
9.317309e+14
9.732645e+14
1.004105e+15
1.024476e+15
1.034575e+15
1.034487e+15
1.024214e+15
1.00367e+15
9.726531e+14
9.309418e+14
8.786208e+14
8.168025e+14
7.479098e+14
6.725239e+14
5.908744e+14
5.038865e+14
4.130934e+14
3.241964e+14
2.39421e+14
1.535752e+14
8.177054e+13
3.454302e+13
4.097618e+13
8.617052e+13
1.594012e+14
2.529321e+14
3.372013e+14
4.262891e+14
5.192183e+14
6.080951e+14
6.915398e+14
7.680603e+14
8.384766e+14
9.007318e+14
9.527943e+14
9.940298e+14
1.024585e+15
1.044745e+15
1.054738e+15
1.054671e+15
1.044541e+15
1.024234e+15
9.935112e+14
9.520821e+14
8.998382e+14
8.374472e+14
7.669636e+14
6.904363e+14
6.070045e+14
5.181532e+14
4.252523e+14
3.361986e+14
2.520058e+14
1.586972e+14
8.57898e+13
4.08171e+13
4.221539e+13
8.765546e+13
1.61829e+14
2.579032e+14
3.427455e+14
4.322068e+14
5.261748e+14
6.159788e+14
7.000298e+14
7.777801e+14
8.491118e+14
9.115132e+14
9.634337e+14
1.004474e+15
1.034859e+15
1.054892e+15
1.064822e+15
1.064762e+15
1.054711e+15
1.034542e+15
1.003999e+15
9.627803e+14
9.10686e+14
8.481503e+14
7.767443e+14
6.989711e+14
6.149179e+14
5.251206e+14
4.311722e+14
3.417586e+14
2.570206e+14
1.612032e+14
8.730172e+13
4.205382e+13
4.221835e+13
8.766982e+13
1.618745e+14
2.579337e+14
3.427825e+14
4.322508e+14
5.26221e+14
6.160215e+14
7.000681e+14
7.778176e+14
8.491605e+14
9.115844e+14
9.635328e+14
1.004598e+15
1.034996e+15
1.055034e+15
1.064963e+15
1.0649e+15
1.054847e+15
1.034678e+15
1.004136e+15
9.629172e+14
9.108189e+14
8.482738e+14
7.768526e+14
6.990621e+14
6.149964e+14
5.251871e+14
4.312299e+14
3.418199e+14
2.570827e+14
1.612599e+14
8.733058e+13
4.206621e+13
4.101468e+13
8.620657e+13
1.594419e+14
2.529884e+14
3.372982e+14
4.264153e+14
5.193518e+14
6.082276e+14
6.916682e+14
7.681858e+14
8.386314e+14
9.00946e+14
9.53082e+14
9.943874e+14
1.024979e+15
1.045151e+15
1.055147e+15
1.055076e+15
1.044944e+15
1.024639e+15
9.939186e+14
9.52485e+14
9.00226e+14
8.378071e+14
7.672829e+14
6.907106e+14
6.072399e+14
5.18343e+14
4.254124e+14
3.363731e+14
2.521823e+14
1.588582e+14
8.587754e+13
4.085973e+13
3.476889e+13
8.214227e+13
1.543053e+14
2.404133e+14
3.253354e+14
4.143197e+14
5.051712e+14
5.922072e+14
6.738875e+14
7.492849e+14
8.181585e+14
8.799305e+14
9.321804e+14
9.738019e+14
1.004706e+15
1.025112e+15
1.035227e+15
1.035144e+15
1.024873e+15
1.004328e+15
9.733058e+14
9.315806e+14
8.792341e+14
8.173754e+14
7.484284e+14
6.729732e+14
5.912571e+14
5.04193e+14
4.133396e+14
3.244645e+14
2.396786e+14
1.537868e+14
8.184629e+13
3.463442e+13
5.921111e+13
1.402185e+14
2.068842e+14
3.056619e+14
3.955094e+14
4.828977e+14
5.676771e+14
6.472459e+14
7.213044e+14
7.883384e+14
8.489253e+14
9.009365e+14
9.427227e+14
9.739431e+14
9.946384e+14
1.004913e+15
1.004819e+15
9.943707e+14
9.735286e+14
9.421959e+14
9.00324e+14
8.482398e+14
7.875862e+14
7.204959e+14
6.463894e+14
5.667751e+14
4.819712e+14
3.945693e+14
3.048686e+14
2.062726e+14
1.398115e+14
5.898985e+13
5.016396e+13
1.073602e+14
1.862788e+14
2.820536e+14
3.702252e+14
4.523774e+14
5.345297e+14
6.120952e+14
6.84249e+14
7.499572e+14
8.086612e+14
8.596104e+14
9.010559e+14
9.324211e+14
9.533968e+14
9.638707e+14
9.637773e+14
9.53129e+14
9.320091e+14
9.005379e+14
8.590169e+14
8.080078e+14
7.492511e+14
6.835028e+14
6.113049e+14
5.336911e+14
4.51534e+14
3.693546e+14
2.813555e+14
1.857328e+14
1.069963e+14
4.996491e+13
4.386607e+13
9.140149e+13
1.64488e+14
2.509459e+14
3.330838e+14
4.157182e+14
4.940999e+14
5.68964e+14
6.387838e+14
7.029421e+14
7.596097e+14
8.087243e+14
8.490987e+14
8.802044e+14
9.012698e+14
9.11907e+14
9.11829e+14
9.010447e+14
8.798571e+14
8.486626e+14
8.082251e+14
7.590571e+14
7.02337e+14
6.381362e+14
5.682648e+14
4.933518e+14
4.149825e+14
3.323566e+14
2.503684e+14
1.639732e+14
9.106922e+13
4.367089e+13
3.307666e+13
7.530483e+13
1.424828e+14
2.029944e+14
2.877898e+14
3.714944e+14
4.462221e+14
5.177578e+14
5.853362e+14
6.475393e+14
7.029584e+14
7.50036e+14
7.88518e+14
8.184288e+14
8.389484e+14
8.494774e+14
8.494246e+14
8.387933e+14
8.181859e+14
7.882114e+14
7.496832e+14
7.025579e+14
6.470854e+14
5.848309e+14
5.171944e+14
4.456125e+14
3.709146e+14
2.872504e+14
2.025852e+14
1.419667e+14
7.505003e+13
3.29378e+13
4.653141e+13
9.606807e+13
1.668962e+14
2.243836e+14
3.171168e+14
3.94311e+14
4.611424e+14
5.253491e+14
5.853413e+14
6.388052e+14
6.843286e+14
7.214727e+14
7.495409e+14
7.685e+14
7.781507e+14
7.781255e+14
7.684217e+14
7.49412e+14
7.213048e+14
6.841275e+14
6.385609e+14
5.850439e+14
5.249991e+14
4.607406e+14
3.938773e+14
3.166908e+14
2.240556e+14
1.665247e+14
9.581124e+13
4.638155e+13
3.328937e+13
7.033737e+13
1.144395e+14
1.860877e+14
2.643204e+14
3.345748e+14
4.020707e+14
4.611538e+14
5.177686e+14
5.689881e+14
6.121732e+14
6.474005e+14
6.741303e+14
6.919866e+14
7.004371e+14
7.00434e+14
6.919756e+14
6.74107e+14
6.473627e+14
6.121088e+14
5.68887e+14
5.176146e+14
4.609431e+14
4.017992e+14
3.342503e+14
2.639648e+14
1.857508e+14
1.141905e+14
7.016098e+13
3.322181e+13
3.776101e+13
8.149777e+13
1.482727e+14
2.013343e+14
2.719506e+14
3.345673e+14
3.943361e+14
4.462326e+14
4.941033e+14
5.345896e+14
5.678181e+14
5.92439e+14
6.085401e+14
6.163966e+14
6.164098e+14
6.085857e+14
5.92503e+14
5.678869e+14
5.346516e+14
4.941421e+14
4.462058e+14
3.942398e+14
3.344234e+14
2.717612e+14
2.011364e+14
1.479926e+14
8.132692e+13
3.76966e+13
4.110323e+13
9.173765e+13
1.565244e+14
2.013002e+14
2.643064e+14
3.171363e+14
3.715023e+14
4.157076e+14
4.524246e+14
4.83011e+14
5.053634e+14
5.196257e+14
5.265647e+14
5.265845e+14
5.197116e+14
5.055005e+14
4.831715e+14
4.525843e+14
4.15847e+14
3.715615e+14
3.171146e+14
2.642513e+14
2.012101e+14
1.563777e+14
9.162636e+13
4.10427e+13
4.31055e+13
9.172641e+13
1.482876e+14
1.86089e+14
2.244836e+14
2.878427e+14
3.330943e+14
3.702468e+14
3.955817e+14
4.144636e+14
4.266485e+14
4.325871e+14
4.325969e+14
4.267443e+14
4.146228e+14
3.95776e+14
3.704565e+14
3.332556e+14
2.879087e+14
2.244471e+14
1.860801e+14
1.482443e+14
9.168316e+13
4.307292e+13
4.107608e+13
8.145277e+13
1.144602e+14
1.669162e+14
2.02997e+14
2.509713e+14
2.821078e+14
3.057642e+14
3.254975e+14
3.375243e+14
3.430528e+14
3.430488e+14
3.375736e+14
3.255868e+14
3.058827e+14
2.822681e+14