/*--------------------------------*- C++ -*----------------------------------*\
  =========                 |
  \\      /  F ield         | OpenFOAM: The Open Source CFD Toolbox
   \\    /   O peration     | Website:  https://openfoam.org
    \\  /    A nd           | Version:  6
     \\/     M anipulation  |
\*---------------------------------------------------------------------------*/
FoamFile
{
    version     2.0;
    format      ascii;
    class       volScalarField;
    location    "50/region0/neutronTransport";
    object      flux6;
}
// * * * * * * * * * * * * * * * * * * * * * * * * * * * * * * * * * * * * * //

dimensions      [0 -2 -1 0 0 0 0];

internalField   nonuniform List<scalar> 
203709
(
-5.32404e-36
-2.094274e-36
-3.12065e-36
-1.687925e-36
-5.324088e-36
-2.222727e-36
-8.133802e-37
-1.946144e-36
-2.190601e-36
-1.676469e-36
-3.547505e-36
-2.013714e-36
-5.324033e-36
-2.164073e-36
-1.069654e-36
-2.402561e-36
-3.012081e-36
-3.354342e-36
-3.427105e-36
-3.12144e-36
-2.74092e-36
-2.02743e-36
-3.547888e-36
-1.820124e-36
-5.324033e-36
5.839971e-37
-2.225756e-36
-3.045531e-36
-3.458925e-36
-3.612671e-36
-3.685999e-36
-3.705398e-36
-3.673534e-36
-3.591059e-36
-3.202336e-36
-2.682476e-36
-1.662578e-36
-1.726609e-36
-2.162971e-36
-2.225516e-36
-3.31187e-36
-3.590086e-36
-3.711981e-36
-3.766683e-36
-3.793757e-36
-3.800107e-36
-3.787917e-36
-3.757642e-36
-3.687106e-36
-3.53663e-36
-2.935835e-36
-1.106108e-36
-5.324087e-36
-1.070484e-36
-3.04521e-36
-3.590129e-36
-3.737157e-36
-3.79788e-36
-3.823191e-36
-3.836343e-36
-3.839616e-36
-3.834727e-36
-3.818465e-36
-3.784217e-36
-3.710625e-36
-3.527755e-36
-3.112459e-36
-1.986018e-36
-2.222438e-36
-2.402455e-36
-3.459096e-36
-3.712139e-36
-3.797769e-36
-3.831523e-36
-3.851574e-36
-3.862016e-36
-3.862368e-36
-3.854943e-36
-3.845048e-36
-3.824416e-36
-3.77854e-36
-3.671685e-36
-3.121519e-36
-1.286467e-36
-5.324041e-36
-8.115972e-37
-3.013551e-36
-3.612212e-36
-3.766562e-36
-3.823094e-36
-3.85137e-36
-3.866975e-36
-3.87268e-36
-3.87647e-36
-3.873827e-36
-3.859591e-36
-3.843719e-36
-3.810718e-36
-3.738681e-36
-3.539364e-36
-3.086284e-36
-1.643759e-36
-2.098251e-36
-1.947878e-36
-3.354033e-36
-3.686168e-36
-3.79361e-36
-3.835947e-36
-3.861583e-36
-3.872428e-36
-3.886963e-36
-3.884611e-36
-3.882827e-36
-3.865577e-36
-3.854332e-36
-3.824041e-36
-3.768127e-36
-3.622301e-36
-2.918927e-36
-9.897861e-37
-3.119706e-36
-2.189583e-36
-3.427207e-36
-3.70552e-36
-3.799942e-36
-3.839559e-36
-3.862128e-36
-3.876203e-36
-3.882949e-36
-3.883198e-36
-3.884659e-36
-3.868265e-36
-3.855774e-36
-3.826979e-36
-3.774502e-36
-3.632943e-36
-3.185288e-36
-1.890681e-36
-1.686413e-36
-1.674275e-36
-3.12088e-36
-3.67302e-36
-3.787899e-36
-3.834643e-36
-3.855022e-36
-3.873541e-36
-3.882121e-36
-3.884563e-36
-3.874996e-36
-3.866619e-36
-3.848846e-36
-3.819355e-36
-3.753982e-36
-3.573771e-36
-3.224535e-36
1.058074e-36
-3.547114e-36
-2.740259e-36
-3.59092e-36
-3.757552e-36
-3.818566e-36
-3.844895e-36
-3.859699e-36
-3.865342e-36
-3.868312e-36
-3.866755e-36
-3.855686e-36
-3.835182e-36
-3.800141e-36
-3.708058e-36
-3.444264e-36
-2.186469e-36
-2.013335e-36
-2.030281e-36
-3.203406e-36
-3.687048e-36
-3.784317e-36
-3.824543e-36
-3.84379e-36
-3.854463e-36
-3.855945e-36
-3.848705e-36
-3.835037e-36
-3.811663e-36
-3.753338e-36
-3.602178e-36
-3.349615e-36
3.174122e-37
-3.546622e-36
-2.682551e-36
-3.537085e-36
-3.7109e-36
-3.778456e-36
-3.810917e-36
-3.820755e-36
-3.827147e-36
-3.8187e-36
-3.799943e-36
-3.753247e-36
-3.655095e-36
-3.400243e-36
-2.152258e-36
-1.821956e-36
-1.663e-36
-2.936134e-36
-3.527584e-36
-3.672091e-36
-3.739355e-36
-3.768438e-36
-3.774396e-36
-3.752245e-36
-3.708158e-36
-3.602705e-36
-3.39991e-36
-3.081447e-36
6.711077e-37
-1.725415e-36
-1.10637e-36
-3.113132e-36
-3.121762e-36
-3.54e-36
-3.619447e-36
-3.631824e-36
-3.573579e-36
-3.444495e-36
-3.350482e-36
-2.150888e-36
6.722868e-37
-1.98773e-36
-1.288709e-36
-3.088487e-36
-2.920389e-36
-3.185494e-36
-3.221258e-36
-2.188424e-36
3.144474e-37
-1.647949e-36
-9.936807e-37
-1.886328e-36
1.053705e-36
-5.324094e-36
-2.431448e-36
-3.536797e-36
-3.647964e-36
-3.684767e-36
-3.688848e-36
-3.674456e-36
-3.619543e-36
-3.444862e-36
-1.989208e-36
-5.324081e-36
-2.425911e-36
-1.187522e-36
-2.352993e-36
-2.730589e-36
-2.848343e-36
-2.86885e-36
-2.860279e-36
-2.849152e-36
-2.781267e-36
-2.606687e-36
-2.089616e-36
-3.649693e-36
-2.121422e-36
-5.324121e-36
-4.313848e-37
-2.578284e-36
-3.238881e-36
-3.564429e-36
-3.785727e-36
-3.757391e-36
-3.77261e-36
-3.736722e-36
-3.828805e-36
-3.774777e-36
-3.66142e-36
-3.346754e-36
-2.919238e-36
-2.092661e-36
-2.47458e-36
-5.324146e-36
-1.062672e-36
-2.984104e-36
-3.560727e-36
-3.851881e-36
-3.841867e-36
-3.743972e-36
-2.135481e-36
-2.619553e-36
-2.722253e-36
-2.943508e-36
-3.864957e-36
-3.922619e-36
-3.87204e-36
-3.725202e-36
-3.299268e-36
-2.683188e-36
-2.585097e-36
-5.324121e-36
-1.060972e-36
-3.055732e-36
-3.755721e-36
-3.838499e-36
-3.760198e-36
-2.259657e-36
-2.828385e-36
-2.964497e-36
-3.205123e-36
-3.064902e-36
-3.075994e-36
-2.851179e-36
-3.048677e-36
-3.896344e-36
-3.931589e-36
-3.851643e-36
-3.418582e-36
-2.75542e-36
-2.49372e-36
-5.324082e-36
-4.295971e-37
-2.983211e-36
-3.754939e-36
-3.725256e-36
-2.328538e-36
-2.797813e-36
-2.996765e-36
-3.261072e-36
-3.233504e-36
-3.064584e-36
-3.085498e-36
-3.158655e-36
-3.155999e-36
-3.153484e-36
-2.856366e-36
-3.069448e-36
-3.970933e-36
-3.859766e-36
-3.410448e-36
-2.614887e-36
-2.00438e-36
-2.425966e-36
-2.576876e-36
-3.561017e-36
-3.837861e-36
-2.327568e-36
-2.876969e-36
-3.202918e-36
-3.247002e-36
-3.12188e-36
-3.154594e-36
-3.170175e-36
-3.17287e-36
-3.162842e-36
-3.16147e-36
-3.193546e-36
-3.139494e-36
-3.071591e-36
-3.333209e-36
-3.941369e-36
-3.794959e-36
-3.238087e-36
-1.545878e-36
-5.324094e-36
-1.188363e-36
-3.238552e-36
-3.852327e-36
-3.75984e-36
-2.797708e-36
-3.202553e-36
-3.07e-36
-3.147129e-36
-3.200307e-36
-3.236327e-36
-3.255993e-36
-3.259737e-36
-3.247348e-36
-3.218409e-36
-3.172719e-36
-3.127242e-36
-3.143349e-36
-3.537489e-36
-3.900419e-36
-3.855316e-36
-3.699268e-36
-3.293498e-36
-1.940018e-36
-2.430346e-36
-2.350558e-36
-3.563986e-36
-3.840911e-36
-2.258113e-36
-2.995318e-36
-3.2465e-36
-3.146884e-36
-3.214633e-36
-3.265765e-36
-3.298199e-36
-3.315401e-36
-3.318622e-36
-3.307733e-36
-3.283021e-36
-3.240452e-36
-3.17675e-36
-3.134321e-36
-3.129275e-36
-3.353534e-36
-3.957744e-36
-3.814411e-36
-3.208834e-36
-1.527421e-36
-3.533945e-36
-2.726631e-36
-3.785433e-36
-3.743796e-36
-2.827689e-36
-3.260646e-36
-3.121791e-36
-3.200291e-36
-3.265826e-36
-3.311031e-36
-3.338e-36
-3.352003e-36
-3.354382e-36
-3.345004e-36
-3.32434e-36
-3.289154e-36
-3.232528e-36
-3.181105e-36
-3.195596e-36
-3.580117e-36
-3.898148e-36
-3.830066e-36
-3.552415e-36
-2.587835e-36
-3.645325e-36
-2.844954e-36
-3.755838e-36
-2.134504e-36
-2.964643e-36
-3.232875e-36
-3.154483e-36
-3.236139e-36
-3.298033e-36
-3.337785e-36
-3.363873e-36
-3.379274e-36
-3.382318e-36
-3.371858e-36
-3.350018e-36
-3.317805e-36
-3.26652e-36
-3.18997e-36
-3.128705e-36
-3.088541e-36
-3.341681e-36
-3.939371e-36
-3.633416e-36
-2.763928e-36
-3.683549e-36
-2.868123e-36
-3.771899e-36
-2.618981e-36
-3.204881e-36
-3.064823e-36
-3.170152e-36
-3.25568e-36
-3.315191e-36
-3.351731e-36
-3.378984e-36
-3.390013e-36
-3.39327e-36
-3.384529e-36
-3.364648e-36
-3.332066e-36
-3.284906e-36
-3.210594e-36
-3.135161e-36
-3.118971e-36
-3.642768e-36
-3.904355e-36
-3.587704e-36
-2.811757e-36
-3.689277e-36
-2.86263e-36
-3.737739e-36
-2.723365e-36
-3.06522e-36
-3.085712e-36
-3.173013e-36
-3.259722e-36
-3.318535e-36
-3.354203e-36
-3.381918e-36
-3.392344e-36
-3.396092e-36
-3.386693e-36
-3.367404e-36
-3.334315e-36
-3.287762e-36
-3.214759e-36
-3.116967e-36
-3.056898e-36
-3.695795e-36
-3.871169e-36
-3.597606e-36
-2.819448e-36
-3.676543e-36
-2.851635e-36
-3.828793e-36
-2.943607e-36
-3.075844e-36
-3.158625e-36
-3.162892e-36
-3.247192e-36
-3.307676e-36
-3.344946e-36
-3.37166e-36
-3.384142e-36
-3.386622e-36
-3.377812e-36
-3.356922e-36
-3.324139e-36
-3.275809e-36
-3.205799e-36
-3.148851e-36
-3.409085e-36
-3.998904e-36
-3.961496e-36
-3.631474e-36
-2.803808e-36
-3.621838e-36
-2.783672e-36
-3.775282e-36
-3.864662e-36
-2.851097e-36
-3.15619e-36
-3.16148e-36
-3.218212e-36
-3.283028e-36
-3.324405e-36
-3.349882e-36
-3.364476e-36
-3.367494e-36
-3.356875e-36
-3.335207e-36
-3.30165e-36
-3.249302e-36
-3.181337e-36
-3.171486e-36
-3.644053e-36
-3.93733e-36
-3.789197e-36
-3.641966e-36
-2.716662e-36
-3.447793e-36
-2.608636e-36
-3.661953e-36
-3.920761e-36
-3.049154e-36
-3.153191e-36
-3.193429e-36
-3.172698e-36
-3.240537e-36
-3.289123e-36
-3.3178e-36
-3.331788e-36
-3.334203e-36
-3.324078e-36
-3.301566e-36
-3.262631e-36
-3.206885e-36
-3.172738e-36
-3.464632e-36
-4.01557e-36
-3.908436e-36
-3.884149e-36
-3.47011e-36
-2.428563e-36
-1.998052e-36
-2.096336e-36
-3.348271e-36
-3.871797e-36
-3.897247e-36
-2.856684e-36
-3.139788e-36
-3.12746e-36
-3.176844e-36
-3.232519e-36
-3.266389e-36
-3.284191e-36
-3.286038e-36
-3.275546e-36
-3.249137e-36
-3.206859e-36
-3.144561e-36
-3.143561e-36
-3.647817e-36
-3.950331e-36
-3.817841e-36
-3.811761e-36
-3.432312e-36
3.726596e-37
-3.647125e-36
-2.919453e-36
-3.725246e-36
-3.931879e-36
-3.069594e-36
-3.070877e-36
-3.143091e-36
-3.134572e-36
-3.181307e-36
-3.190042e-36
-3.20935e-36
-3.211924e-36
-3.205546e-36
-3.181267e-36
-3.172584e-36
-3.143741e-36
-3.385002e-36
-4.016421e-36
-3.906629e-36
-3.895904e-36
-3.58931e-36
-2.375026e-36
-2.127517e-36
-2.09033e-36
-3.29941e-36
-3.853194e-36
-3.970416e-36
-3.332838e-36
-3.537063e-36
-3.129457e-36
-3.195784e-36
-3.128851e-36
-3.134987e-36
-3.114884e-36
-3.148796e-36
-3.171602e-36
-3.464333e-36
-3.647922e-36
-4.01581e-36
-4.037873e-36
-3.820428e-36
-3.759894e-36
-3.384825e-36
1.318063e-38
-2.473985e-36
-2.684304e-36
-3.41938e-36
-3.860294e-36
-3.94031e-36
-3.900497e-36
-3.353485e-36
-3.578654e-36
-3.088963e-36
-3.117972e-36
-3.053664e-36
-3.409418e-36
-3.644483e-36
-4.01609e-36
-3.950136e-36
-3.906466e-36
-3.820451e-36
-3.854191e-36
-3.508619e-36
-1.0308e-37
-2.586194e-36
-2.755229e-36
-3.409211e-36
-3.794988e-36
-3.855077e-36
-3.958352e-36
-3.89832e-36
-3.342677e-36
-3.643175e-36
-3.694676e-36
-3.998989e-36
-3.936922e-36
-3.909216e-36
-3.818372e-36
-3.896195e-36
-3.760768e-36
-3.509848e-36
-3.27531e-37
-2.489454e-36
-2.615191e-36
-3.238205e-36
-3.699526e-36
-3.814345e-36
-3.829052e-36
-3.939445e-36
-3.902766e-36
-3.870894e-36
-3.961428e-36
-3.790014e-36
-3.884497e-36
-3.81004e-36
-3.587298e-36
-3.382529e-36
-1.043145e-37
-2.006255e-36
-1.545885e-36
-3.291982e-36
-3.206947e-36
-3.551996e-36
-3.63328e-36
-3.58856e-36
-3.598487e-36
-3.629041e-36
-3.641446e-36
-3.470004e-36
-3.432866e-36
-2.37335e-36
1.560445e-38
-1.940787e-36
-1.526232e-36
-2.586738e-36
-2.763467e-36
-2.808267e-36
-2.818968e-36
-2.802743e-36
-2.71436e-36
-2.426087e-36
3.880188e-37
-5.324084e-36
-2.5512e-36
-3.601446e-36
-3.701109e-36
-3.71822e-36
-3.68529e-36
-3.519526e-36
-2.134756e-36
-5.324097e-36
-2.69337e-36
-3.660166e-36
-1.6129e-36
-2.521608e-36
-2.762259e-36
-2.842605e-36
-2.8553e-36
-2.81594e-36
-2.701887e-36
-2.375305e-36
-3.930597e-36
-3.644828e-36
-2.176646e-36
-5.324209e-36
-9.167739e-37
-2.844452e-36
-3.229897e-36
-3.50533e-36
-3.673287e-36
-3.745227e-36
-3.768642e-36
-3.773572e-36
-3.762232e-36
-3.740141e-36
-3.518645e-36
-3.39201e-36
-3.046973e-36
-2.405901e-36
-2.843369e-36
-5.32411e-36
-2.782689e-36
-2.539133e-36
-3.294825e-36
-3.492406e-36
-2.125698e-36
-2.700821e-36
-2.894758e-36
-2.971838e-36
-2.999501e-36
-3.005127e-36
-2.991943e-36
-2.950406e-36
-2.867328e-36
-2.940109e-36
-3.74018e-36
-3.539641e-36
-3.289155e-36
-3.941832e-36
-2.381063e-36
-5.324108e-36
-8.903683e-37
-3.020804e-36
-3.358486e-36
-2.190909e-36
-2.821594e-36
-3.059922e-36
-3.330308e-36
-3.236488e-36
-3.274574e-36
-3.276636e-36
-3.280023e-36
-3.286126e-36
-3.268635e-36
-3.226459e-36
-3.196199e-36
-2.909346e-36
-2.994754e-36
-3.699735e-36
-3.262324e-36
-2.511955e-36
-2.558644e-36
-5.32411e-36
-8.824479e-37
-3.25154e-36
-3.504861e-36
-2.47115e-36
-2.935327e-36
-3.289929e-36
-3.343176e-36
-3.218104e-36
-3.217751e-36
-3.306856e-36
-3.283076e-36
-3.287305e-36
-3.281762e-36
-3.275823e-36
-3.261879e-36
-3.296263e-36
-3.24041e-36
-3.19006e-36
-3.1742e-36
-3.827565e-36
-3.479535e-36
-2.834641e-36
-2.275495e-36
-2.780523e-36
-3.021907e-36
-3.50182e-36
-2.496736e-36
-2.956516e-36
-3.45097e-36
-3.219624e-36
-3.247093e-36
-3.334068e-36
-3.362676e-36
-3.39133e-36
-3.427414e-36
-3.446172e-36
-3.399977e-36
-3.330005e-36
-3.319461e-36
-3.309001e-36
-3.27272e-36
-3.290715e-36
-3.221518e-36
-3.235809e-36
-3.847891e-36
-3.456126e-36
-2.092625e-36
-5.324209e-36
-2.536265e-36
-3.356468e-36
-2.472484e-36
-2.957895e-36
-3.476815e-36
-3.234892e-36
-3.324228e-36
-3.372209e-36
-3.409827e-36
-3.420284e-36
-3.515111e-36
-3.293748e-36
-3.299924e-36
-3.395367e-36
-3.439412e-36
-3.439146e-36
-3.353201e-36
-3.320611e-36
-3.325214e-36
-3.322322e-36
-3.235954e-36
-3.242331e-36
-3.824241e-36
-3.703256e-36
-3.023088e-36
-5.324096e-36
-9.108316e-37
-3.295739e-36
-2.190354e-36
-2.933385e-36
-3.450909e-36
-3.235278e-36
-3.379518e-36
-3.391014e-36
-3.418955e-36
-3.534275e-36
-3.325689e-36
-3.300121e-36
-3.263572e-36
-3.254126e-36
-3.273357e-36
-3.327254e-36
-3.424507e-36
-3.448985e-36
-3.433403e-36
-3.331154e-36
-3.344351e-36
-3.308525e-36
-3.186395e-36
-3.35379e-36
-3.658516e-36
-3.043152e-36
-2.131574e-36
-2.693251e-36
-2.841891e-36
-3.489761e-36
-2.821803e-36
-3.289553e-36
-3.219017e-36
-3.324445e-36
-3.39096e-36
-3.494702e-36
-3.312648e-36
-3.3105e-36
-3.294443e-36
-3.291584e-36
-3.288067e-36
-3.287036e-36
-3.287175e-36
-3.288155e-36
-3.296171e-36
-3.328832e-36
-3.411016e-36
-3.375913e-36
-3.373302e-36
-3.310666e-36
-3.263809e-36
-3.579934e-36
-3.826921e-36
-3.364705e-36
-1.962997e-36
-3.65777e-36
-3.227062e-36
-2.127637e-36
-3.059757e-36
-3.342903e-36
-3.246511e-36
-3.372288e-36
-3.418596e-36
-3.312358e-36
-3.281809e-36
-3.291903e-36
-3.309583e-36
-3.32621e-36
-3.335866e-36
-3.337647e-36
-3.331332e-36
-3.317721e-36
-3.299481e-36
-3.285568e-36
-3.318447e-36
-3.348166e-36
-3.305156e-36
-3.349932e-36
-3.271171e-36
-3.214523e-36
-3.355925e-36
-3.785052e-36
-2.980086e-36
-5.324081e-36
-1.604712e-36
-3.50139e-36
-2.701383e-36
-3.328489e-36
-3.217795e-36
-3.333574e-36
-3.409098e-36
-3.533575e-36
-3.310061e-36
-3.291742e-36
-3.315649e-36
-3.345458e-36
-3.368495e-36
-3.38156e-36
-3.38408e-36
-3.375905e-36
-3.357749e-36
-3.331137e-36
-3.302981e-36
-3.31893e-36
-3.420756e-36
-3.39581e-36
-3.385864e-36
-3.317636e-36
-3.265832e-36
-3.699168e-36
-3.859895e-36
-3.581707e-36
-2.032701e-36
-2.546315e-36
-2.516913e-36
-3.672894e-36
-2.894002e-36
-3.234528e-36
-3.216921e-36
-3.362663e-36
-3.419586e-36
-3.325085e-36
-3.294182e-36
-3.309478e-36
-3.345442e-36
-3.379081e-36
-3.40289e-36
-3.416059e-36
-3.418576e-36
-3.410301e-36
-3.391684e-36
-3.363279e-36
-3.327789e-36
-3.300351e-36
-3.327559e-36
-3.352127e-36
-3.297767e-36
-3.334526e-36
-3.237661e-36
-3.743634e-36
-3.878791e-36
-3.337563e-36
-1.705418e-36
-3.600232e-36
-2.763986e-36
-3.745979e-36
-2.971103e-36
-3.273028e-36
-3.305328e-36
-3.390758e-36
-3.51453e-36
-3.299645e-36
-3.2914e-36
-3.326075e-36
-3.368389e-36
-3.402792e-36
-3.426994e-36
-3.440742e-36
-3.44346e-36
-3.434732e-36
-3.415461e-36
-3.386436e-36
-3.348236e-36
-3.308416e-36
-3.314112e-36
-3.404016e-36
-3.376541e-36
-3.372486e-36
-3.278745e-36
-3.78504e-36
-3.903434e-36
-3.554104e-36
-2.655449e-36
-3.701222e-36
-2.844962e-36
-3.769301e-36
-2.999433e-36
-3.276316e-36
-3.282646e-36
-3.427146e-36
-3.293515e-36
-3.263523e-36
-3.288007e-36
-3.33572e-36
-3.381427e-36
-3.415909e-36
-3.440604e-36
-3.453185e-36
-3.455943e-36
-3.447625e-36
-3.428804e-36
-3.399202e-36
-3.359877e-36
-3.313314e-36
-3.277137e-36
-3.295768e-36
-3.316291e-36
-3.322518e-36
-3.290152e-36
-3.801439e-36
-3.913922e-36
-3.590833e-36
-2.793883e-36
-3.719073e-36
-2.85613e-36
-3.774008e-36
-3.006215e-36
-3.280981e-36
-3.28826e-36
-3.446854e-36
-3.300297e-36
-3.25429e-36
-3.287098e-36
-3.337614e-36
-3.383998e-36
-3.418443e-36
-3.44324e-36
-3.455621e-36
-3.458463e-36
-3.450021e-36
-3.431387e-36
-3.401694e-36
-3.362487e-36
-3.315968e-36
-3.277487e-36
-3.306618e-36
-3.32079e-36
-3.323647e-36
-3.290357e-36
-3.805686e-36
-3.917069e-36
-3.59902e-36
-2.818948e-36
-3.685504e-36
-2.815159e-36
-3.762646e-36
-2.994e-36
-3.287924e-36
-3.28261e-36
-3.400258e-36
-3.395841e-36
-3.273549e-36
-3.287241e-36
-3.33128e-36
-3.375849e-36
-3.410217e-36
-3.434572e-36
-3.447406e-36
-3.449951e-36
-3.441768e-36
-3.422827e-36
-3.39379e-36
-3.356027e-36
-3.31508e-36
-3.307957e-36
-3.269893e-36
-3.376621e-36
-3.348253e-36
-3.283277e-36
-3.799761e-36
-3.911145e-36
-3.578233e-36
-2.763772e-36
-3.521335e-36
-2.69812e-36
-3.739882e-36
-2.95274e-36
-3.27057e-36
-3.275765e-36
-3.329808e-36
-3.439602e-36
-3.327442e-36
-3.288204e-36
-3.317662e-36
-3.357722e-36
-3.391651e-36
-3.41533e-36
-3.428632e-36
-3.431308e-36
-3.422763e-36
-3.404022e-36
-3.376152e-36
-3.341262e-36
-3.310433e-36
-3.343432e-36
-3.35086e-36
-3.280166e-36
-3.372917e-36
-3.262718e-36
-3.779168e-36
-3.894281e-36
-3.505631e-36
-2.528742e-36
-2.152031e-36
-2.374485e-36
-3.518053e-36
-2.868879e-36
-3.228442e-36
-3.261116e-36
-3.319489e-36
-3.438997e-36
-3.424462e-36
-3.296132e-36
-3.299456e-36
-3.331138e-36
-3.363217e-36
-3.386313e-36
-3.398931e-36
-3.401437e-36
-3.393629e-36
-3.376068e-36
-3.349875e-36
-3.320977e-36
-3.3254e-36
-3.301647e-36
-3.41854e-36
-3.37395e-36
-3.303873e-36
-3.241526e-36
-3.774771e-36
-3.858127e-36
-3.556538e-36
8.303973e-38
-3.927603e-36
-3.392416e-36
-2.94034e-36
-3.198328e-36
-3.295737e-36
-3.309913e-36
-3.353237e-36
-3.448796e-36
-3.328745e-36
-3.285571e-36
-3.30298e-36
-3.327721e-36
-3.348028e-36
-3.359413e-36
-3.361624e-36
-3.355663e-36
-3.341097e-36
-3.320924e-36
-3.301359e-36
-3.339504e-36
-3.355809e-36
-3.301103e-36
-3.400208e-36
-3.302229e-36
-3.511922e-36
-4.001637e-36
-3.878687e-36
-2.915809e-36
-3.647616e-36
-3.046557e-36
-3.738627e-36
-2.910481e-36
-3.239169e-36
-3.27408e-36
-3.321011e-36
-3.433061e-36
-3.410626e-36
-3.318263e-36
-3.318931e-36
-3.300316e-36
-3.308209e-36
-3.312569e-36
-3.314638e-36
-3.314627e-36
-3.310276e-36
-3.325302e-36
-3.339419e-36
-3.294386e-36
-3.403473e-36
-3.368677e-36
-3.312735e-36
-3.276463e-36
-3.680366e-36
-3.896582e-36
-3.542919e-36
-2.969876e-36
-2.166331e-36
-2.40881e-36
-3.540104e-36
-2.994458e-36
-3.188701e-36
-3.292115e-36
-3.325638e-36
-3.331039e-36
-3.375286e-36
-3.347919e-36
-3.420719e-36
-3.327472e-36
-3.313886e-36
-3.276652e-36
-3.276358e-36
-3.307581e-36
-3.343428e-36
-3.301647e-36
-3.35554e-36
-3.403087e-36
-3.295114e-36
-3.384138e-36
-3.306192e-36
-3.50572e-36
-4.000926e-36
-3.770433e-36
-3.58278e-36
-1.973749e-37
-2.847125e-36
-3.288693e-36
-3.70079e-36
-3.174414e-36
-3.222582e-36
-3.32232e-36
-3.343909e-36
-3.372927e-36
-3.305166e-36
-3.395866e-36
-3.351864e-36
-3.403778e-36
-3.295183e-36
-3.305342e-36
-3.269614e-36
-3.351064e-36
-3.418815e-36
-3.300934e-36
-3.368408e-36
-3.384149e-36
-3.319907e-36
-3.571104e-36
-3.924413e-36
-3.967312e-36
-3.70228e-36
-1.060071e-36
-3.936566e-36
-3.262247e-36
-3.826571e-36
-3.236085e-36
-3.235459e-36
-3.3085e-36
-3.310261e-36
-3.349907e-36
-3.385956e-36
-3.297442e-36
-3.376462e-36
-3.315813e-36
-3.319853e-36
-3.376271e-36
-3.280395e-36
-3.374258e-36
-3.399953e-36
-3.312609e-36
-3.306304e-36
-3.571821e-36
-3.932912e-36
-3.982079e-36
-3.555975e-36
-2.989572e-36
-2.379819e-36
-2.506568e-36
-3.481277e-36
-3.847748e-36
-3.24166e-36
-3.186449e-36
-3.263649e-36
-3.27116e-36
-3.317678e-36
-3.334567e-36
-3.372096e-36
-3.322138e-36
-3.322547e-36
-3.34778e-36
-3.372868e-36
-3.303766e-36
-3.30209e-36
-3.276201e-36
-3.505221e-36
-3.924255e-36
-3.982568e-36
-3.587482e-36
-3.630381e-36
-6.259852e-37
-2.553832e-36
-2.835343e-36
-3.452341e-36
-3.824296e-36
-3.353409e-36
-3.580045e-36
-3.214495e-36
-3.265959e-36
-3.237656e-36
-3.278675e-36
-3.289421e-36
-3.287905e-36
-3.28216e-36
-3.262147e-36
-3.241271e-36
-3.511981e-36
-3.679385e-36
-4.000959e-36
-3.967051e-36
-3.552412e-36
-3.632743e-36
-2.888315e-37
-2.260214e-36
-2.092853e-36
-3.702298e-36
-3.658018e-36
-3.826989e-36
-3.356877e-36
-3.70002e-36
-3.744295e-36
-3.785984e-36
-3.800962e-36
-3.80593e-36
-3.79887e-36
-3.777804e-36
-3.773458e-36
-3.998791e-36
-3.894845e-36
-3.769737e-36
-3.704657e-36
-2.982979e-36
-6.120468e-37
-3.021518e-36
-3.042883e-36
-3.364047e-36
-3.78482e-36
-3.860181e-36
-3.879462e-36
-3.904542e-36
-3.913661e-36
-3.918391e-36
-3.911898e-36
-3.894697e-36
-3.858402e-36
-3.879643e-36
-3.545504e-36
-3.583138e-36
-1.057804e-36
-2.1311e-36
-1.960261e-36
-2.979817e-36
-3.579732e-36
-3.337201e-36
-3.554963e-36
-3.590497e-36
-3.600772e-36
-3.578039e-36
-3.506517e-36
-3.555237e-36
-2.916092e-36
-2.968774e-36
-1.936609e-37
-2.025361e-36
-1.700363e-36
-2.655936e-36
-2.794244e-36
-2.818843e-36
-2.765061e-36
-2.529828e-36
9.329519e-38
-5.32413e-36
-2.726321e-36
-3.688072e-36
-3.733857e-36
-3.608236e-36
-2.355373e-36
-5.324136e-36
-2.900263e-36
-3.923069e-36
-3.907778e-36
-2.171819e-36
-2.864189e-36
-3.022246e-36
-3.052141e-36
-2.992029e-36
-2.849792e-36
-4.200694e-36
-3.966463e-36
-3.748565e-36
-2.35061e-36
-5.324117e-36
-3.155274e-36
-2.083705e-36
-2.877378e-36
-2.910404e-36
-1.655113e-36
-2.423279e-36
-2.72113e-36
-2.826398e-36
-2.841917e-36
-2.806985e-36
-2.581686e-36
-2.454637e-36
-3.190609e-36
-3.011624e-36
-2.980061e-36
-3.883146e-36
-2.784736e-36
-5.324195e-36
-1.558571e-36
-2.799864e-36
-1.880745e-36
-2.579586e-36
-2.946293e-36
-3.08046e-36
-3.311028e-36
-3.213089e-36
-3.2447e-36
-3.250656e-36
-3.231513e-36
-3.205047e-36
-3.188712e-36
-2.939847e-36
-2.792146e-36
-2.700453e-36
-3.333957e-36
-2.716982e-36
-2.9859e-36
-5.324242e-36
-1.972058e-36
-3.146975e-36
-2.366322e-36
-2.928902e-36
-3.278658e-36
-3.294411e-36
-3.427479e-36
-3.291964e-36
-3.312262e-36
-3.330072e-36
-3.333948e-36
-3.322043e-36
-3.32035e-36
-3.359182e-36
-3.309946e-36
-3.273754e-36
-3.180505e-36
-3.140029e-36
-3.446791e-36
-3.346043e-36
-3.136981e-36
-5.324243e-36
-1.813096e-36
-1.833467e-36
-2.736595e-36
-3.086595e-36
-3.554991e-36
-3.300466e-36
-3.361185e-36
-3.447426e-36
-3.492649e-36
-3.521743e-36
-3.539375e-36
-3.543868e-36
-3.534264e-36
-3.511366e-36
-3.485457e-36
-3.395719e-36
-3.298947e-36
-3.323362e-36
-3.33177e-36
-2.988924e-36
-2.77552e-36
-3.492069e-36
-3.127593e-36
-5.324242e-36
-1.810447e-36
-2.021219e-36
-2.833406e-36
-3.28329e-36
-3.487685e-36
-3.366379e-36
-3.395978e-36
-3.522658e-36
-3.357106e-36
-3.365994e-36
-3.384944e-36
-3.399023e-36
-3.402484e-36
-3.395209e-36
-3.3787e-36
-3.381007e-36
-3.434967e-36
-3.435063e-36
-3.424504e-36
-3.363382e-36
-3.317329e-36
-3.1924e-36
-2.934836e-36
-3.458279e-36
-3.055928e-36
-5.324195e-36
-1.964733e-36
-1.834488e-36
-2.832786e-36
-3.386769e-36
-3.302707e-36
-3.349331e-36
-3.501691e-36
-3.347607e-36
-3.358606e-36
-3.355262e-36
-3.361871e-36
-3.37031e-36
-3.374438e-36
-3.376404e-36
-3.375052e-36
-3.368213e-36
-3.359714e-36
-3.354375e-36
-3.369851e-36
-3.433032e-36
-3.381261e-36
-3.302891e-36
-3.311517e-36
-3.169904e-36
-3.118096e-36
-3.426511e-36
-2.984969e-36
-5.324117e-36
-1.547264e-36
-3.148948e-36
-2.732188e-36
-3.282505e-36
-3.302638e-36
-3.351448e-36
-3.515342e-36
-3.371063e-36
-3.357049e-36
-3.366167e-36
-3.371706e-36
-3.371579e-36
-3.366457e-36
-3.362515e-36
-3.36296e-36
-3.366543e-36
-3.370858e-36
-3.375707e-36
-3.370873e-36
-3.362515e-36
-3.379471e-36
-3.447357e-36
-3.391897e-36
-3.305228e-36
-3.311895e-36
-3.559849e-36
-3.602539e-36
-3.152057e-36
-2.521259e-36
-3.157744e-36
-2.800133e-36
-2.361667e-36
-3.087269e-36
-3.487635e-36
-3.349104e-36
-3.515947e-36
-3.380405e-36
-3.367359e-36
-3.369575e-36
-3.377322e-36
-3.380222e-36
-3.374919e-36
-3.366832e-36
-3.340738e-36
-3.334121e-36
-3.348919e-36
-3.370801e-36
-3.381536e-36
-3.381561e-36
-3.37792e-36
-3.369597e-36
-3.388543e-36
-3.45102e-36
-3.389561e-36
-3.320164e-36
-3.359899e-36
-3.247626e-36
-3.523025e-36
-2.317258e-36
-5.324135e-36
-2.082931e-36
-1.880686e-36
-2.930925e-36
-3.553263e-36
-3.366046e-36
-3.501018e-36
-3.370884e-36
-3.367368e-36
-3.369701e-36
-3.372307e-36
-3.375668e-36
-3.378047e-36
-3.35584e-36
-3.338861e-36
-3.321092e-36
-3.316426e-36
-3.325868e-36
-3.343591e-36
-3.363685e-36
-3.378829e-36
-3.380648e-36
-3.374418e-36
-3.368982e-36
-3.385429e-36
-3.437416e-36
-3.386195e-36
-3.409942e-36
-3.259047e-36
-3.278714e-36
-3.731006e-36
-2.449936e-36
-2.903549e-36
-2.877323e-36
-2.580961e-36
-3.27761e-36
-3.300514e-36
-3.395675e-36
-3.347082e-36
-3.356688e-36
-3.369542e-36
-3.372273e-36
-3.369798e-36
-3.352555e-36
-3.345904e-36
-3.33645e-36
-3.331106e-36
-3.326474e-36
-3.325084e-36
-3.32711e-36
-3.331868e-36
-3.338821e-36
-3.348444e-36
-3.362917e-36
-3.373079e-36
-3.373103e-36
-3.36658e-36
-3.373703e-36
-3.352478e-36
-3.267421e-36
-3.315599e-36
-3.647708e-36
-3.520011e-36
-2.185227e-36
-3.920822e-36
-2.914264e-36
-2.9481e-36
-3.293927e-36
-3.362159e-36
-3.522086e-36
-3.357995e-36
-3.365758e-36
-3.377255e-36
-3.375448e-36
-3.352415e-36
-3.334041e-36
-3.333781e-36
-3.339715e-36
-3.346779e-36
-3.351057e-36
-3.351765e-36
-3.348827e-36
-3.342913e-36
-3.336229e-36
-3.333773e-36
-3.34396e-36
-3.362301e-36
-3.375053e-36
-3.374325e-36
-3.384676e-36
-3.439871e-36
-3.372281e-36
-3.343809e-36
-3.643373e-36
-3.659903e-36
-3.072704e-36
-3.910819e-36
-1.648301e-36
-3.075671e-36
-3.427429e-36
-3.44818e-36
-3.356597e-36
-3.354865e-36
-3.371341e-36
-3.379848e-36
-3.377658e-36
-3.34568e-36
-3.333698e-36
-3.34271e-36
-3.358502e-36
-3.372506e-36
-3.380957e-36
-3.382629e-36
-3.377358e-36
-3.366007e-36
-3.350965e-36
-3.337989e-36
-3.338116e-36
-3.358588e-36
-3.376746e-36
-3.378103e-36
-3.369808e-36
-3.376445e-36
-3.364873e-36
-3.348903e-36
-3.306801e-36
-3.288449e-36
-3.420958e-36
-5.324129e-36
-2.166213e-36
-2.420343e-36
-3.309329e-36
-3.292142e-36
-3.492932e-36
-3.365499e-36
-3.361401e-36
-3.371387e-36
-3.374522e-36
-3.355511e-36
-3.336275e-36
-3.339639e-36
-3.358479e-36
-3.380027e-36
-3.397261e-36
-3.407384e-36
-3.409422e-36
-3.403198e-36
-3.389449e-36
-3.370056e-36
-3.349661e-36
-3.337632e-36
-3.344737e-36
-3.361865e-36
-3.37299e-36
-3.374044e-36
-3.390712e-36
-3.397709e-36
-3.377311e-36
-3.30811e-36
-3.666314e-36
-3.862033e-36
-2.139173e-36
-2.730218e-36
-2.862719e-36
-2.721858e-36
-3.214029e-36
-3.313142e-36
-3.521991e-36
-3.384556e-36
-3.369702e-36
-3.366122e-36
-3.366494e-36
-3.338621e-36
-3.330988e-36
-3.346704e-36
-3.372448e-36
-3.397216e-36
-3.416147e-36
-3.42715e-36
-3.429389e-36
-3.422627e-36
-3.407594e-36
-3.385805e-36
-3.360533e-36
-3.339005e-36
-3.333409e-36
-3.349744e-36
-3.366324e-36
-3.374468e-36
-3.405574e-36
-3.422983e-36
-3.377372e-36
-3.259719e-36
-3.721927e-36
-3.524463e-36
-2.028678e-36
-3.683625e-36
-3.024194e-36
-2.830058e-36
-3.246868e-36
-3.331178e-36
-3.539826e-36
-3.399157e-36
-3.374356e-36
-3.362414e-36
-3.340652e-36
-3.321053e-36
-3.326441e-36
-3.350996e-36
-3.380886e-36
-3.407305e-36
-3.427086e-36
-3.438168e-36
-3.440475e-36
-3.433623e-36
-3.418189e-36
-3.395203e-36
-3.36741e-36
-3.340399e-36
-3.32494e-36
-3.331018e-36
-3.350305e-36
-3.370495e-36
-3.413702e-36
-3.438302e-36
-3.392782e-36
-3.281974e-36
-3.752112e-36
-3.680029e-36
-2.806554e-36
-3.732486e-36
-3.052652e-36
-2.843163e-36
-3.251497e-36
-3.334701e-36
-3.544568e-36
-3.403199e-36
-3.376973e-36
-3.363367e-36
-3.334365e-36
-3.31655e-36
-3.325129e-36
-3.351749e-36
-3.382575e-36
-3.409334e-36
-3.429271e-36
-3.440358e-36
-3.442686e-36
-3.435825e-36
-3.420395e-36
-3.39729e-36
-3.369233e-36
-3.34135e-36
-3.323285e-36
-3.328018e-36
-3.346137e-36
-3.36916e-36
-3.415209e-36
-3.441027e-36
-3.395592e-36
-3.286562e-36
-3.757338e-36
-3.688974e-36
-2.850243e-36
-3.611816e-36
-2.989638e-36
-2.804506e-36
-3.230782e-36
-3.322306e-36
-3.535094e-36
-3.396253e-36
-3.375751e-36
-3.366903e-36
-3.349254e-36
-3.326044e-36
-3.32718e-36
-3.348819e-36
-3.377315e-36
-3.403121e-36
-3.42251e-36
-3.433493e-36
-3.435764e-36
-3.429116e-36
-3.414044e-36
-3.39193e-36
-3.365845e-36
-3.341778e-36
-3.331028e-36
-3.335666e-36
-3.356864e-36
-3.3699e-36
-3.409451e-36
-3.43073e-36
-3.385904e-36
-3.273685e-36
-3.736322e-36
-3.646456e-36
-2.68673e-36
-2.376421e-36
-2.852358e-36
-2.580439e-36
-3.202355e-36
-3.319635e-36
-3.512044e-36
-3.379698e-36
-3.368578e-36
-3.370973e-36
-3.371014e-36
-3.34374e-36
-3.331928e-36
-3.342904e-36
-3.365973e-36
-3.389383e-36
-3.407475e-36
-3.418039e-36
-3.420281e-36
-3.413978e-36
-3.399932e-36
-3.379947e-36
-3.35791e-36
-3.341195e-36
-3.342572e-36
-3.355867e-36
-3.36568e-36
-3.370918e-36
-3.396981e-36
-3.408492e-36
-3.368014e-36
-3.270626e-36
-3.722164e-36
-3.741222e-36
-4.037969e-37
-4.198447e-36
-2.459887e-36
-3.186426e-36
-3.357536e-36
-3.485763e-36
-3.381856e-36
-3.359817e-36
-3.375922e-36
-3.381634e-36
-3.363749e-36
-3.338837e-36
-3.336218e-36
-3.350934e-36
-3.369976e-36
-3.385657e-36
-3.394976e-36
-3.39705e-36
-3.391767e-36
-3.379869e-36
-3.363476e-36
-3.347499e-36
-3.3423e-36
-3.350079e-36
-3.370916e-36
-3.37454e-36
-3.373219e-36
-3.398511e-36
-3.388051e-36
-3.36539e-36
-3.555064e-36
-3.932378e-36
-3.315457e-36
-3.966476e-36
-3.19491e-36
-2.94276e-36
-3.307582e-36
-3.395439e-36
-3.435695e-36
-3.354575e-36
-3.371345e-36
-3.381707e-36
-3.378813e-36
-3.348407e-36
-3.333748e-36
-3.337951e-36
-3.349564e-36
-3.360329e-36
-3.367063e-36
-3.368754e-36
-3.365548e-36
-3.357757e-36
-3.34744e-36
-3.339324e-36
-3.345357e-36
-3.362021e-36
-3.374188e-36
-3.376024e-36
-3.38679e-36
-3.331674e-36
-3.397978e-36
-3.359972e-36
-3.680394e-36
-3.792169e-36
-3.200232e-36
-3.751615e-36
-3.009646e-36
-2.792003e-36
-3.274496e-36
-3.298668e-36
-3.435413e-36
-3.369874e-36
-3.363124e-36
-3.378251e-36
-3.380609e-36
-3.362764e-36
-3.343863e-36
-3.338066e-36
-3.337531e-36
-3.33877e-36
-3.339932e-36
-3.340689e-36
-3.341405e-36
-3.341019e-36
-3.342203e-36
-3.345284e-36
-3.350917e-36
-3.369296e-36
-3.374547e-36
-3.374875e-36
-3.396229e-36
-3.371245e-36
-3.250654e-36
-3.349356e-36
-3.741091e-36
-3.550506e-36
-2.955574e-36
-2.364414e-36
-2.976345e-36
-2.697609e-36
-3.183285e-36
-3.323753e-36
-3.425648e-36
-3.433202e-36
-3.380049e-36
-3.369938e-36
-3.374413e-36
-3.372829e-36
-3.362176e-36
-3.358537e-36
-3.344629e-36
-3.333174e-36
-3.324513e-36
-3.322646e-36
-3.330679e-36
-3.342454e-36
-3.350022e-36
-3.361878e-36
-3.369128e-36
-3.369241e-36