/*--------------------------------*- C++ -*----------------------------------*\
  =========                 |
  \\      /  F ield         | OpenFOAM: The Open Source CFD Toolbox
   \\    /   O peration     | Website:  https://openfoam.org
    \\  /    A nd           | Version:  6
     \\/     M anipulation  |
\*---------------------------------------------------------------------------*/
FoamFile
{
    version     2.0;
    format      ascii;
    class       volScalarField;
    location    "50/region0/neutronTransport";
    object      flux1;
}
// * * * * * * * * * * * * * * * * * * * * * * * * * * * * * * * * * * * * * //

dimensions      [0 -2 -1 0 0 0 0];

internalField   nonuniform List<scalar> 
203709
(
1.286587e+17
1.424929e+17
1.424664e+17
1.286623e+17
1.345714e+17
1.516773e+17
1.903368e+17
1.881235e+17
1.880861e+17
1.902807e+17
1.516076e+17
1.34496e+17
1.314356e+17
1.522493e+17
1.927444e+17
1.919032e+17
1.975019e+17
1.988622e+17
1.988372e+17
1.974368e+17
1.917995e+17
1.92603e+17
1.521007e+17
1.312787e+17
1.314603e+17
1.873429e+17
1.91111e+17
1.986882e+17
2.025588e+17
2.05999e+17
2.075028e+17
2.07485e+17
2.059232e+17
2.024393e+17
1.985315e+17
1.909157e+17
1.871162e+17
1.312689e+17
1.522764e+17
1.911236e+17
1.99832e+17
2.059547e+17
2.105825e+17
2.139273e+17
2.155791e+17
2.155612e+17
2.138487e+17
2.104593e+17
2.057936e+17
1.996289e+17
1.908858e+17
1.520502e+17
1.346161e+17
1.927828e+17
1.98711e+17
2.059513e+17
2.122502e+17
2.172228e+17
2.206735e+17
2.223734e+17
2.223538e+17
2.206146e+17
2.171343e+17
2.12114e+17
2.057701e+17
1.984907e+17
1.925279e+17
1.343979e+17
1.517148e+17
1.919385e+17
2.025714e+17
2.105554e+17
2.171958e+17
2.223836e+17
2.258354e+17
2.274583e+17
2.274449e+17
2.258036e+17
2.223208e+17
2.171082e+17
2.104284e+17
2.023887e+17
1.917054e+17
1.514953e+17
1.287421e+17
1.904151e+17
1.975751e+17
2.06047e+17
2.139461e+17
2.206762e+17
2.258431e+17
2.29047e+17
2.306355e+17
2.306289e+17
2.290295e+17
2.257948e+17
2.206052e+17
2.138307e+17
2.058731e+17
1.973521e+17
1.90168e+17
1.285031e+17
1.425447e+17
1.88197e+17
1.98948e+17
2.075975e+17
2.156533e+17
2.224288e+17
2.275083e+17
2.306712e+17
2.324009e+17
2.32343e+17
2.306417e+17
2.274668e+17
2.223642e+17
2.155399e+17
2.074298e+17
1.987486e+17
1.879606e+17
1.42321e+17
1.425661e+17
1.882437e+17
1.989771e+17
2.076142e+17
2.156804e+17
2.224663e+17
2.275392e+17
2.307043e+17
2.32474e+17
2.32411e+17
2.306744e+17
2.274945e+17
2.223894e+17
2.15575e+17
2.074656e+17
1.987834e+17
1.880147e+17
1.423696e+17
1.287223e+17
1.904721e+17
1.976274e+17
2.061149e+17
2.140404e+17
2.207884e+17
2.259519e+17
2.291548e+17
2.307459e+17
2.307184e+17
2.291173e+17
2.258966e+17
2.207043e+17
2.139301e+17
2.059701e+17
1.974451e+17
1.902399e+17
1.285721e+17
1.517445e+17
1.920084e+17
2.026789e+17
2.10707e+17
2.173644e+17
2.225414e+17
2.259841e+17
2.276152e+17
2.275819e+17
2.259469e+17
2.224714e+17
2.172698e+17
2.105841e+17
2.025305e+17
1.918472e+17
1.516053e+17
1.346544e+17
1.928684e+17
1.988145e+17
2.060878e+17
2.124042e+17
2.173944e+17
2.208375e+17
2.225619e+17
2.225344e+17
2.208045e+17
2.17325e+17
2.123155e+17
2.059784e+17
1.986895e+17
1.927246e+17
1.34532e+17
1.523491e+17
1.912312e+17
1.999656e+17
2.061105e+17
2.107521e+17
2.141149e+17
2.158736e+17
2.158529e+17
2.140709e+17
2.106877e+17
2.06028e+17
1.998719e+17
1.911406e+17
1.522557e+17
1.315391e+17
1.874858e+17
1.912492e+17
1.98849e+17
2.027226e+17
2.061814e+17
2.07784e+17
2.077742e+17
2.061538e+17
2.026812e+17
1.987871e+17
1.911711e+17
1.873998e+17
1.314425e+17
1.315346e+17
1.523589e+17
1.929016e+17
1.920426e+17
1.976792e+17
1.991022e+17
1.991159e+17
1.976752e+17
1.920458e+17
1.928783e+17
1.523071e+17
1.314767e+17
1.346637e+17
1.517748e+17
1.905154e+17
1.883826e+17
1.884151e+17
1.905335e+17
1.517893e+17
1.346666e+17
1.28772e+17
1.426153e+17
1.426359e+17
1.287963e+17
1.078722e+17
1.234975e+17
1.286284e+17
1.321346e+17
1.343257e+17
1.343128e+17
1.320985e+17
1.285702e+17
1.234237e+17
1.078031e+17
1.100877e+17
1.29273e+17
1.669772e+17
1.723563e+17
1.786642e+17
1.857433e+17
1.913581e+17
1.913418e+17
1.857058e+17
1.785706e+17
1.721956e+17
1.667563e+17
1.290665e+17
1.098932e+17
1.126604e+17
1.640947e+17
1.732863e+17
1.86924e+17
1.999723e+17
2.108803e+17
2.253531e+17
2.371931e+17
2.371707e+17
2.252961e+17
2.107386e+17
1.997656e+17
1.867008e+17
1.730341e+17
1.638363e+17
1.124672e+17
1.137754e+17
1.671592e+17
1.823832e+17
1.992059e+17
2.167501e+17
2.422957e+17
2.741223e+17
3.068228e+17
3.18218e+17
3.181824e+17
3.06694e+17
2.739498e+17
2.421052e+17
2.165447e+17
1.989639e+17
1.821071e+17
1.668281e+17
1.135561e+17
1.12659e+17
1.671415e+17
1.842555e+17
2.039934e+17
2.374859e+17
2.780842e+17
3.228916e+17
3.551002e+17
3.791213e+17
4.178858e+17
4.178343e+17
3.790004e+17
3.549061e+17
3.226265e+17
2.778214e+17
2.371899e+17
2.037033e+17
1.839147e+17
1.667721e+17
1.12408e+17
1.101086e+17
1.641476e+17
1.824023e+17
2.04016e+17
2.501412e+17
3.127116e+17
3.548895e+17
3.89607e+17
4.453118e+17
4.702004e+17
4.848732e+17
4.848139e+17
4.700324e+17
4.450494e+17
3.892894e+17
3.545161e+17
3.122775e+17
2.497363e+17
2.036198e+17
1.82e+17
1.637414e+17
1.098301e+17
1.292558e+17
1.732947e+17
1.9923e+17
2.375169e+17
3.127278e+17
3.718468e+17
4.386652e+17
4.75529e+17
5.042929e+17
5.220173e+17
5.310199e+17
5.309543e+17
5.218274e+17
5.040014e+17
4.751417e+17
4.381905e+17
3.713364e+17
3.122137e+17
2.37059e+17
1.988131e+17
1.728955e+17
1.289311e+17
1.079216e+17
1.669884e+17
1.869279e+17
2.16792e+17
2.781265e+17
3.549763e+17
4.387087e+17
4.887652e+17
5.209426e+17
5.43148e+17
5.572197e+17
5.641369e+17
5.640757e+17
5.57035e+17
5.428545e+17
5.205449e+17
4.882745e+17
4.381602e+17
3.54447e+17
2.776685e+17
2.163848e+17
1.865105e+17
1.665419e+17
1.075991e+17
1.23547e+17
1.724285e+17
2.000002e+17
2.423833e+17
3.230357e+17
3.897506e+17
4.756206e+17
5.209769e+17
5.501051e+17
5.697148e+17
5.820932e+17
5.881032e+17
5.880505e+17
5.819366e+17
5.69461e+17
5.497436e+17
5.20507e+17
4.750678e+17
3.891926e+17
3.225027e+17
2.418961e+17
1.995705e+17
1.719793e+17
1.23189e+17
1.286829e+17
1.787709e+17
2.109412e+17
2.741971e+17
3.552982e+17
4.455025e+17
5.044264e+17
5.432161e+17
5.697481e+17
5.879455e+17
5.994822e+17
6.051037e+17
6.050579e+17
5.993507e+17
5.877272e+17
5.694415e+17
5.428035e+17
5.039075e+17
4.44906e+17
3.546778e+17
2.737328e+17
2.10538e+17
1.783214e+17
1.283279e+17
1.32192e+17
1.858742e+17
2.255058e+17
3.070217e+17
3.793814e+17
4.704722e+17
5.222326e+17
5.57377e+17
5.822148e+17
5.995622e+17
6.105791e+17
6.159635e+17
6.159165e+17
6.104556e+17
5.993609e+17
5.819403e+17
5.570105e+17
5.217606e+17
4.69912e+17
3.788041e+17
3.065234e+17
2.250537e+17
1.854411e+17
1.318634e+17
1.343789e+17
1.914685e+17
2.373393e+17
3.184646e+17
4.18219e+17
4.852274e+17
5.313478e+17
5.644273e+17
5.883621e+17
6.053127e+17
6.160889e+17
6.213878e+17
6.21315e+17
6.159512e+17
6.051103e+17
5.880934e+17
5.6408e+17
5.309128e+17
4.847196e+17
4.176794e+17
3.179925e+17
2.369348e+17
1.9109e+17
1.340774e+17
1.343607e+17
1.914335e+17
2.373011e+17
3.184444e+17
4.182382e+17
4.852707e+17
5.314084e+17
5.645056e+17
5.884514e+17
6.054019e+17
6.161838e+17
6.215036e+17
6.214288e+17
6.160494e+17
6.052058e+17
5.881897e+17
5.64179e+17
5.310134e+17
4.848216e+17
4.177694e+17
3.180241e+17
2.369398e+17
1.910928e+17
1.340786e+17
1.321487e+17
1.858304e+17
2.25511e+17
3.070655e+17
3.794117e+17
4.705798e+17
5.224043e+17
5.576033e+17
5.824766e+17
5.998299e+17
6.108526e+17
6.162515e+17
6.161968e+17
6.107328e+17
5.996483e+17
5.822356e+17
5.573096e+17
5.220605e+17
4.702054e+17
3.790593e+17
3.067034e+17
2.251946e+17
1.85531e+17
1.318897e+17
1.28656e+17
1.787643e+17
2.110078e+17
2.742898e+17
3.553769e+17
4.456691e+17
5.046772e+17
5.435424e+17
5.701277e+17
5.883456e+17
5.998972e+17
6.055435e+17
6.054983e+17
5.998015e+17
5.881919e+17
5.69922e+17
5.432939e+17
5.043928e+17
4.45363e+17
3.550944e+17
2.739647e+17
2.107029e+17
1.784985e+17
1.2842e+17
1.235438e+17
1.724545e+17
2.000869e+17
2.424523e+17
3.231942e+17
3.899611e+17
4.759145e+17
5.213403e+17
5.505293e+17
5.701927e+17
5.8261e+17
5.8866e+17
5.886274e+17
5.825451e+17
5.700859e+17
5.503822e+17
5.211569e+17
4.75696e+17
3.897072e+17
3.229208e+17
2.422199e+17
1.998122e+17
1.722066e+17
1.233257e+17
1.079267e+17
1.670429e+17
1.870223e+17
2.168805e+17
2.783121e+17
3.552129e+17
4.390311e+17
4.891538e+17
5.213987e+17
5.436695e+17
5.578069e+17
5.647642e+17
5.647465e+17
5.57769e+17
5.436105e+17
5.213126e+17
4.890388e+17
4.388777e+17
3.550094e+17
2.780841e+17
2.166905e+17
1.8678e+17
1.668038e+17
1.077489e+17
1.293389e+17
1.733807e+17
1.993202e+17
2.376644e+17
3.129749e+17
3.721624e+17
4.390728e+17
4.760189e+17
5.048558e+17
5.226586e+17
5.316905e+17
5.316887e+17
5.226518e+17
5.048425e+17
4.759882e+17
4.390255e+17
3.720848e+17
3.128362e+17
2.375063e+17
1.991774e+17
1.731767e+17
1.291167e+17
1.101765e+17
1.642063e+17
1.824903e+17
2.041384e+17
2.503302e+17
3.12992e+17
3.552768e+17
3.900906e+17
4.458876e+17
4.708763e+17
4.85597e+17
4.856168e+17
4.708997e+17
4.459108e+17
3.900942e+17
3.55285e+17
3.129788e+17
2.502571e+17
2.040377e+17
1.823852e+17
1.640493e+17
1.099772e+17
1.127383e+17
1.672864e+17
1.843969e+17
2.041305e+17
2.376593e+17
2.783524e+17
3.233255e+17
3.556077e+17
3.797039e+17
4.18553e+17
4.185892e+17
3.797556e+17
3.556429e+17
3.233357e+17
2.783819e+17
2.376745e+17
2.041099e+17
1.8434e+17
1.672004e+17
1.126172e+17
1.138635e+17
1.672802e+17
1.825108e+17
1.993696e+17
2.169457e+17
2.425003e+17
2.744182e+17
3.073069e+17
3.187506e+17
3.187747e+17
3.07329e+17
2.74462e+17
2.425825e+17
2.169796e+17
1.99382e+17
1.825091e+17
1.672594e+17
1.138155e+17
1.127067e+17
1.642407e+17
1.734156e+17
1.8705e+17
2.001182e+17
2.11111e+17
2.256762e+17
2.375515e+17
2.375675e+17
2.257129e+17
2.111427e+17
2.002013e+17
1.871472e+17
1.734791e+17
1.642675e+17
1.127109e+17
1.101801e+17
1.293493e+17
1.671081e+17
1.725479e+17
1.789037e+17
1.860163e+17
1.91668e+17
1.916902e+17
1.860701e+17
1.789664e+17
1.726226e+17
1.672336e+17
1.294393e+17
1.102307e+17
1.079529e+17
1.235988e+17
1.287416e+17
1.322692e+17
1.345017e+17
1.34519e+17
1.323461e+17
1.288469e+17
1.237089e+17
1.080393e+17
9.147271e+16
1.045102e+17
1.076704e+17
1.088603e+17
1.088238e+17
1.075638e+17
1.043298e+17
9.13196e+16
9.136246e+16
1.105967e+17
1.214699e+17
1.551521e+17
1.609883e+17
1.643869e+17
1.659152e+17
1.658703e+17
1.642503e+17
1.607725e+17
1.549736e+17
1.213338e+17
1.104706e+17
9.129793e+16
1.009612e+17
1.502577e+17
1.649669e+17
1.82664e+17
2.019431e+17
2.107615e+17
2.161455e+17
2.186474e+17
2.185971e+17
2.159977e+17
2.105277e+17
2.016596e+17
1.823992e+17
1.647075e+17
1.499999e+17
1.008381e+17
9.446771e+16
1.185599e+17
1.617826e+17
1.936844e+17
2.283284e+17
2.68063e+17
2.877472e+17
2.990692e+17
3.065693e+17
3.104315e+17
3.103607e+17
3.063627e+17
2.987412e+17
2.873213e+17
2.675854e+17
2.278959e+17
1.933185e+17
1.61391e+17
1.182661e+17
9.419205e+16
9.537453e+16
1.471143e+17
1.714441e+17
2.153615e+17
2.730589e+17
3.132604e+17
3.468777e+17
3.997481e+17
4.243419e+17
4.387987e+17
4.459557e+17
4.458673e+17
4.385461e+17
4.239497e+17
3.992593e+17
3.463831e+17
3.127248e+17
2.724811e+17
2.14804e+17
1.709911e+17
1.466199e+17
9.503988e+16
9.447878e+16
1.471535e+17
1.772282e+17
2.242692e+17
2.934454e+17
3.437101e+17
4.117631e+17
4.55681e+17
4.937738e+17
5.220568e+17
5.412803e+17
5.508207e+17
5.507211e+17
5.410009e+17
5.215924e+17
4.931598e+17
4.549763e+17
4.10984e+17
3.429393e+17
2.926939e+17
2.236524e+17
1.766338e+17
1.46582e+17
9.411178e+16
1.186188e+17
1.71498e+17
2.242966e+17
2.981996e+17
3.554448e+17
4.35597e+17
4.942559e+17
5.420311e+17
5.829044e+17
6.159773e+17
6.397117e+17
6.493778e+17
6.49266e+17
6.393791e+17
6.154535e+17
5.822396e+17
5.412633e+17
4.933934e+17
4.346921e+17
3.545588e+17
2.973161e+17
2.235844e+17
1.708997e+17
1.181692e+17
1.010819e+17
1.618185e+17
2.153695e+17
2.935176e+17
3.554456e+17
4.427742e+17
5.122943e+17
5.733439e+17
6.260256e+17
6.70667e+17
7.038761e+17
7.274902e+17
7.410598e+17
7.409451e+17
7.271528e+17
7.033394e+17
6.699628e+17
6.251893e+17
5.724019e+17
5.113114e+17
4.41765e+17
3.545107e+17
2.926324e+17
2.14672e+17
1.612332e+17
1.006704e+17
9.141774e+16
1.503291e+17
1.937394e+17
2.731075e+17
3.438467e+17
4.357147e+17
5.12362e+17
5.846269e+17
6.50477e+17
7.039693e+17
7.480277e+17
7.84722e+17
8.105079e+17
8.244143e+17
8.242973e+17
8.101648e+17
7.841757e+17
7.473027e+17
7.03082e+17
6.49464e+17
5.835551e+17
5.112524e+17
4.346236e+17
3.428551e+17
2.721987e+17
1.931051e+17
1.497512e+17
9.102527e+16
1.106728e+17
1.65044e+17
2.283599e+17
3.134109e+17
4.119191e+17
4.944272e+17
5.734545e+17
6.505295e+17
7.161321e+17
7.739218e+17
8.205991e+17
8.568306e+17
8.811431e+17
8.935149e+17
8.933958e+17
8.807989e+17
8.562849e+17
8.198659e+17
7.730185e+17
7.150944e+17
6.49404e+17
5.722892e+17
4.932797e+17
4.108277e+17
3.124078e+17
2.276569e+17
1.644775e+17
1.102257e+17
1.215223e+17
1.82695e+17
2.680523e+17
3.471099e+17
4.558975e+17
5.422607e+17
6.261981e+17
7.041127e+17
7.740042e+17
8.338806e+17
8.803184e+17
9.145304e+17
9.370204e+17
9.481948e+17
9.480839e+17
9.366953e+17
9.140061e+17
8.79609e+17
8.330043e+17
7.729909e+17
7.030056e+17
6.250497e+17
5.411107e+17
4.547944e+17
3.460949e+17
2.673363e+17
1.821404e+17
1.210746e+17
9.151557e+16
1.552433e+17
2.01947e+17
2.877912e+17
4.000133e+17
4.940686e+17
5.83212e+17
6.709707e+17
7.482956e+17
8.207831e+17
8.804038e+17
9.256506e+17
9.582492e+17
9.794195e+17
9.898322e+17
9.897358e+17
9.791348e+17
9.577841e+17
9.250051e+17
8.795792e+17
8.198024e+17
7.472037e+17
6.698191e+17
5.820474e+17
4.929501e+17
3.989662e+17
2.870638e+17
2.013778e+17
1.546502e+17
9.114029e+16
1.04502e+17
1.610256e+17
2.108274e+17
2.992144e+17
4.246734e+17
5.224483e+17
6.163645e+17
7.042926e+17
7.851065e+17
8.57125e+17
9.147174e+17
9.583497e+17
9.897053e+17
1.010018e+18
1.019996e+18
1.019909e+18
1.009764e+18
9.892941e+17
9.57782e+17
9.139766e+17
8.562155e+17
7.840617e+17
7.031713e+17
6.152597e+17
5.213514e+17
4.236477e+17
2.984577e+17
2.102235e+17
1.604891e+17
1.041152e+17
1.077104e+17
1.644675e+17
2.162703e+17
3.068169e+17
4.392271e+17
5.418011e+17
6.402556e+17
7.28049e+17
8.110413e+17
8.815914e+17
9.373657e+17
9.796782e+17
1.010174e+18
1.029938e+18
1.03964e+18
1.039556e+18
1.029699e+18
1.009797e+18
9.791697e+17
9.367024e+17
8.807655e+17
8.100782e+17
7.270051e+17
6.391963e+17
5.407357e+17
4.382398e+17
3.060499e+17
2.156651e+17
1.639332e+17
1.073027e+17
1.089572e+17
1.660749e+17
2.188515e+17
3.107794e+17
4.464859e+17
5.514435e+17
6.500601e+17
7.417724e+17
8.2512e+17
8.941613e+17
9.487618e+17
9.903224e+17
1.020375e+18
1.039857e+18
1.049422e+18
1.04933e+18
1.039613e+18
1.019999e+18
9.898273e+17
9.481405e+17
8.934061e+17
8.242476e+17
7.408226e+17
6.490803e+17
5.504609e+17
4.455536e+17
3.100235e+17
2.182396e+17
1.655242e+17
1.085436e+17
1.08966e+17
1.660871e+17
2.188646e+17
3.10802e+17
4.465014e+17
5.51458e+17
6.500893e+17
7.418209e+17
8.251942e+17
8.94264e+17
9.488928e+17
9.904718e+17
1.02053e+18
1.040016e+18
1.049589e+18
1.049497e+18
1.039778e+18
1.020166e+18
9.899976e+17
9.483141e+17
8.93581e+17
8.244194e+17
7.409773e+17
6.492024e+17
5.505623e+17
4.456346e+17
3.100704e+17
2.182653e+17
1.655436e+17
1.085597e+17
1.077485e+17
1.645217e+17
2.163218e+17
3.068878e+17
4.392781e+17
5.418821e+17
6.403889e+17
7.282043e+17
8.11256e+17
8.818846e+17
9.377379e+17
9.801087e+17
1.010623e+18
1.030396e+18
1.040112e+18
1.040033e+18
1.030183e+18
1.010294e+18
9.796817e+17
9.372253e+17
8.812913e+17
8.105902e+17
7.274749e+17
6.395972e+17
5.410782e+17
4.384808e+17
3.061678e+17
2.15737e+17
1.639919e+17
1.073514e+17
1.045801e+17
1.611135e+17
2.109132e+17
2.993443e+17
4.247674e+17
5.226025e+17
6.165978e+17
7.045654e+17
7.854497e+17
8.575676e+17
9.152623e+17
9.58979e+17
9.903832e+17
1.010729e+18
1.020738e+18
1.020674e+18
1.010557e+18
9.901151e+17
9.586295e+17
9.148431e+17
8.570818e+17
7.848965e+17
7.039439e+17
6.159028e+17
5.218872e+17
4.240394e+17
2.986204e+17
2.103396e+17
1.606009e+17
1.041974e+17
9.160406e+16
1.55308e+17
2.02096e+17
2.880068e+17
4.001439e+17
4.942862e+17
5.834807e+17
6.71334e+17
7.487437e+17
8.213321e+17
8.810573e+17
9.264047e+17
9.590893e+17
9.803275e+17
9.907959e+17
9.907518e+17
9.802099e+17
9.589043e+17
9.261591e+17
8.807538e+17
8.209647e+17
7.483053e+17
6.70834e+17
5.829362e+17
4.936698e+17
3.995097e+17
2.872884e+17
2.015469e+17
1.548457e+17
9.126836e+16
1.215907e+17
1.828405e+17
2.683169e+17
3.472275e+17
4.561603e+17
5.425564e+17
6.266189e+17
7.04637e+17
7.7463e+17
8.346138e+17
8.811657e+17
9.154868e+17
9.380736e+17
9.493171e+17
9.492932e+17
9.380099e+17
9.153869e+17
8.810291e+17
8.344336e+17
7.743878e+17
7.043193e+17
6.26252e+17
5.421377e+17
4.556335e+17
3.467505e+17
2.676447e+17
1.823421e+17
1.212265e+17
1.10693e+17
1.651401e+17
2.285605e+17
3.135943e+17
4.122164e+17
4.947416e+17
5.738806e+17
6.510921e+17
7.168088e+17
7.74728e+17
8.215456e+17
8.579051e+17
8.823319e+17
8.947793e+17
8.947737e+17
8.823147e+17
8.578761e+17
8.215023e+17
7.746633e+17
7.166952e+17
6.50903e+17
5.736383e+17
4.944163e+17
4.117628e+17
3.13193e+17
2.280487e+17
1.647353e+17
1.104072e+17
9.140079e+16
1.504443e+17
1.939114e+17
2.733164e+17
3.441156e+17
4.360373e+17
5.127909e+17
5.85196e+17
6.511797e+17
7.048278e+17
7.490547e+17
7.858873e+17
8.11804e+17
8.258062e+17
8.258188e+17
8.118256e+17
7.859097e+17
7.490767e+17
7.048528e+17
6.511707e+17
5.851202e+17
5.126476e+17
4.357982e+17
3.43742e+17
2.729977e+17
1.935047e+17
1.500618e+17
9.121923e+16
1.010657e+17
1.619316e+17
2.155529e+17
2.937188e+17
3.557774e+17
4.432089e+17
5.12865e+17
5.740407e+17
6.268786e+17
6.717062e+17
7.050615e+17
7.288095e+17
7.424875e+17
7.425152e+17
7.288664e+17
7.051256e+17
6.717786e+17
6.269647e+17
5.740986e+17
5.128659e+17
4.43151e+17
3.556538e+17
2.935328e+17
2.152966e+17
1.61651e+17
1.008742e+17
1.186729e+17
1.716319e+17
2.244913e+17
2.984864e+17
3.558039e+17
4.361682e+17
4.949673e+17
5.428732e+17
5.838664e+17
6.17094e+17
6.410062e+17
6.508045e+17
6.508341e+17
6.410795e+17
6.172012e+17
5.840043e+17
5.429916e+17
4.95058e+17
4.362168e+17
3.558131e+17
2.984184e+17
2.243417e+17
1.714302e+17
1.184878e+17
9.456782e+16
1.472822e+17
1.773975e+17
2.245023e+17
2.938513e+17
3.442525e+17
4.123932e+17
4.564428e+17
4.946671e+17
5.230929e+17
5.424702e+17
5.52132e+17
5.521647e+17
5.425767e+17
5.232339e+17
4.948318e+17
4.566202e+17
4.125743e+17
3.443642e+17
2.938931e+17
2.244777e+17
1.77305e+17
1.471368e+17
9.442917e+16
9.544269e+16
1.472986e+17
1.71685e+17
2.15589e+17
2.733755e+17
3.136835e+17
3.474747e+17
4.004714e+17
4.251674e+17
4.397546e+17
4.470278e+17
4.470601e+17
4.398985e+17
4.253853e+17
4.007102e+17
3.476817e+17
3.139324e+17
2.735823e+17
2.156954e+17
1.716927e+17
1.472473e+17
9.537822e+16
9.457516e+16
1.187309e+17
1.619584e+17
1.939421e+17
2.28584e+17
2.683995e+17
2.881203e+17
2.995038e+17
3.071311e+17
3.112446e+17
3.112456e+17
3.073168e+17
2.99784e+17
2.884295e+17
2.686975e+17
2.288249e+17
1.940962e+17
1.620606e+17
1.187409e+17
9.457138e+16
1.010998e+17
1.504451e+17
1.651914e+17
1.828964e+17
2.021714e+17
2.110186e+17
2.164815e+17
2.191292e+17
2.191173e+17
2.166005e+17
2.111901e+17
2.023654e+17
1.830643e+17
1.653187e+17
1.506111e+17
1.011615e+17
9.143098e+16
1.10751e+17
1.216301e+17
1.554002e+17
1.611999e+17
1.646462e+17
1.663407e+17
1.66349e+17
1.647123e+17
1.612942e+17
1.55541e+17
1.217362e+17
1.108263e+17
9.154471e+16
9.163214e+16
1.046265e+17
1.078181e+17
1.091046e+17
1.091113e+17
1.078523e+17
1.046689e+17
9.164166e+16
8.134251e+16
9.235739e+16
9.475504e+16
9.471754e+16
9.224479e+16
8.125312e+16
7.801078e+16
9.806648e+16
1.10167e+17
1.242728e+17
1.564547e+17
1.632422e+17
1.658101e+17
1.657265e+17
1.630221e+17
1.561794e+17
1.241651e+17
1.100976e+17
9.798804e+16
7.798967e+16
7.861582e+16
1.031225e+17
1.459649e+17
1.716341e+17
1.943684e+17
2.278548e+17
2.460293e+17
2.534555e+17
2.570407e+17
2.569221e+17
2.531425e+17
2.456696e+17
2.275875e+17
1.94107e+17
1.713284e+17
1.45748e+17
1.030145e+17
7.857404e+16
8.823225e+16
1.405381e+17
1.775838e+17
2.306938e+17
2.610735e+17
2.911673e+17
3.182733e+17
3.631794e+17
3.803896e+17
3.872077e+17
3.87073e+17
3.80017e+17
3.626647e+17
3.177396e+17
2.905773e+17
2.604972e+17
2.300638e+17
1.772356e+17
1.402198e+17
8.810512e+16
9.479274e+16
1.567821e+17
2.057837e+17
2.658645e+17
3.13015e+17
3.776314e+17
4.195372e+17
4.516908e+17
4.785482e+17
4.949834e+17
5.02513e+17
5.023648e+17
4.945605e+17
4.779126e+17
4.509333e+17
4.187272e+17
3.768205e+17
3.122546e+17
2.650682e+17
2.052225e+17
1.56272e+17
9.451387e+16
9.84903e+16
1.702257e+17
2.389541e+17
2.912328e+17
3.429907e+17
4.276028e+17
4.882657e+17
5.362571e+17
5.701962e+17
5.958858e+17
6.124979e+17
6.204969e+17
6.20335e+17
6.120293e+17
5.951562e+17
5.692697e+17
5.351943e+17
4.871571e+17
4.265494e+17
3.420275e+17
2.902282e+17
2.380259e+17
1.695182e+17
9.808627e+16
9.484455e+16
1.702675e+17
2.498951e+17
3.106282e+17
3.962485e+17
4.671467e+17
5.38188e+17
5.973487e+17
6.464829e+17
6.878503e+17
7.182138e+17
7.375495e+17
7.468907e+17
7.467178e+17
7.370487e+17
7.174303e+17
6.868455e+17
6.453129e+17
5.960566e+17
5.368334e+17
4.657583e+17
3.948987e+17
3.09406e+17
2.487077e+17
1.694765e+17
9.441758e+16
8.832221e+16
1.568467e+17
2.390843e+17
3.1066e+17
4.066917e+17
4.908768e+17
5.692011e+17
6.383552e+17
7.030242e+17
7.578815e+17
8.029406e+17
8.362654e+17
8.578468e+17
8.683166e+17
8.681359e+17
8.573226e+17
8.354296e+17
8.01846e+17
7.565833e+17
7.015635e+17
6.36785e+17
5.675618e+17
4.892549e+17
4.051499e+17
3.093348e+17
2.379426e+17
1.561101e+17
8.790196e+16
7.871254e+16
1.406315e+17
2.059753e+17
2.913453e+17
3.963617e+17
4.909533e+17
5.798827e+17
6.588301e+17
7.35262e+17
8.047147e+17
8.633089e+17
9.109059e+17
9.468239e+17
9.703438e+17
9.814403e+17
9.812529e+17
9.697947e+17
9.459506e+17
9.097642e+17
8.61946e+17
8.031656e+17
7.335753e+17
6.570423e+17
5.780458e+17
4.891893e+17
3.947593e+17
2.90044e+17
2.050368e+17
1.399466e+17
7.830748e+16
1.032417e+17
1.777889e+17
2.659539e+17
3.432665e+17
4.673396e+17
5.693672e+17
6.589232e+17
7.457233e+17
8.270058e+17
8.994001e+17
9.60949e+17
1.010751e+18
1.048431e+18
1.073754e+18
1.086602e+18
1.086415e+18
1.073203e+18
1.047554e+18
1.009596e+18
9.595559e+17
8.978091e+17
8.25269e+17
7.438763e+17
6.570197e+17
5.674751e+17
4.655891e+17
3.418167e+17
2.647977e+17
1.769624e+17
1.02752e+17
7.814042e+16
1.460808e+17
2.30777e+17
3.132303e+17
4.27948e+17
5.384748e+17
6.38624e+17
7.354674e+17
8.271135e+17
9.111789e+17
9.857811e+17
1.049353e+18
1.101279e+18
1.141687e+18
1.169391e+18
1.183578e+18
1.183394e+18
1.168853e+18
1.140828e+18
1.100138e+18
1.047962e+18
9.841822e+17
9.094212e+17
8.252348e+17
7.335233e+17
6.366734e+17
5.365938e+17
4.262768e+17
3.118051e+17
2.297722e+17
1.453848e+17
7.78017e+16
9.811975e+16
1.717292e+17
2.611908e+17
3.779792e+17
4.88627e+17
5.977181e+17
7.033718e+17
8.050151e+17
8.996043e+17
9.858822e+17
1.062268e+18
1.128739e+18
1.18348e+18
1.225706e+18
1.254317e+18
1.268758e+18
1.268581e+18
1.253801e+18
1.224881e+18
1.182377e+18
1.127384e+18
1.060697e+18
9.841396e+17
8.977342e+17
8.030751e+17
7.014117e+17
5.957859e+17
4.868616e+17
3.763751e+17
2.600112e+17
1.709332e+17
9.767367e+16
1.102825e+17
1.945509e+17
2.914397e+17
4.199896e+17
5.366617e+17
6.469547e+17
7.583334e+17
8.637143e+17
9.61265e+17
1.049578e+18
1.128862e+18
1.197963e+18
1.254305e+18
1.297001e+18
1.32558e+18
1.339855e+18
1.339693e+18
1.325102e+18
1.296229e+18
1.253266e+18
1.196682e+18
1.127365e+18
1.047904e+18
9.594588e+17
8.618258e+17
7.564093e+17
6.450344e+17
5.348682e+17
4.182953e+17
2.900874e+17
1.93574e+17
1.096993e+17
1.24432e+17
2.282389e+17
3.187592e+17
4.522436e+17
5.707194e+17
6.8843e+17
8.035187e+17
9.114416e+17
1.011221e+18
1.101665e+18
1.183751e+18
1.25444e+18
1.311343e+18
1.353913e+18
1.38216e+18
1.396191e+18
1.396049e+18
1.38174e+18
1.353227e+18
1.310402e+18
1.253252e+18
1.182337e+18
1.100064e+18
1.009482e+18
9.096122e+17
8.016435e+17
6.865537e+17
5.689267e+17
4.505115e+17
3.172563e+17
2.269442e+17
1.23722e+17
8.147129e+16
1.566269e+17
2.464783e+17
3.637856e+17
4.792074e+17
5.965564e+17
7.189331e+17
8.369993e+17
9.475194e+17
1.049077e+18
1.142256e+18
1.226153e+18
1.297302e+18
1.354077e+18
1.396293e+18
1.424192e+18
1.438017e+18
1.437888e+18
1.423814e+18
1.395683e+18
1.353242e+18
1.296232e+18
1.224853e+18
1.140759e+18
1.047436e+18
9.457866e+17
8.351981e+17
7.171151e+17
5.947729e+17
4.774488e+17
3.621358e+17
2.451158e+17
1.557345e+17
8.097264e+16
9.243041e+16
1.634636e+17
2.539167e+17
3.810675e+17
4.957588e+17
6.133386e+17
7.384498e+17
8.587779e+17
9.712538e+17
1.074622e+18
1.170188e+18
1.254996e+18
1.326113e+18
1.382553e+18
1.424419e+18
1.452039e+18
1.465711e+18
1.465588e+18
1.451685e+18
1.42386e+18
1.381802e+18
1.325148e+18
1.253813e+18
1.168813e+18
1.073099e+18
9.69625e+17
8.570654e+17
7.367042e+17
6.115968e+17
4.940426e+17
3.7945e+17
2.526129e+17
1.625716e+17
9.194805e+16
9.488919e+16
1.661057e+17
2.575451e+17
3.879946e+17
5.034482e+17
6.215322e+17
7.480013e+17
8.694672e+17
9.825911e+17
1.087726e+18
1.184646e+18
1.269727e+18
1.340698e+18
1.396902e+18
1.438555e+18
1.466013e+18
1.479597e+18
1.479472e+18
1.46566e+18
1.438004e+18
1.396177e+18
1.339796e+18
1.268641e+18
1.183389e+18
1.086326e+18
9.810776e+17
8.678622e+17
7.463423e+17
6.19859e+17
5.018049e+17
3.864734e+17
2.563737e+17
1.652789e+17
9.441183e+16
9.489413e+16
1.661286e+17
2.576025e+17
3.880291e+17
5.034874e+17
6.215772e+17
7.480518e+17
8.695266e+17
9.826664e+17
1.087819e+18
1.184764e+18
1.269876e+18
1.340882e+18
1.397111e+18
1.438774e+18
1.466234e+18
1.47982e+18
1.479697e+18
1.465886e+18
1.438235e+18
1.396414e+18
1.340037e+18
1.268883e+18
1.183626e+18
1.086548e+18
9.81276e+17
8.680382e+17
7.464933e+17
6.199892e+17
5.019323e+17
3.865954e+17
2.564803e+17
1.653475e+17
9.444652e+16
9.249052e+16
1.635099e+17
2.53958e+17
3.811241e+17
4.958591e+17
6.134672e+17
7.385951e+17
8.589588e+17
9.71488e+17
1.074903e+18
1.170534e+18
1.255427e+18
1.326637e+18
1.383153e+18
1.42505e+18
1.452681e+18
1.466362e+18
1.46625e+18
1.45236e+18
1.424553e+18
1.382515e+18
1.325878e+18
1.254546e+18
1.169528e+18
1.073769e+18
9.702281e+17
8.575958e+17
7.371448e+17
6.119681e+17
4.944073e+17
3.797954e+17
2.529132e+17
1.627732e+17
9.205462e+16
8.15579e+16
1.56595e+17
2.464402e+17
3.638313e+17
4.793395e+17
5.967602e+17
7.191639e+17
8.372951e+17
9.479021e+17
1.049538e+18
1.142808e+18
1.226821e+18
1.298094e+18
1.354975e+18
1.39726e+18
1.425201e+18
1.439062e+18
1.438967e+18
1.424932e+18
1.396842e+18
1.35444e+18
1.297457e+18
1.226081e+18
1.141952e+18
1.048554e+18
9.467866e+17
8.360665e+17
7.1783e+17
5.953532e+17
4.780089e+17
3.626403e+17
2.455175e+17
1.559405e+17
8.117634e+16
1.244526e+17
2.281315e+17
3.188107e+17
4.524029e+17
5.709969e+17
6.887353e+17
8.039168e+17
9.119365e+17
1.011827e+18
1.102388e+18
1.184606e+18
1.255432e+18
1.312465e+18
1.355145e+18
1.383479e+18
1.397583e+18
1.397513e+18
1.383281e+18
1.354836e+18
1.312066e+18
1.254951e+18
1.184031e+18
1.101701e+18
1.011018e+18
9.109961e+17
8.028376e+17
6.875411e+17
5.697e+17
4.512207e+17
3.17822e+17
2.273832e+17
1.239316e+17
1.102943e+17
1.945846e+17
2.915271e+17
4.201347e+17
5.369807e+17
6.473089e+17
7.588115e+17
8.642936e+17
9.619796e+17
1.050434e+18
1.129862e+18
1.199114e+18
1.255607e+18
1.298444e+18
1.327148e+18
1.341534e+18
1.34149e+18
1.327023e+18
1.298251e+18
1.255356e+18
1.198801e+18
1.129464e+18
1.049926e+18
9.613517e+17
8.635246e+17
7.578839e+17
6.462786e+17
5.358194e+17
4.191152e+17
2.906504e+17
1.938864e+17
1.098166e+17
9.820286e+16
1.718451e+17
2.613637e+17
3.781153e+17
4.889236e+17
5.981224e+17
7.039087e+17
8.056542e+17
9.003866e+17
9.868297e+17
1.06338e+18
1.130028e+18
1.184951e+18
1.227348e+18
1.256114e+18
1.270692e+18
1.270671e+18
1.256053e+18
1.227254e+18
1.184831e+18
1.129869e+18
1.063151e+18
9.864938e+17
8.999262e+17
8.050379e+17
7.031258e+17
5.972539e+17
4.879654e+17
3.772771e+17
2.605454e+17
1.71192e+17
9.775119e+16
7.821021e+16
1.46164e+17
2.310248e+17
3.133396e+17
4.281598e+17
5.388709e+17
6.391694e+17
7.361418e+17
8.279458e+17
9.121923e+17
9.869793e+17
1.05075e+18
1.102884e+18
1.143485e+18
1.171368e+18
1.185719e+18
1.185717e+18
1.171359e+18
1.143469e+18
1.102864e+18
1.050713e+18
9.868857e+17
9.119999e+17
8.276277e+17
7.356698e+17
6.385454e+17
5.381962e+17
4.274478e+17
3.127303e+17
2.302259e+17
1.456565e+17
7.786602e+16
1.032842e+17
1.778483e+17
2.661737e+17
3.433659e+17
4.677204e+17
5.698956e+17
6.596145e+17
7.465923e+17
8.280684e+17
9.006555e+17
9.624095e+17
1.012427e+18
1.050311e+18
1.075829e+18
1.088863e+18
1.088879e+18
1.075868e+18
1.050364e+18
1.012492e+18
9.624678e+17
9.006669e+17
8.279907e+17
7.464005e+17
6.592928e+17
5.694591e+17
4.67215e+17
3.429161e+17
2.656129e+17
1.773714e+17
1.029396e+17
7.871209e+16
1.407243e+17
2.061102e+17
2.916754e+17
3.967929e+17
4.914924e+17
5.805857e+17
6.597189e+17
7.363552e+17
8.060007e+17
8.647922e+17
9.12587e+17
9.487126e+17
9.724467e+17
9.83749e+17
9.837774e+17
9.725272e+17
9.488318e+17
9.127323e+17
8.649312e+17
8.061005e+17
7.363724e+17
6.596283e+17
5.803692e+17
4.911481e+17
3.963471e+17
2.911977e+17
2.056774e+17
1.403734e+17
7.851692e+16
8.833666e+16
1.570168e+17
2.393737e+17
3.10992e+17
4.071627e+17
4.915472e+17
5.700772e+17
6.394281e+17
7.042573e+17
7.593079e+17
8.045644e+17
8.380916e+17
8.598861e+17
8.705633e+17
8.706027e+17
8.600103e+17
8.382759e+17
8.047849e+17
7.595384e+17
7.044635e+17
6.395373e+17
5.70071e+17
4.914415e+17
4.069551e+17
3.107298e+17
2.389656e+17
1.567031e+17
8.816874e+16
9.489153e+16
1.704197e+17
2.502738e+17
3.109827e+17
3.968758e+17
4.679171e+17
5.391337e+17
5.984409e+17
6.477657e+17
6.89315e+17
7.198667e+17
7.394162e+17
7.489747e+17
7.490185e+17
7.395801e+17
7.201242e+17
6.89623e+17
6.480835e+17
5.987352e+17
5.393136e+17
4.679692e+17
3.968545e+17
3.108828e+17
2.500687e+17
1.702185e+17
9.474662e+16
9.854843e+16
1.704196e+17
2.394424e+17
2.917823e+17
3.436529e+17
4.284536e+17
4.892267e+17
5.373489e+17
5.714578e+17
5.973293e+17
6.141615e+17
6.224156e+17
6.224458e+17
6.143365e+17
5.976112e+17
5.718021e+17
5.377208e+17
4.895354e+17
4.28628e+17
3.436684e+17
2.918098e+17
2.394004e+17
1.703387e+17
9.846752e+16
9.486048e+16
1.569861e+17
2.06231e+17
2.663352e+17
3.135163e+17
3.783801e+17
4.204746e+17
4.528266e+17
4.798557e+17
4.964698e+17
5.041733e+17
5.04186e+17
4.96585e+17
4.800475e+17