/*--------------------------------*- C++ -*----------------------------------*\
  =========                 |
  \\      /  F ield         | OpenFOAM: The Open Source CFD Toolbox
   \\    /   O peration     | Website:  https://openfoam.org
    \\  /    A nd           | Version:  6
     \\/     M anipulation  |
\*---------------------------------------------------------------------------*/
FoamFile
{
    version     2.0;
    format      ascii;
    class       volScalarField;
    location    "50/region0/neutronTransport";
    object      precursor5.dnp;
}
// * * * * * * * * * * * * * * * * * * * * * * * * * * * * * * * * * * * * * //

dimensions      [0 -3 0 0 0 0 0];

internalField   nonuniform List<scalar> 
203709
(
1.255073e+12
1.380783e+12
1.380584e+12
1.255282e+12
1.311786e+12
1.468417e+12
1.817755e+12
1.798597e+12
1.798336e+12
1.817531e+12
1.468074e+12
1.311661e+12
1.281734e+12
1.473718e+12
1.841535e+12
1.836258e+12
1.888441e+12
1.901429e+12
1.901317e+12
1.888215e+12
1.83586e+12
1.841209e+12
1.473398e+12
1.281479e+12
1.281925e+12
1.790169e+12
1.828327e+12
1.900014e+12
1.937244e+12
1.969986e+12
1.984455e+12
1.984462e+12
1.969759e+12
1.936869e+12
1.899692e+12
1.827997e+12
1.789918e+12
1.281724e+12
1.473885e+12
1.82839e+12
1.910948e+12
1.96952e+12
2.013863e+12
2.045894e+12
2.061812e+12
2.06182e+12
2.045666e+12
2.013549e+12
1.969218e+12
1.910574e+12
1.827998e+12
1.473529e+12
1.31214e+12
1.841793e+12
1.900224e+12
1.969602e+12
2.029938e+12
2.077543e+12
2.110551e+12
2.126897e+12
2.126867e+12
2.110427e+12
2.07737e+12
2.029594e+12
1.969177e+12
1.899803e+12
1.841389e+12
1.311752e+12
1.468699e+12
1.836514e+12
1.937507e+12
2.014044e+12
2.077744e+12
2.127215e+12
2.160104e+12
2.175603e+12
2.175545e+12
2.159997e+12
2.126926e+12
2.077344e+12
2.013728e+12
1.937211e+12
1.83617e+12
1.468419e+12
1.256013e+12
1.818475e+12
1.889053e+12
1.970537e+12
2.046461e+12
2.111111e+12
2.160535e+12
2.191132e+12
2.206192e+12
2.206042e+12
2.190768e+12
2.159924e+12
2.110546e+12
2.046042e+12
1.97021e+12
1.888783e+12
1.818367e+12
1.255408e+12
1.38146e+12
1.799274e+12
1.902081e+12
1.985234e+12
2.062554e+12
2.127578e+12
2.176296e+12
2.206612e+12
2.223025e+12
2.222386e+12
2.20609e+12
2.175712e+12
2.127074e+12
2.062086e+12
1.984841e+12
1.90189e+12
1.799044e+12
1.381051e+12
1.381703e+12
1.799756e+12
1.90235e+12
1.985303e+12
2.062616e+12
2.127668e+12
2.176312e+12
2.206671e+12
2.223492e+12
2.22285e+12
2.206244e+12
2.175795e+12
2.12709e+12
2.062159e+12
1.984919e+12
1.901985e+12
1.799357e+12
1.381382e+12
1.255925e+12
1.819154e+12
1.889532e+12
1.970926e+12
2.046788e+12
2.111352e+12
2.160748e+12
2.191459e+12
2.206685e+12
2.206428e+12
2.191118e+12
2.160309e+12
2.110807e+12
2.046261e+12
1.970427e+12
1.889036e+12
1.81849e+12
1.255712e+12
1.469118e+12
1.837152e+12
1.938213e+12
2.01478e+12
2.078334e+12
2.127759e+12
2.160672e+12
2.176337e+12
2.176101e+12
2.160524e+12
2.127419e+12
2.077873e+12
2.014198e+12
1.937597e+12
1.836648e+12
1.468807e+12
1.312639e+12
1.842621e+12
1.90098e+12
1.970391e+12
2.030645e+12
2.078283e+12
2.111209e+12
2.127783e+12
2.127657e+12
2.111251e+12
2.078156e+12
2.03044e+12
1.970064e+12
1.900591e+12
1.842188e+12
1.312237e+12
1.474552e+12
1.829158e+12
1.911769e+12
1.970386e+12
2.01476e+12
2.046924e+12
2.06381e+12
2.063751e+12
2.046882e+12
2.014716e+12
1.970295e+12
1.911648e+12
1.829101e+12
1.47435e+12
1.282648e+12
1.79127e+12
1.829309e+12
1.901128e+12
1.938346e+12
1.971259e+12
1.986615e+12
1.986604e+12
1.971225e+12
1.938309e+12
1.900998e+12
1.829134e+12
1.79111e+12
1.282197e+12
1.282817e+12
1.474813e+12
1.842975e+12
1.837481e+12
1.890035e+12
1.903569e+12
1.903695e+12
1.889997e+12
1.837527e+12
1.842793e+12
1.474426e+12
1.282366e+12
1.312996e+12
1.469581e+12
1.819746e+12
1.801237e+12
1.801469e+12
1.81972e+12
1.469505e+12
1.312719e+12
1.256641e+12
1.382343e+12
1.382438e+12
1.25658e+12
1.051519e+12
1.195187e+12
1.243858e+12
1.277254e+12
1.298121e+12
1.298088e+12
1.277158e+12
1.243666e+12
1.194927e+12
1.05133e+12
1.072662e+12
1.249819e+12
1.591808e+12
1.643762e+12
1.703055e+12
1.768345e+12
1.819998e+12
1.819951e+12
1.768283e+12
1.702633e+12
1.642874e+12
1.590562e+12
1.248678e+12
1.071663e+12
1.098053e+12
1.565802e+12
1.653753e+12
1.78088e+12
1.901501e+12
2.001869e+12
2.131466e+12
2.238339e+12
2.238229e+12
2.131207e+12
2.000984e+12
1.900198e+12
1.779624e+12
1.652425e+12
1.564688e+12
1.09738e+12
1.109036e+12
1.595298e+12
1.738628e+12
1.895106e+12
2.057294e+12
2.28817e+12
2.574066e+12
2.858179e+12
2.960052e+12
2.959809e+12
2.857255e+12
2.572895e+12
2.287028e+12
2.056234e+12
1.893971e+12
1.737475e+12
1.593966e+12
1.108408e+12
1.09823e+12
1.595251e+12
1.756327e+12
1.939625e+12
2.244171e+12
2.611282e+12
3.006219e+12
3.296688e+12
3.512873e+12
3.863888e+12
3.863518e+12
3.512076e+12
3.295456e+12
3.004635e+12
2.60994e+12
2.242771e+12
1.938537e+12
1.755112e+12
1.594006e+12
1.097562e+12
1.073195e+12
1.566648e+12
1.738932e+12
1.939815e+12
2.356605e+12
2.913007e+12
3.295179e+12
3.609578e+12
4.11533e+12
4.341773e+12
4.475307e+12
4.474953e+12
4.340758e+12
4.113845e+12
3.607994e+12
3.293494e+12
2.911261e+12
2.355138e+12
1.938494e+12
1.737777e+12
1.56552e+12
1.072525e+12
1.250216e+12
1.654227e+12
1.895457e+12
2.244388e+12
2.91307e+12
3.447162e+12
4.054483e+12
4.390788e+12
4.653514e+12
4.815728e+12
4.898264e+12
4.897982e+12
4.814863e+12
4.652325e+12
4.38938e+12
4.052902e+12
3.445705e+12
2.911875e+12
2.243329e+12
1.894714e+12
1.653574e+12
1.249606e+12
1.05271e+12
1.592758e+12
1.781364e+12
2.057826e+12
2.611605e+12
3.295834e+12
4.054803e+12
4.511254e+12
4.805841e+12
5.009615e+12
5.139035e+12
5.20287e+12
5.202699e+12
5.138473e+12
5.008838e+12
4.8049e+12
4.510178e+12
4.053768e+12
3.29503e+12
2.61109e+12
2.057366e+12
1.78072e+12
1.591611e+12
1.051691e+12
1.196587e+12
1.645369e+12
1.902306e+12
2.28919e+12
3.007503e+12
3.610741e+12
4.391588e+12
4.806264e+12
5.073656e+12
5.254106e+12
5.368184e+12
5.42376e+12
5.423651e+12
5.367837e+12
5.253567e+12
5.072894e+12
4.805306e+12
4.390514e+12
3.609719e+12
3.006604e+12
2.288129e+12
1.901482e+12
1.644001e+12
1.195347e+12
1.245362e+12
1.705078e+12
2.003122e+12
2.575112e+12
3.298544e+12
4.116965e+12
4.6549e+12
5.010736e+12
5.254939e+12
5.422549e+12
5.528724e+12
5.580484e+12
5.580261e+12
5.528124e+12
5.421644e+12
5.253977e+12
5.009834e+12
4.654012e+12
4.115934e+12
3.297126e+12
2.574569e+12
2.002468e+12
1.703628e+12
1.244127e+12
1.278789e+12
1.770675e+12
2.133739e+12
2.860589e+12
3.515383e+12
4.344142e+12
4.817842e+12
5.141077e+12
5.370293e+12
5.530217e+12
5.631507e+12
5.680801e+12
5.680209e+12
5.630042e+12
5.528264e+12
5.368475e+12
5.139893e+12
4.817113e+12
4.343493e+12
3.514521e+12
2.859916e+12
2.132664e+12
1.769366e+12
1.277814e+12
1.299565e+12
1.822166e+12
2.240702e+12
2.963107e+12
3.867197e+12
4.478398e+12
4.901136e+12
5.205612e+12
5.426514e+12
5.582977e+12
5.68226e+12
5.730838e+12
5.729893e+12
5.680372e+12
5.580684e+12
5.424443e+12
5.204166e+12
4.900324e+12
4.477942e+12
3.866702e+12
2.962536e+12
2.240014e+12
1.821323e+12
1.298857e+12
1.299382e+12
1.82187e+12
2.240452e+12
2.963092e+12
3.867597e+12
4.478934e+12
4.901657e+12
5.206063e+12
5.426875e+12
5.58327e+12
5.682626e+12
5.731465e+12
5.730571e+12
5.680923e+12
5.581161e+12
5.424848e+12
5.204541e+12
4.900723e+12
4.47843e+12
3.867208e+12
2.962618e+12
2.239932e+12
1.821262e+12
1.298827e+12
1.278352e+12
1.77034e+12
2.134053e+12
2.861423e+12
3.516231e+12
4.345518e+12
4.819377e+12
5.142519e+12
5.37144e+12
5.531283e+12
5.632753e+12
5.682355e+12
5.681776e+12
5.631507e+12
5.529647e+12
5.369768e+12
5.141178e+12
4.818507e+12
4.345056e+12
3.516031e+12
2.860971e+12
2.133591e+12
1.769942e+12
1.277938e+12
1.245073e+12
1.705127e+12
2.004108e+12
2.576572e+12
3.299915e+12
4.118997e+12
4.657281e+12
5.013213e+12
5.257282e+12
5.424739e+12
5.530979e+12
5.582951e+12
5.582653e+12
5.530455e+12
5.42396e+12
5.256401e+12
5.012453e+12
4.656795e+12
4.118757e+12
3.299852e+12
2.575958e+12
2.003468e+12
1.704879e+12
1.24477e+12
1.196537e+12
1.645756e+12
1.90354e+12
2.290383e+12
3.009557e+12
3.613172e+12
4.394491e+12
4.809265e+12
5.076578e+12
5.257013e+12
5.371181e+12
5.427009e+12
5.427027e+12
5.371486e+12
5.257396e+12
5.076931e+12
4.809546e+12
4.394659e+12
3.613003e+12
3.009167e+12
2.290203e+12
1.902986e+12
1.645539e+12
1.196259e+12
1.052775e+12
1.59342e+12
1.782637e+12
2.059075e+12
2.61373e+12
3.298313e+12
4.057757e+12
4.514381e+12
4.809149e+12
5.013208e+12
5.143073e+12
5.207253e+12
5.207491e+12
5.143876e+12
5.014418e+12
4.810516e+12
4.515671e+12
4.058674e+12
3.298429e+12
2.613511e+12
2.059037e+12
1.782186e+12
1.593162e+12
1.052565e+12
1.251127e+12
1.655305e+12
1.896593e+12
2.246004e+12
2.915529e+12
3.450003e+12
4.058014e+12
4.394938e+12
4.658275e+12
4.821226e+12
4.904091e+12
4.904372e+12
4.82204e+12
4.659514e+12
4.396377e+12
4.059488e+12
3.451106e+12
2.915885e+12
2.24606e+12
1.896784e+12
1.654986e+12
1.250461e+12
1.074013e+12
1.567458e+12
1.740092e+12
1.941334e+12
2.358765e+12
2.916093e+12
3.299262e+12
3.6145e+12
4.121143e+12
4.348558e+12
4.482582e+12
4.482866e+12
4.349086e+12
4.121825e+12
3.615028e+12
3.299908e+12
2.916652e+12
2.358958e+12
1.941337e+12
1.740237e+12
1.567288e+12
1.073166e+12
1.099242e+12
1.597034e+12
1.758222e+12
1.941555e+12
2.246552e+12
2.614685e+12
3.011265e+12
3.302493e+12
3.519422e+12
3.871294e+12
3.871556e+12
3.519676e+12
3.302519e+12
3.011015e+12
2.614795e+12
2.246665e+12
1.941525e+12
1.758087e+12
1.596918e+12
1.098791e+12
1.110256e+12
1.597052e+12
1.740596e+12
1.897572e+12
2.060198e+12
2.291323e+12
2.578222e+12
2.864083e+12
2.966323e+12
2.966368e+12
2.86377e+12
2.577992e+12
2.291401e+12
2.059917e+12
1.897237e+12
1.740358e+12
1.596901e+12
1.110025e+12
1.099003e+12
1.568002e+12
1.656009e+12
1.783306e+12
1.904226e+12
2.005383e+12
2.135805e+12
2.242872e+12
2.242809e+12
2.135546e+12
2.004849e+12
1.904032e+12
1.783293e+12
1.655862e+12
1.567725e+12
1.09883e+12
1.074161e+12
1.251439e+12
1.594315e+12
1.646873e+12
1.706566e+12
1.772033e+12
1.823784e+12
1.823754e+12
1.771866e+12
1.706178e+12
1.646437e+12
1.594318e+12
1.251466e+12
1.074023e+12
1.053142e+12
1.197111e+12
1.24583e+12
1.279264e+12
1.300278e+12
1.300241e+12
1.279409e+12
1.245955e+12
1.197132e+12
1.053012e+12
8.909968e+11
1.010239e+12
1.04013e+12
1.051615e+12
1.051338e+12
1.039299e+12
1.008762e+12
8.897123e+11
8.90102e+11
1.06756e+12
1.169054e+12
1.472547e+12
1.527618e+12
1.559845e+12
1.574491e+12
1.574177e+12
1.558846e+12
1.525965e+12
1.471266e+12
1.168138e+12
1.066721e+12
8.897821e+11
9.817358e+11
1.42799e+12
1.564661e+12
1.725312e+12
1.901045e+12
1.982654e+12
2.03281e+12
2.05631e+12
2.055987e+12
2.031821e+12
1.981007e+12
1.899009e+12
1.723545e+12
1.563004e+12
1.426454e+12
9.814451e+11
9.200441e+11
1.143528e+12
1.536097e+12
1.82601e+12
2.138875e+12
2.489472e+12
2.667852e+12
2.771788e+12
2.840954e+12
2.87674e+12
2.876285e+12
2.839591e+12
2.769544e+12
2.664863e+12
2.486165e+12
2.136088e+12
1.823983e+12
1.534194e+12
1.14257e+12
9.192299e+11
9.288269e+11
1.400387e+12
1.62597e+12
2.022706e+12
2.535864e+12
2.899519e+12
3.20363e+12
3.683589e+12
3.907726e+12
4.039664e+12
4.105178e+12
4.104612e+12
4.038029e+12
3.90515e+12
3.680379e+12
3.200607e+12
2.896327e+12
2.532525e+12
2.01987e+12
1.624314e+12
1.398652e+12
9.279791e+11
9.201708e+11
1.400797e+12
1.679208e+12
2.104999e+12
2.721788e+12
3.175993e+12
3.793932e+12
4.193562e+12
4.540246e+12
4.797668e+12
4.972146e+12
5.058955e+12
5.058281e+12
4.970273e+12
4.794505e+12
4.536086e+12
4.188938e+12
3.788988e+12
3.171427e+12
2.717731e+12
2.102345e+12
1.676806e+12
1.398813e+12
9.191702e+11
1.144276e+12
1.626756e+12
2.1055e+12
2.765837e+12
3.28375e+12
4.011896e+12
4.545787e+12
4.980894e+12
5.352531e+12
5.652872e+12
5.866913e+12
5.954602e+12
5.953784e+12
5.864482e+12
5.649098e+12
5.347907e+12
4.975809e+12
4.540348e+12
4.0065e+12
3.278932e+12
2.761219e+12
2.102346e+12
1.624541e+12
1.142888e+12
9.831108e+11
1.536918e+12
2.023424e+12
2.723118e+12
3.28415e+12
4.077898e+12
4.710699e+12
5.26624e+12
5.745675e+12
6.150667e+12
6.452884e+12
6.667664e+12
6.791304e+12
6.790426e+12
6.665122e+12
6.44896e+12
6.145799e+12
5.740214e+12
5.260455e+12
4.705075e+12
4.072505e+12
3.279619e+12
2.718944e+12
2.020626e+12
1.534894e+12
9.817134e+11
8.908517e+11
1.4292e+12
1.827365e+12
2.537432e+12
3.178361e+12
4.013746e+12
4.711574e+12
5.368725e+12
5.966782e+12
6.454367e+12
6.856274e+12
7.19141e+12
7.427015e+12
7.554191e+12
7.553386e+12
7.42467e+12
7.187815e+12
6.851813e+12
6.449246e+12
5.961385e+12
5.363387e+12
4.706281e+12
4.008712e+12
3.174017e+12
2.533489e+12
1.82523e+12
1.427323e+12
8.896226e+11
1.068824e+12
1.566368e+12
2.140585e+12
2.902686e+12
3.797078e+12
4.54837e+12
5.267555e+12
5.967217e+12
6.564763e+12
7.09262e+12
7.519617e+12
7.851397e+12
8.074267e+12
8.187894e+12
8.187234e+12
8.072389e+12
7.84863e+12
7.516202e+12
7.088756e+12
6.560764e+12
5.963268e+12
5.263575e+12
4.544386e+12
3.793011e+12
2.898638e+12
2.138394e+12
1.564745e+12
1.067523e+12
1.1704e+12
1.727014e+12
2.491394e+12
3.208027e+12
4.197603e+12
4.984023e+12
5.747431e+12
6.455455e+12
7.09319e+12
7.640927e+12
8.066513e+12
8.380488e+12
8.587201e+12
8.690239e+12
8.689841e+12
8.586048e+12
8.378777e+12
8.06442e+12
7.638628e+12
7.090878e+12
6.453179e+12
5.744925e+12
4.981007e+12
4.193989e+12
3.204173e+12
2.48946e+12
1.725611e+12
1.16919e+12
8.920025e+11
1.474545e+12
1.902742e+12
2.670636e+12
3.688846e+12
4.5453e+12
5.356445e+12
6.153555e+12
6.858406e+12
7.521062e+12
8.067282e+12
8.482553e+12
8.7821e+12
8.976851e+12
9.072924e+12
9.072684e+12
8.976152e+12
8.781061e+12
8.481241e+12
8.065737e+12
7.519326e+12
6.856479e+12
6.151334e+12
5.353556e+12
4.541642e+12
3.684825e+12
2.668526e+12
1.901274e+12
1.472574e+12
8.908575e+11
1.010894e+12
1.529168e+12
1.984973e+12
2.7756e+12
3.913842e+12
4.803867e+12
5.657756e+12
6.456865e+12
7.194617e+12
7.853976e+12
8.382464e+12
8.783446e+12
9.071702e+12
9.258243e+12
9.349922e+12
9.349494e+12
9.257083e+12
9.070125e+12
8.781951e+12
8.381144e+12
7.852778e+12
7.193346e+12
6.455267e+12
5.655677e+12
4.800609e+12
3.910158e+12
2.773258e+12
1.98322e+12
1.527673e+12
1.009891e+12
1.041219e+12
1.561753e+12
2.035622e+12
2.845655e+12
4.046746e+12
4.979763e+12
5.87358e+12
6.673178e+12
7.431591e+12
8.078153e+12
8.590721e+12
8.980337e+12
9.26069e+12
9.441875e+12
9.530541e+12
9.529583e+12
9.439378e+12
9.257436e+12
8.977398e+12
8.588964e+12
8.077315e+12
7.431051e+12
6.672338e+12
5.87197e+12
4.976908e+12
4.043582e+12
2.843357e+12
2.033965e+12
1.560334e+12
1.040073e+12
1.053196e+12
1.57705e+12
2.059721e+12
2.882181e+12
4.113087e+12
5.067613e+12
5.962871e+12
6.798578e+12
7.560421e+12
8.193266e+12
8.695058e+12
9.077609e+12
9.354109e+12
9.532993e+12
9.620435e+12
9.61918e+12
9.529883e+12
9.350231e+12
9.074167e+12
8.692865e+12
8.192304e+12
7.560059e+12
6.798056e+12
5.961596e+12
5.06539e+12
4.110483e+12
2.8801e+12
2.058116e+12
1.575563e+12
1.052048e+12
1.053327e+12
1.577195e+12
2.059829e+12
2.882326e+12
4.113186e+12
5.067871e+12
5.9635e+12
6.799506e+12
7.561495e+12
8.194327e+12
8.69598e+12
9.078342e+12
9.35476e+12
9.533708e+12
9.62132e+12
9.620169e+12
9.530875e+12
9.351182e+12
9.075056e+12
8.69372e+12
8.193191e+12
7.561026e+12
6.799019e+12
5.962408e+12
5.066123e+12
4.11111e+12
2.880485e+12
2.058382e+12
1.575823e+12
1.052285e+12
1.041701e+12
1.562352e+12
2.036072e+12
2.846138e+12
4.047092e+12
4.980825e+12
5.875764e+12
6.675895e+12
7.434624e+12
8.081255e+12
8.593596e+12
8.982701e+12
9.262922e+12
9.444327e+12
9.533303e+12
9.53247e+12
9.442226e+12
9.260197e+12
8.980119e+12
8.591775e+12
8.080337e+12
7.434279e+12
6.675552e+12
5.874876e+12
4.979551e+12
4.045504e+12
2.844325e+12
2.034706e+12
1.561082e+12
1.040745e+12
1.011793e+12
1.530137e+12
1.985758e+12
2.776572e+12
3.914517e+12
4.805663e+12
5.66115e+12
6.461045e+12
7.199187e+12
7.858793e+12
8.387336e+12
8.788126e+12
9.076071e+12
9.262603e+12
9.354432e+12
9.354077e+12
9.261751e+12
9.07495e+12
8.787083e+12
8.386708e+12
7.858717e+12
7.199411e+12
6.461118e+12
5.660668e+12
4.804903e+12
3.913388e+12
2.774578e+12
1.984367e+12
1.52894e+12
1.010898e+12
8.930114e+11
1.475358e+12
1.904147e+12
2.672397e+12
3.689818e+12
4.54757e+12
5.360084e+12
6.158453e+12
6.863934e+12
7.527004e+12
8.073305e+12
8.488463e+12
8.78792e+12
8.982747e+12
9.079114e+12
9.079328e+12
8.983446e+12
8.788971e+12
8.489726e+12
8.074667e+12
7.528348e+12
6.865117e+12
6.15936e+12
5.360666e+12
4.54746e+12
3.689286e+12
2.670247e+12
1.902784e+12
1.47451e+12
8.921902e+11
1.171229e+12
1.728431e+12
2.493653e+12
3.208935e+12
4.20008e+12
4.987472e+12
5.752349e+12
6.461235e+12
7.099433e+12
7.647458e+12
8.073392e+12
8.387877e+12
8.595272e+12
8.698997e+12
8.699604e+12
8.597059e+12
8.390586e+12
8.076634e+12
7.650794e+12
7.102415e+12
6.463597e+12
5.754314e+12
4.988931e+12
4.200422e+12
3.209128e+12
2.491568e+12
1.727134e+12
1.170485e+12
1.069274e+12
1.567435e+12
2.142488e+12
2.904233e+12
3.799714e+12
4.551517e+12
5.271962e+12
5.97291e+12
6.571398e+12
7.100288e+12
7.52846e+12
7.86145e+12
8.085562e+12
8.200171e+12
8.200807e+12
8.087392e+12
7.864259e+12
7.531946e+12
7.104122e+12
6.575094e+12
5.976076e+12
5.274622e+12
4.553307e+12
3.800137e+12
2.904513e+12
2.141214e+12
1.566645e+12
1.068961e+12
8.909654e+11
1.430534e+12
1.829154e+12
2.539476e+12
3.180969e+12
4.017071e+12
4.716237e+12
5.375009e+12
5.974625e+12
6.463871e+12
6.867525e+12
7.204195e+12
7.441314e+12
7.569635e+12
7.570088e+12
7.442496e+12
7.205945e+12
6.869729e+12
6.466533e+12
5.977375e+12
5.37754e+12
4.718352e+12
4.018372e+12
3.180827e+12
2.539607e+12
1.828118e+12
1.42964e+12
8.911428e+11
9.83181e+11
1.538178e+12
2.025355e+12
2.725306e+12
3.287864e+12
4.083025e+12
4.717573e+12
5.274861e+12
5.756217e+12
6.163348e+12
6.467269e+12
6.68356e+12
6.808307e+12
6.808543e+12
6.684049e+12
6.467896e+12
6.164231e+12
5.757569e+12
5.276372e+12
4.719035e+12
4.084244e+12
3.28861e+12
2.725698e+12
2.02513e+12
1.537728e+12
9.830599e+11
1.144972e+12
1.628223e+12
2.107639e+12
2.769136e+12
3.288231e+12
4.018999e+12
4.554969e+12
4.991937e+12
5.365227e+12
5.667351e+12
5.88316e+12
5.971873e+12
5.971838e+12
5.88299e+12
5.667194e+12
5.365334e+12
4.992147e+12
4.555353e+12
4.019511e+12
3.288735e+12
2.769349e+12
2.107467e+12
1.627752e+12
1.14461e+12
9.211206e+11
1.402156e+12
1.681055e+12
2.107739e+12
2.726591e+12
3.182714e+12
3.802412e+12
4.20398e+12
4.552404e+12
4.811367e+12
4.987158e+12
5.074641e+12
5.074465e+12
4.986793e+12
4.810743e+12
4.551802e+12
4.20368e+12
3.80255e+12
3.182775e+12
2.726544e+12
2.107644e+12
1.680799e+12
1.401804e+12
9.207767e+11
9.295766e+11
1.402315e+12
1.628699e+12
2.025765e+12
2.54025e+12
2.905622e+12
3.211916e+12
3.693612e+12
3.91875e+12
4.051575e+12
4.117556e+12
4.117326e+12
4.051386e+12
3.918523e+12
3.693256e+12
3.211436e+12
2.905885e+12
2.540648e+12
2.025863e+12
1.628479e+12
1.402041e+12
9.294129e+11
9.212195e+11
1.145508e+12
1.538468e+12
1.8295e+12
2.142878e+12
2.49464e+12
2.673547e+12
2.777891e+12
2.847818e+12
2.885319e+12
2.884892e+12
2.848233e+12
2.778511e+12
2.674064e+12
2.495061e+12
2.143151e+12
1.829443e+12
1.538384e+12
1.145141e+12
9.211057e+11
9.834698e+11
1.430446e+12
1.567805e+12
1.728814e+12
1.904575e+12
1.986268e+12
2.036795e+12
2.061184e+12
2.060744e+12
2.036896e+12
1.986335e+12
1.904545e+12
1.728562e+12
1.567386e+12
1.430654e+12
9.832559e+11
8.910966e+11
1.069565e+12
1.171293e+12
1.475698e+12
1.53026e+12
1.562614e+12
1.57839e+12
1.578198e+12
1.56243e+12
1.529928e+12
1.475536e+12
1.171025e+12
1.069149e+12
8.912934e+11
8.928387e+11
1.011605e+12
1.041571e+12
1.053676e+12
1.053555e+12
1.04136e+12
1.011216e+12
8.920921e+11
7.906665e+11
8.910576e+11
9.134862e+11
9.131899e+11
8.901457e+11
7.899421e+11
7.600288e+11
9.449362e+11
1.057314e+12
1.185277e+12
1.47217e+12
1.534415e+12
1.558331e+12
1.557646e+12
1.532593e+12
1.46987e+12
1.184353e+12
1.056594e+12
9.440556e+11
7.596367e+11
7.662307e+11
9.919734e+11
1.377603e+12
1.611748e+12
1.817428e+12
2.112442e+12
2.275656e+12
2.343447e+12
2.376433e+12
2.375475e+12
2.340895e+12
2.272705e+12
2.110183e+12
1.815089e+12
1.608944e+12
1.375614e+12
9.911325e+11
7.660277e+11
8.572531e+11
1.330964e+12
1.665651e+12
2.138254e+12
2.413528e+12
2.686284e+12
2.930763e+12
3.337245e+12
3.493796e+12
3.556147e+12
3.55511e+12
3.49089e+12
3.333151e+12
2.926446e+12
2.681388e+12
2.408765e+12
2.133095e+12
1.663295e+12
1.32904e+12
8.569767e+11
9.186003e+11
1.478584e+12
1.922772e+12
2.458827e+12
2.884126e+12
3.469541e+12
3.849392e+12
4.141118e+12
4.385137e+12
4.534949e+12
4.603884e+12
4.602799e+12
4.531812e+12
4.380324e+12
4.13527e+12
3.843163e+12
3.463507e+12
2.87878e+12
2.453611e+12
1.919874e+12
1.476356e+12
9.178836e+11
9.527731e+11
1.599103e+12
2.214734e+12
2.689076e+12
3.157775e+12
3.924216e+12
4.474128e+12
4.90839e+12
5.216706e+12
5.450603e+12
5.602227e+12
5.675526e+12
5.674379e+12
5.59887e+12
5.445279e+12
5.209855e+12
4.900601e+12
4.46636e+12
3.917438e+12
3.15239e+12
2.683851e+12
2.210611e+12
1.596591e+12
9.516637e+11
9.189857e+11
1.599429e+12
2.313427e+12
2.863758e+12
3.641104e+12
4.284341e+12
4.928043e+12
5.465404e+12
5.912002e+12
6.288565e+12
6.565253e+12
6.741685e+12
6.827178e+12
6.825952e+12
6.738115e+12
6.559629e+12
6.281372e+12
5.903813e+12
5.456747e+12
4.919574e+12
4.276472e+12
3.634354e+12
2.858506e+12
2.308532e+12
1.596946e+12
9.17893e+11
8.579403e+11
1.479069e+12
2.215894e+12
2.864133e+12
3.736216e+12
4.500849e+12
5.211479e+12
5.840258e+12
6.429015e+12
6.928805e+12
7.339513e+12
7.643384e+12
7.840205e+12
7.93588e+12
7.934543e+12
7.836338e+12
7.637193e+12
7.331499e+12
6.919608e+12
6.419148e+12
5.830319e+12
5.201985e+12
4.492451e+12
3.729198e+12
2.859075e+12
2.211963e+12
1.477071e+12
8.568665e+11
7.669418e+11
1.331671e+12
1.92453e+12
2.690357e+12
3.642621e+12
4.501985e+12
5.309636e+12
6.028182e+12
6.724698e+12
7.357923e+12
7.892466e+12
8.326715e+12
8.654415e+12
8.868838e+12
8.970179e+12
8.968675e+12
8.864475e+12
8.647612e+12
8.318117e+12
7.882671e+12
7.347371e+12
6.713837e+12
6.01746e+12
5.299418e+12
4.493154e+12
3.635559e+12
2.685451e+12
1.921714e+12
1.329809e+12
7.658907e+11
9.930171e+11
1.667613e+12
2.460025e+12
3.161049e+12
4.287285e+12
5.214217e+12
6.029804e+12
6.821281e+12
7.56283e+12
8.223525e+12
8.785607e+12
9.24045e+12
9.584792e+12
9.816226e+12
9.933749e+12
9.932202e+12
9.811742e+12
9.577858e+12
9.231764e+12
8.775727e+12
8.212909e+12
7.551848e+12
6.8102e+12
6.01901e+12
5.20416e+12
4.278831e+12
3.154957e+12
2.456024e+12
1.665189e+12
9.918961e+11
7.612001e+11
1.378768e+12
2.139415e+12
2.887024e+12
3.929019e+12
4.93287e+12
5.844984e+12
6.728243e+12
7.564542e+12
8.331896e+12
9.01324e+12
9.594627e+12
1.006991e+13
1.044e+13
1.069382e+13
1.082392e+13
1.082251e+13
1.068976e+13
1.043375e+13
1.006212e+13
9.585764e+12
9.003737e+12
8.321943e+12
7.55419e+12
6.717731e+12
5.834811e+12
4.923668e+12
3.921611e+12
2.881161e+12
2.136402e+12
1.376916e+12
7.607166e+11
9.45607e+11
1.613099e+12
2.415645e+12
3.474669e+12
4.480305e+12
5.47232e+12
6.435664e+12
7.363096e+12
8.226421e+12
9.014316e+12
9.712896e+12
1.032171e+13
1.082362e+13
1.12111e+13
1.147387e+13
1.160676e+13
1.160563e+13
1.147069e+13
1.120635e+13
1.081779e+13
1.031516e+13
9.705931e+12
9.007009e+12
8.218642e+12
7.354626e+12
6.426672e+12
5.463507e+12
4.472812e+12
3.468057e+12
2.411571e+12
1.610833e+12
9.447169e+11
1.058778e+12
1.819983e+12
2.690448e+12
3.856403e+12
4.916112e+12
5.921038e+12
6.937352e+12
7.89892e+12
8.789436e+12
9.596629e+12
1.032261e+13
1.095629e+13
1.147359e+13
1.186601e+13
1.212903e+13
1.226086e+13
1.226021e+13
1.212717e+13
1.186321e+13
1.147021e+13
1.095266e+13
1.031886e+13
9.592628e+12
8.784593e+12
7.892557e+12
6.929429e+12
5.91261e+12
4.908601e+12
3.849257e+12
2.685132e+12
1.816403e+12
1.056862e+12
1.187432e+12
2.117301e+12
2.937407e+12
4.149802e+12
5.226431e+12
6.299575e+12
7.349999e+12
8.334716e+12
9.245646e+12
1.007324e+13
1.082573e+13
1.147467e+13
1.199764e+13
1.238923e+13
1.264935e+13
1.277896e+13
1.277859e+13
1.264831e+13
1.238774e+13
1.199587e+13
1.14727e+13
1.082351e+13
1.007057e+13
9.24206e+12
8.329259e+12
7.34253e+12
6.291349e+12
5.218735e+12
4.142241e+12
2.930793e+12
2.111324e+12
1.184537e+12
7.922912e+11
1.474692e+12
2.281352e+12
3.345522e+12
4.395275e+12
5.462225e+12
6.578181e+12
7.655922e+12
8.664424e+12
9.591889e+12
1.044503e+13
1.121485e+13
1.18687e+13
1.239093e+13
1.277932e+13
1.303579e+13
1.316297e+13
1.316237e+13
1.303417e+13
1.277724e+13
1.238909e+13
1.186724e+13
1.121364e+13
1.04437e+13
9.58966e+12
8.660219e+12
7.64946e+12
6.570775e+12
5.454867e+12
4.387735e+12
3.338077e+12
2.27494e+12
1.470852e+12
7.901911e+11
8.922086e+11
1.53741e+12
2.349291e+12
3.502824e+12
4.546207e+12
5.615484e+12
6.756477e+12
7.854941e+12
8.881428e+12
9.825881e+12
1.070107e+13
1.147957e+13
1.213383e+13
1.26539e+13
1.303903e+13
1.329237e+13
1.341745e+13
1.341618e+13
1.328902e+13
1.303468e+13
1.265014e+13
1.213185e+13
1.147895e+13
1.070083e+13
9.824793e+12
8.87833e+12
7.849677e+12
6.750247e+12
5.609047e+12
4.539546e+12
3.496063e+12
2.343524e+12
1.533651e+12
8.905906e+11
9.151564e+11
1.561962e+12
2.382626e+12
3.566073e+12
4.61639e+12
5.690274e+12
6.843678e+12
7.952694e+12
8.985476e+12
9.946396e+12
1.083393e+13
1.161478e+13
1.226757e+13
1.278522e+13
1.316861e+13
1.34208e+13
1.354508e+13
1.354346e+13
1.341663e+13
1.31634e+13
1.278075e+13
1.226501e+13
1.1614e+13
1.083387e+13
9.945708e+12
8.983082e+12
7.94854e+12
6.838641e+12
5.684959e+12
4.610878e+12
3.560574e+12
2.378251e+12
1.558915e+12
9.136696e+11
9.152255e+11
1.56222e+12
2.383222e+12
3.566444e+12
4.616719e+12
5.69054e+12
6.843956e+12
7.953233e+12
8.986564e+12
9.947953e+12
1.083564e+13
1.161643e+13
1.226898e+13
1.278633e+13
1.316961e+13
1.342189e+13
1.354634e+13
1.354487e+13
1.34181e+13
1.316486e+13
1.278216e+13
1.226641e+13
1.161544e+13
1.08354e+13
9.947299e+12
8.984655e+12
7.95006e+12
6.840045e+12
5.686286e+12
4.612296e+12
3.562009e+12
2.379487e+12
1.559724e+12
9.140571e+11
8.928056e+11
1.537953e+12
2.349876e+12
3.503511e+12
4.547059e+12
5.616266e+12
6.757284e+12
7.856543e+12
8.884619e+12
9.83033e+12
1.070597e+13
1.148439e+13
1.213825e+13
1.265762e+13
1.304255e+13
1.329617e+13
1.342156e+13
1.342048e+13
1.329335e+13
1.303898e+13
1.265447e+13
1.213637e+13
1.148378e+13
1.070595e+13
9.830003e+12
8.883372e+12
7.854405e+12
6.754443e+12
5.612888e+12
4.543599e+12
3.500068e+12
2.346951e+12
1.535987e+12
8.917826e+11
7.931307e+11
1.474556e+12
2.281304e+12
3.346199e+12
4.396423e+12
5.463547e+12
6.579516e+12
7.658423e+12
8.669232e+12
9.598541e+12
1.04524e+13
1.122239e+13
1.187624e+13
1.239824e+13
1.27862e+13
1.304251e+13
1.316979e+13
1.316936e+13
1.304142e+13
1.278488e+13
1.239727e+13
1.187609e+13
1.122307e+13
1.045338e+13
9.599173e+12
8.669085e+12
7.657489e+12
6.57774e+12
5.460903e+12
4.393854e+12
3.343757e+12
2.279446e+12
1.473375e+12
7.923641e+11
1.187805e+12
2.116691e+12
2.938234e+12
4.151255e+12
5.228417e+12
6.301466e+12
7.353193e+12
8.340322e+12
9.25344e+12
1.008211e+13
1.083516e+13
1.14842e+13
1.200702e+13
1.239845e+13
1.265863e+13
1.278866e+13
1.278905e+13
1.265978e+13
1.240025e+13
1.200936e+13
1.148691e+13
1.083801e+13
1.008482e+13
9.255649e+12
8.341734e+12
7.353576e+12
6.300815e+12
5.226485e+12
4.149573e+12
2.936691e+12
2.115957e+12
1.186882e+12
1.05916e+12
1.8207e+12
2.691671e+12
3.857834e+12
4.918597e+12
5.923419e+12
6.941042e+12
7.904656e+12
8.797356e+12
9.605988e+12
1.03328e+13
1.096702e+13
1.148489e+13
1.187808e+13
1.214215e+13
1.227524e+13
1.227618e+13
1.214486e+13
1.188225e+13
1.149002e+13
1.097253e+13
1.033807e+13
9.610615e+12
8.801208e+12
7.907438e+12
6.942474e+12
5.923799e+12
4.917384e+12
3.857019e+12
2.69049e+12
1.819599e+12
1.058201e+12
9.466743e+11
1.614629e+12
2.417718e+12
3.476172e+12
4.482853e+12
5.475412e+12
6.439889e+12
7.368809e+12
8.234182e+12
9.024017e+12
9.724275e+12
1.033472e+13
1.083838e+13
1.122772e+13
1.149245e+13
1.162724e+13
1.162816e+13
1.149511e+13
1.123187e+13
1.084366e+13
1.034064e+13
9.730228e+12
9.029484e+12
8.2388e+12
7.372123e+12
6.441697e+12
5.476293e+12
4.482499e+12
3.476073e+12
2.416292e+12
1.613256e+12
9.455583e+11
7.620945e+11
1.379961e+12
2.142188e+12
2.888433e+12
3.931099e+12
4.936385e+12
5.849873e+12
6.734794e+12
7.573338e+12
8.343216e+12
9.027058e+12
9.610918e+12
1.008873e+13
1.046129e+13
1.071749e+13
1.084968e+13
1.085022e+13
1.071903e+13
1.046374e+13
1.009201e+13
9.614845e+12
9.031204e+12
8.347177e+12
7.576706e+12
6.737174e+12
5.851199e+12
4.937391e+12
3.931459e+12
2.888852e+12
2.140069e+12
1.379189e+12
7.612934e+11
9.937622e+11
1.668606e+12
2.462434e+12
3.162231e+12
4.290905e+12
5.219328e+12
6.03697e+12
6.831039e+12
7.575573e+12
8.23933e+12
8.804432e+12
9.262274e+12
9.609367e+12
9.843239e+12
9.962736e+12
9.962847e+12
9.84355e+12
9.609958e+12
9.263354e+12
8.806088e+12
8.241325e+12
7.577634e+12
6.832866e+12
6.038375e+12
5.220361e+12
4.291649e+12
3.163093e+12
2.46199e+12
1.668048e+12
9.932143e+11
7.672153e+11
1.332874e+12
1.926107e+12
2.693618e+12
3.646776e+12
4.507364e+12
5.317162e+12
6.038488e+12
6.738297e+12
7.374892e+12
7.912673e+12
8.349917e+12
8.680323e+12
8.897046e+12
9.000059e+12
8.999818e+12
8.896393e+12
8.679484e+12
8.34926e+12
7.912379e+12
7.374969e+12
6.738575e+12
6.038807e+12
5.31738e+12
4.507354e+12
3.646431e+12
2.692956e+12
1.925485e+12
1.33251e+12
7.6732e+11
8.582878e+11
1.48085e+12
2.218729e+12
2.867399e+12
3.741046e+12
4.508186e+12
5.221789e+12
5.853774e+12
6.445622e+12
6.948636e+12
7.36224e+12
7.668512e+12
7.867236e+12
7.964165e+12
7.963746e+12
7.866149e+12
7.666941e+12
7.360554e+12
6.947194e+12
6.444567e+12
5.852779e+12
5.220935e+12
4.507674e+12
3.740713e+12
2.867249e+12
2.21755e+12
1.480231e+12
8.58353e+11
9.195637e+11
1.600988e+12
2.317093e+12
2.86748e+12
3.647963e+12
4.293453e+12
4.939952e+12
5.480049e+12
5.929658e+12
6.308756e+12
6.587436e+12
6.765465e+12
6.852034e+12
6.851562e+12
6.764434e+12
6.585981e+12
6.307051e+12
5.927976e+12
5.478687e+12
4.938471e+12
4.292043e+12
3.647114e+12
2.867036e+12
2.31646e+12
1.600611e+12
9.19386e+11
9.534367e+11
1.6011e+12
2.219541e+12
2.694891e+12
3.165237e+12
3.934363e+12
4.486386e+12
4.922834e+12
5.233262e+12
5.468835e+12
5.621912e+12
5.696547e+12
5.695984e+12
5.621071e+12
5.467704e+12
5.231954e+12
4.921635e+12
4.485114e+12
3.932743e+12
3.163358e+12
2.694085e+12
2.219028e+12
1.600851e+12
9.533116e+11
9.19379e+11
1.480713e+12
1.92737e+12
2.464001e+12
2.890075e+12
3.478565e+12
3.86082e+12
4.154686e+12
4.400169e+12
4.551018e+12
4.620624e+12
4.620016e+12
4.549964e+12
4.398736e+12