/*--------------------------------*- C++ -*----------------------------------*\
  =========                 |
  \\      /  F ield         | OpenFOAM: The Open Source CFD Toolbox
   \\    /   O peration     | Website:  https://openfoam.org
    \\  /    A nd           | Version:  6
     \\/     M anipulation  |
\*---------------------------------------------------------------------------*/
FoamFile
{
    version     2.0;
    format      ascii;
    class       volScalarField;
    location    "50/region0/neutronTransport";
    object      precursor5.dnp;
}
// * * * * * * * * * * * * * * * * * * * * * * * * * * * * * * * * * * * * * //

dimensions      [0 -3 0 0 0 0 0];

internalField   nonuniform List<scalar> 
203709
(
1.235441e+12
1.359236e+12
1.359085e+12
1.235739e+12
1.291096e+12
1.445345e+12
1.789298e+12
1.770485e+12
1.770287e+12
1.789238e+12
1.445233e+12
1.29122e+12
1.261408e+12
1.450468e+12
1.812586e+12
1.807437e+12
1.858848e+12
1.871678e+12
1.871622e+12
1.858772e+12
1.807292e+12
1.812599e+12
1.450504e+12
1.261609e+12
1.261411e+12
1.761833e+12
1.799448e+12
1.87006e+12
1.906792e+12
1.939081e+12
1.95338e+12
1.953449e+12
1.939031e+12
1.906723e+12
1.870192e+12
1.79969e+12
1.762311e+12
1.261915e+12
1.45022e+12
1.799247e+12
1.880592e+12
1.938333e+12
1.982086e+12
2.013701e+12
2.029444e+12
2.029527e+12
2.013714e+12
1.982195e+12
1.938657e+12
1.881041e+12
1.799868e+12
1.450833e+12
1.290885e+12
1.812233e+12
1.869797e+12
1.938171e+12
1.997663e+12
2.044627e+12
2.077233e+12
2.093431e+12
2.09349e+12
2.077396e+12
2.044969e+12
1.99808e+12
1.938755e+12
1.870594e+12
1.813191e+12
1.291503e+12
1.444873e+12
1.806874e+12
1.906291e+12
1.981671e+12
2.044452e+12
2.093265e+12
2.125814e+12
2.141244e+12
2.141314e+12
2.126099e+12
2.093623e+12
2.044896e+12
1.982344e+12
1.907068e+12
1.807642e+12
1.445583e+12
1.235504e+12
1.789059e+12
1.858463e+12
1.938637e+12
2.01336e+12
2.076991e+12
2.125736e+12
2.156025e+12
2.171041e+12
2.171042e+12
2.15608e+12
2.125733e+12
2.077136e+12
2.013684e+12
1.939123e+12
1.859082e+12
1.789906e+12
1.23575e+12
1.35889e+12
1.77008e+12
1.871215e+12
1.953001e+12
2.029069e+12
2.09307e+12
2.141122e+12
2.171143e+12
2.187501e+12
2.187041e+12
2.171104e+12
2.141246e+12
2.093381e+12
2.029422e+12
1.953428e+12
1.871852e+12
1.770721e+12
1.359349e+12
1.359035e+12
1.770439e+12
1.871401e+12
1.953028e+12
2.029038e+12
2.092994e+12
2.140933e+12
2.171027e+12
2.187842e+12
2.187421e+12
2.171203e+12
2.141287e+12
2.093361e+12
2.029457e+12
1.953454e+12
1.871876e+12
1.770943e+12
1.359584e+12
1.235206e+12
1.789412e+12
1.858643e+12
1.938697e+12
2.013292e+12
2.076808e+12
2.125472e+12
2.155849e+12
2.17107e+12
2.171064e+12
2.156178e+12
2.125951e+12
2.077265e+12
2.01375e+12
1.939133e+12
1.859074e+12
1.789733e+12
1.235818e+12
1.444871e+12
1.80697e+12
1.906343e+12
1.981647e+12
2.044203e+12
2.092918e+12
2.125435e+12
2.141014e+12
2.140965e+12
2.125814e+12
2.093378e+12
2.044712e+12
1.982099e+12
1.906749e+12
1.807444e+12
1.44544e+12
1.29085e+12
1.81225e+12
1.869611e+12
1.937902e+12
1.997227e+12
2.044174e+12
2.076667e+12
2.093085e+12
2.093082e+12
2.077073e+12
2.044646e+12
1.997822e+12
1.938513e+12
1.870228e+12
1.81284e+12
1.29129e+12
1.450067e+12
1.798919e+12
1.880194e+12
1.937888e+12
1.981588e+12
2.01329e+12
2.029975e+12
2.030005e+12
2.013516e+12
1.981993e+12
1.938419e+12
1.880842e+12
1.799734e+12
1.450702e+12
1.261262e+12
1.761619e+12
1.799009e+12
1.869648e+12
1.906277e+12
1.938688e+12
1.95385e+12
1.953918e+12
1.938888e+12
1.906621e+12
1.870037e+12
1.799462e+12
1.762199e+12
1.261538e+12
1.261366e+12
1.450208e+12
1.812288e+12
1.80691e+12
1.858627e+12
1.871996e+12
1.872198e+12
1.858814e+12
1.807305e+12
1.812581e+12
1.450324e+12
1.261484e+12
1.291033e+12
1.445046e+12
1.789372e+12
1.771233e+12
1.771525e+12
1.789532e+12
1.445205e+12
1.291062e+12
1.235643e+12
1.359266e+12
1.359387e+12
1.235655e+12
1.035231e+12
1.17672e+12
1.224653e+12
1.257553e+12
1.27813e+12
1.27815e+12
1.257624e+12
1.224759e+12
1.176896e+12
1.035504e+12
1.055894e+12
1.23035e+12
1.567161e+12
1.618331e+12
1.676739e+12
1.741064e+12
1.791986e+12
1.792028e+12
1.741273e+12
1.676788e+12
1.61815e+12
1.566857e+12
1.230017e+12
1.055642e+12
1.080759e+12
1.541293e+12
1.627895e+12
1.753132e+12
1.871934e+12
1.9708e+12
2.098472e+12
2.203805e+12
2.203814e+12
2.098549e+12
1.97045e+12
1.871406e+12
1.752849e+12
1.627756e+12
1.541528e+12
1.080947e+12
1.091444e+12
1.570137e+12
1.711264e+12
1.865317e+12
2.025056e+12
2.252417e+12
2.533986e+12
2.813858e+12
2.914323e+12
2.914269e+12
2.813463e+12
2.533598e+12
2.252202e+12
2.025045e+12
1.865427e+12
1.711452e+12
1.570252e+12
1.091705e+12
1.080711e+12
1.569961e+12
1.72854e+12
1.909019e+12
2.208853e+12
2.57032e+12
2.959241e+12
3.245275e+12
3.458204e+12
3.803969e+12
3.803826e+12
3.458039e+12
3.244962e+12
2.958784e+12
2.570265e+12
2.208759e+12
1.909208e+12
1.728676e+12
1.570097e+12
1.080948e+12
1.055989e+12
1.541725e+12
1.711367e+12
1.909148e+12
2.319548e+12
2.867575e+12
3.24386e+12
3.553363e+12
4.051331e+12
4.274312e+12
4.40588e+12
4.405668e+12
4.273759e+12
4.050586e+12
3.552731e+12
3.24326e+12
2.866963e+12
2.319356e+12
1.909056e+12
1.711479e+12
1.541958e+12
1.056296e+12
1.230147e+12
1.627896e+12
1.865387e+12
2.208934e+12
2.867541e+12
3.39353e+12
3.991592e+12
4.322743e+12
4.581454e+12
4.741167e+12
4.822444e+12
4.822221e+12
4.740517e+12
4.580647e+12
4.321962e+12
3.990887e+12
3.393158e+12
2.867535e+12
2.209095e+12
1.865866e+12
1.628516e+12
1.230654e+12
1.035618e+12
1.567161e+12
1.752907e+12
2.025008e+12
2.570224e+12
3.244094e+12
3.991523e+12
4.441094e+12
4.731284e+12
4.932042e+12
5.059538e+12
5.122421e+12
5.122291e+12
5.059152e+12
4.93168e+12
4.731103e+12
4.441184e+12
3.992064e+12
3.245126e+12
2.571526e+12
2.026169e+12
1.753808e+12
1.567677e+12
1.035758e+12
1.177071e+12
1.618729e+12
1.871718e+12
2.252544e+12
2.95985e+12
3.553846e+12
4.322734e+12
4.731176e+12
4.994646e+12
5.172524e+12
5.285066e+12
5.339971e+12
5.339995e+12
5.285153e+12
5.172837e+12
4.995255e+12
4.732173e+12
4.324137e+12
3.555448e+12
2.961419e+12
2.253491e+12
1.87269e+12
1.619186e+12
1.177249e+12
1.224976e+12
1.677292e+12
1.9707e+12
2.533816e+12
3.246179e+12
4.051902e+12
4.581519e+12
4.931898e+12
5.172468e+12
5.337743e+12
5.442768e+12
5.494221e+12
5.49434e+12
5.443173e+12
5.338462e+12
5.173488e+12
4.933218e+12
4.582918e+12
4.053103e+12
3.246777e+12
2.535077e+12
1.971736e+12
1.677589e+12
1.225124e+12
1.257818e+12
1.741729e+12
2.099073e+12
2.814724e+12
3.459479e+12
4.275329e+12
4.741586e+12
5.059632e+12
5.285102e+12
5.442799e+12
5.543138e+12
5.592384e+12
5.592339e+12
5.543165e+12
5.442902e+12
5.285408e+12
5.060218e+12
4.74239e+12
4.276146e+12
3.460098e+12
2.815648e+12
2.099636e+12
1.742055e+12
1.258134e+12
1.278221e+12
1.792337e+12
2.204195e+12
2.915431e+12
3.805572e+12
4.407376e+12
4.823424e+12
5.122934e+12
5.340186e+12
5.494388e+12
5.59274e+12
5.641386e+12
5.641188e+12
5.59286e+12
5.494789e+12
5.340783e+12
5.123632e+12
4.824252e+12
4.408282e+12
3.806497e+12
2.916419e+12
2.205108e+12
1.793005e+12
1.278708e+12
1.278009e+12
1.792015e+12
2.20387e+12
2.915249e+12
3.805703e+12
4.407684e+12
4.823902e+12
5.123299e+12
5.340264e+12
5.494198e+12
5.592588e+12
5.641605e+12
5.641628e+12
5.593343e+12
5.495329e+12
5.341324e+12
5.124141e+12
4.824714e+12
4.408736e+12
3.806889e+12
2.916363e+12
2.204895e+12
1.792823e+12
1.278582e+12
1.257297e+12
1.741294e+12
2.099125e+12
2.815073e+12
3.459616e+12
4.276002e+12
4.742466e+12
5.060345e+12
5.285432e+12
5.442723e+12
5.54295e+12
5.59251e+12
5.592816e+12
5.544035e+12
5.44412e+12
5.286753e+12
5.061517e+12
4.743581e+12
4.277254e+12
3.461e+12
2.81618e+12
2.100118e+12
1.742246e+12
1.257971e+12
1.224543e+12
1.677117e+12
1.971209e+12
2.53453e+12
3.246566e+12
4.052734e+12
4.582463e+12
4.932619e+12
5.172738e+12
5.33761e+12
5.442426e+12
5.494006e+12
5.494246e+12
5.443394e+12
5.33897e+12
5.174237e+12
4.93411e+12
4.583888e+12
4.054115e+12
3.247968e+12
2.535328e+12
1.97189e+12
1.678125e+12
1.225277e+12
1.176788e+12
1.6187e+12
1.872239e+12
2.252827e+12
2.960666e+12
3.554661e+12
4.323475e+12
4.731591e+12
4.994651e+12
5.172279e+12
5.284749e+12
5.339854e+12
5.340089e+12
5.285696e+12
5.173709e+12
4.996371e+12
4.733403e+12
4.32515e+12
3.55582e+12
2.961537e+12
2.253825e+12
1.872838e+12
1.619608e+12
1.177469e+12
1.035361e+12
1.567224e+12
1.753279e+12
2.025173e+12
2.570907e+12
3.24465e+12
3.991906e+12
4.44117e+12
4.731152e+12
4.931869e+12
5.059595e+12
5.12273e+12
5.123022e+12
5.060573e+12
4.933423e+12
4.733073e+12
4.443232e+12
3.993767e+12
3.245827e+12
2.571729e+12
2.026127e+12
1.753807e+12
1.567947e+12
1.035962e+12
1.230453e+12
1.628015e+12
1.865307e+12
2.209019e+12
2.867767e+12
3.393576e+12
3.991602e+12
4.322891e+12
4.5818e+12
4.741997e+12
4.823484e+12
4.823825e+12
4.742988e+12
4.58335e+12
4.324782e+12
3.993647e+12
3.395347e+12
2.868951e+12
2.209884e+12
1.866305e+12
1.628503e+12
1.230552e+12
1.056221e+12
1.54156e+12
1.711278e+12
1.909123e+12
2.319641e+12
2.867724e+12
3.244481e+12
3.554427e+12
4.052629e+12
4.276252e+12
4.408105e+12
4.408505e+12
4.277132e+12
4.053866e+12
3.555669e+12
3.245931e+12
2.86915e+12
2.320611e+12
1.90986e+12
1.712114e+12
1.542074e+12
1.056007e+12
1.080992e+12
1.570502e+12
1.728912e+12
1.90912e+12
2.208994e+12
2.570936e+12
2.960859e+12
3.247195e+12
3.460474e+12
3.806531e+12
3.80692e+12
3.461105e+12
3.247742e+12
2.961272e+12
2.571745e+12
2.20982e+12
1.909761e+12
1.729402e+12
1.570954e+12
1.081023e+12
1.091796e+12
1.570452e+12
1.711523e+12
1.865825e+12
2.025682e+12
2.252894e+12
2.534928e+12
2.815979e+12
2.91653e+12
2.916663e+12
2.815924e+12
2.53508e+12
2.253402e+12
2.025858e+12
1.865959e+12
1.711732e+12
1.570729e+12
1.091919e+12
1.080767e+12
1.541881e+12
1.628351e+12
1.753424e+12
1.872254e+12
1.97168e+12
2.099893e+12
2.205181e+12
2.205185e+12
2.099816e+12
1.971401e+12
1.872354e+12
1.753703e+12
1.628478e+12
1.541894e+12
1.080795e+12
1.056312e+12
1.230568e+12
1.567572e+12
1.619186e+12
1.677834e+12
1.742189e+12
1.793096e+12
1.79312e+12
1.742172e+12
1.677663e+12
1.619004e+12
1.567841e+12
1.230757e+12
1.056324e+12
1.035519e+12
1.177e+12
1.224854e+12
1.25771e+12
1.278383e+12
1.278376e+12
1.257937e+12
1.225103e+12
1.177167e+12
1.0355e+12
8.773765e+11
9.948316e+11
1.024268e+12
1.035598e+12
1.035373e+12
1.023598e+12
9.936296e+11
8.764162e+11
8.764212e+11
1.051218e+12
1.151192e+12
1.450141e+12
1.504373e+12
1.536113e+12
1.550573e+12
1.550354e+12
1.535417e+12
1.503255e+12
1.449631e+12
1.150925e+12
1.05108e+12
8.767224e+11
9.665672e+11
1.406022e+12
1.540654e+12
1.698943e+12
1.872062e+12
1.952454e+12
2.001872e+12
2.025078e+12
2.024893e+12
2.001323e+12
1.951588e+12
1.871155e+12
1.698468e+12
1.540339e+12
1.405892e+12
9.670539e+11
9.057238e+11
1.125746e+12
1.512297e+12
1.797788e+12
2.106001e+12
2.45142e+12
2.627231e+12
2.729666e+12
2.797863e+12
2.833243e+12
2.833039e+12
2.797291e+12
2.728824e+12
2.626289e+12
2.450606e+12
2.105436e+12
1.797759e+12
1.512071e+12
1.125895e+12
9.057633e+11
9.142774e+11
1.378514e+12
1.600553e+12
1.991221e+12
2.496575e+12
2.854826e+12
3.154507e+12
3.627278e+12
3.848148e+12
3.978263e+12
4.043052e+12
4.042897e+12
3.977898e+12
3.847748e+12
3.627116e+12
3.154879e+12
2.855324e+12
2.496766e+12
1.990992e+12
1.600871e+12
1.37847e+12
9.14348e+11
9.056857e+11
1.378791e+12
1.652799e+12
2.071946e+12
2.679258e+12
3.126632e+12
3.735164e+12
4.128877e+12
4.470395e+12
4.724066e+12
4.896145e+12
4.982018e+12
4.981879e+12
4.895887e+12
4.723588e+12
4.469945e+12
4.128762e+12
3.73523e+12
3.126711e+12
2.679476e+12
2.072276e+12
1.652611e+12
1.378623e+12
9.057197e+11
1.126174e+12
1.60103e+12
2.072231e+12
2.722273e+12
3.232302e+12
3.949295e+12
4.475024e+12
4.903587e+12
5.26963e+12
5.565542e+12
5.776607e+12
5.863421e+12
5.863227e+12
5.776041e+12
5.564792e+12
5.269107e+12
4.903523e+12
4.475237e+12
3.949616e+12
3.232573e+12
2.722163e+12
2.072175e+12
1.601005e+12
1.126171e+12
9.67469e+11
1.512522e+12
1.991294e+12
2.679985e+12
3.232368e+12
4.013905e+12
4.63706e+12
5.184097e+12
5.656228e+12
6.055051e+12
6.35274e+12
6.564471e+12
6.686653e+12
6.68639e+12
6.56377e+12
6.351766e+12
6.05412e+12
5.655614e+12
5.183829e+12
4.637225e+12
4.014186e+12
3.232735e+12
2.67994e+12
1.991358e+12
1.512572e+12
9.672362e+11
8.766321e+11
1.406444e+12
1.798221e+12
2.497045e+12
3.128005e+12
3.950532e+12
4.637783e+12
5.285018e+12
5.873994e+12
6.354111e+12
6.749801e+12
7.079786e+12
7.311868e+12
7.437362e+12
7.437008e+12
7.310893e+12
7.078413e+12
6.748369e+12
6.352778e+12
5.873022e+12
5.284573e+12
4.637594e+12
3.95047e+12
3.127942e+12
2.496692e+12
1.798507e+12
1.406425e+12
8.764406e+11
1.051703e+12
1.541285e+12
2.106308e+12
2.856377e+12
3.736959e+12
4.476976e+12
5.185377e+12
5.874559e+12
6.463072e+12
6.982871e+12
7.403279e+12
7.729917e+12
7.94933e+12
8.061279e+12
8.060865e+12
7.948202e+12
7.728385e+12
7.401678e+12
6.981447e+12
6.462142e+12
5.874206e+12
5.18537e+12
4.477214e+12
3.737246e+12
2.85611e+12
2.106899e+12
1.541616e+12
1.051668e+12
1.151566e+12
1.699252e+12
2.451391e+12
3.156765e+12
4.131087e+12
4.90581e+12
5.657741e+12
6.355108e+12
6.983214e+12
7.522659e+12
7.94179e+12
8.250974e+12
8.454496e+12
8.555941e+12
8.555633e+12
8.453681e+12
8.249993e+12
7.940982e+12
7.5223e+12
6.983549e+12
6.356203e+12
5.659285e+12
4.907299e+12
4.132298e+12
3.157213e+12
2.453e+12
1.70008e+12
1.151768e+12
8.7756e+11
1.450821e+12
1.872064e+12
2.627615e+12
3.629648e+12
4.472896e+12
5.271992e+12
6.057141e+12
6.751323e+12
7.403945e+12
7.94195e+12
8.351055e+12
8.646219e+12
8.838172e+12
8.932961e+12
8.93291e+12
8.838061e+12
8.646316e+12
8.351663e+12
7.943273e+12
7.406068e+12
6.75404e+12
6.059979e+12
5.274355e+12
4.47471e+12
3.630742e+12
2.629421e+12
1.87314e+12
1.450758e+12
8.775138e+11
9.944918e+11
1.504466e+12
1.952882e+12
2.7308e+12
3.850715e+12
4.726806e+12
5.567985e+12
6.355295e+12
7.081854e+12
7.731092e+12
8.251486e+12
8.646469e+12
8.930606e+12
9.114957e+12
9.205942e+12
9.206061e+12
9.115374e+12
8.931555e+12
8.648064e+12
8.253674e+12
7.733562e+12
7.084362e+12
6.35771e+12
5.570369e+12
4.72845e+12
3.851682e+12
2.731986e+12
1.95359e+12
1.504877e+12
9.9476e+11
1.024255e+12
1.536444e+12
2.002648e+12
2.799691e+12
3.981358e+12
4.899442e+12
5.779891e+12
6.567831e+12
7.31485e+12
7.951397e+12
8.455724e+12
8.838931e+12
9.115305e+12
9.294713e+12
9.383213e+12
9.383217e+12
9.294856e+12
9.115705e+12
8.839705e+12
8.456954e+12
7.953003e+12
7.316673e+12
6.569777e+12
5.781886e+12
4.900781e+12
3.98198e+12
2.800248e+12
2.00314e+12
1.53679e+12
1.024391e+12
1.035969e+12
1.551416e+12
2.026304e+12
2.835627e+12
4.046628e+12
4.985738e+12
5.8673e+12
6.690791e+12
7.441423e+12
8.064534e+12
8.558206e+12
8.934385e+12
9.206736e+12
9.383774e+12
9.471242e+12
9.471322e+12
9.384243e+12
9.20759e+12
8.935505e+12
8.55954e+12
8.066143e+12
7.44326e+12
6.69287e+12
5.869404e+12
4.987166e+12
4.047129e+12
2.835821e+12
2.026521e+12
1.551504e+12
1.036048e+12
1.036036e+12
1.551483e+12
2.026356e+12
2.835778e+12
4.046792e+12
4.986029e+12
5.86766e+12
6.691139e+12
7.44193e+12
8.065374e+12
8.559043e+12
8.934772e+12
9.206679e+12
9.383592e+12
9.471286e+12
9.471701e+12
9.384923e+12
9.208492e+12
8.93651e+12
8.560538e+12
8.067066e+12
7.44409e+12
6.69356e+12
5.869908e+12
4.987605e+12
4.047458e+12
2.835911e+12
2.026513e+12
1.551492e+12
1.036098e+12
1.024549e+12
1.536806e+12
2.002921e+12
2.800161e+12
3.981826e+12
4.900481e+12
5.781249e+12
6.569079e+12
7.316362e+12
7.953216e+12
8.457463e+12
8.840111e+12
9.115758e+12
9.294698e+12
9.383298e+12
9.38382e+12
9.296169e+12
9.117669e+12
8.842077e+12
8.459446e+12
7.955389e+12
7.318805e+12
6.571556e+12
5.783387e+12
4.902189e+12
3.982835e+12
2.800336e+12
2.003186e+12
1.536937e+12
1.02468e+12
9.951021e+11
1.505053e+12
1.953352e+12
2.731663e+12
3.85139e+12
4.728188e+12
5.570024e+12
6.357392e+12
7.084107e+12
7.733436e+12
8.253529e+12
8.647849e+12
8.931241e+12
9.115071e+12
9.205969e+12
9.206336e+12
9.116217e+12
8.932968e+12
8.649963e+12
8.255896e+12
7.735952e+12
7.086639e+12
6.359711e+12
5.571861e+12
4.729798e+12
3.852553e+12
2.731645e+12
1.953636e+12
1.505313e+12
9.952694e+11
8.782548e+11
1.45114e+12
1.873e+12
2.629075e+12
3.630219e+12
4.474195e+12
5.27369e+12
6.059383e+12
6.753706e+12
7.406213e+12
7.943757e+12
8.35225e+12
8.646908e+12
8.838644e+12
8.933555e+12
8.933937e+12
8.839863e+12
8.648854e+12
8.354759e+12
7.946606e+12
7.409108e+12
6.756382e+12
6.061771e+12
5.275802e+12
4.475749e+12
3.631489e+12
2.628698e+12
1.873209e+12
1.451688e+12
8.783662e+11
1.151948e+12
1.700101e+12
2.453097e+12
3.156894e+12
4.132106e+12
4.906833e+12
5.659432e+12
6.356958e+12
6.984852e+12
7.523955e+12
7.94283e+12
8.251983e+12
8.45576e+12
8.557601e+12
8.558123e+12
8.457339e+12
8.254493e+12
7.946041e+12
7.527532e+12
6.988367e+12
6.360043e+12
5.662206e+12
4.909218e+12
4.133583e+12
3.158408e+12
2.452466e+12
1.700113e+12
1.152235e+12
1.051695e+12
1.541705e+12
2.107386e+12
2.856912e+12
3.73791e+12
4.47753e+12
5.186274e+12
5.875728e+12
6.464237e+12
6.984164e+12
7.404955e+12
7.73212e+12
7.952245e+12
8.064793e+12
8.065417e+12
7.954063e+12
7.734972e+12
7.408604e+12
6.98828e+12
6.468311e+12
5.879306e+12
5.1894e+12
4.479962e+12
3.739219e+12
2.858294e+12
2.107327e+12
1.541992e+12
1.052228e+12
8.763567e+11
1.4071e+12
1.799109e+12
2.49779e+12
3.128762e+12
3.951047e+12
4.638502e+12
5.28614e+12
5.875538e+12
6.356362e+12
6.753026e+12
7.08387e+12
7.316904e+12
7.443093e+12
7.443718e+12
7.318598e+12
7.086442e+12
6.756314e+12
6.360231e+12
5.879505e+12
5.289742e+12
4.641589e+12
3.953289e+12
3.129602e+12
2.498977e+12
1.799062e+12
1.407079e+12
8.771423e+11
9.670866e+11
1.51298e+12
1.992047e+12
2.680309e+12
3.23338e+12
4.015094e+12
4.638809e+12
5.186523e+12
5.659565e+12
6.059643e+12
6.3583e+12
6.570908e+12
6.693683e+12
6.694199e+12
6.572212e+12
6.360152e+12
6.062022e+12
5.662494e+12
5.189567e+12
4.641675e+12
4.017635e+12
3.235283e+12
2.681757e+12
1.992715e+12
1.513265e+12
9.674903e+11
1.126271e+12
1.601514e+12
2.072904e+12
2.723297e+12
3.23353e+12
3.951808e+12
4.478505e+12
4.907843e+12
5.274604e+12
5.571485e+12
5.783658e+12
5.871059e+12
5.871352e+12
5.784417e+12
5.572678e+12
5.276258e+12
4.909597e+12
4.480335e+12
3.953657e+12
3.235211e+12
2.724528e+12
2.073602e+12
1.601735e+12
1.126386e+12
9.061935e+11
1.379363e+12
1.653525e+12
2.073013e+12
2.681404e+12
3.129598e+12
3.738594e+12
4.133097e+12
4.475412e+12
4.729901e+12
4.902793e+12
4.989023e+12
4.989168e+12
4.903337e+12
4.730611e+12
4.476329e+12
4.134289e+12
3.740098e+12
3.130851e+12
2.682347e+12
2.073686e+12
1.653867e+12
1.379508e+12
9.06145e+11
9.145035e+11
1.379462e+12
1.601963e+12
1.992241e+12
2.49792e+12
2.856915e+12
3.157803e+12
3.631202e+12
3.85251e+12
3.983208e+12
4.048294e+12
4.048336e+12
3.983799e+12
3.853467e+12
3.632242e+12
3.158629e+12
2.858362e+12
2.49938e+12
1.993155e+12
1.602298e+12
1.379692e+12
9.145972e+11
9.062473e+11
1.126756e+12
1.51308e+12
1.799087e+12
2.107058e+12
2.452748e+12
2.628537e+12
2.73112e+12
2.799953e+12
2.83696e+12
2.836707e+12
2.800858e+12
2.732526e+12
2.630045e+12
2.454161e+12
2.108178e+12
1.799756e+12
1.513578e+12
1.126732e+12
9.063773e+11
9.672955e+11
1.406761e+12
1.541705e+12
1.699898e+12
1.872651e+12
1.952949e+12
2.002654e+12
2.026693e+12
2.026344e+12
2.003012e+12
1.95344e+12
1.873165e+12
1.700189e+12
1.541777e+12
1.40748e+12
9.673283e+11
8.763919e+11
1.051814e+12
1.151758e+12
1.451058e+12
1.504669e+12
1.536481e+12
1.552021e+12
1.551884e+12
1.536462e+12
1.504608e+12
1.451247e+12
1.151748e+12
1.051645e+12
8.767726e+11
8.779202e+11
9.946817e+11
1.02413e+12
1.036036e+12
1.03594e+12
1.023995e+12
9.944119e+11
8.77292e+11
7.786579e+11
8.775637e+11
8.996712e+11
8.994154e+11
8.767766e+11
7.781105e+11
7.484815e+11
9.30623e+11
1.041305e+12
1.167374e+12
1.450041e+12
1.511361e+12
1.534958e+12
1.534379e+12
1.509868e+12
1.448282e+12
1.166988e+12
1.041156e+12
9.303336e+11
7.485639e+11
7.545609e+11
9.768861e+11
1.356698e+12
1.587382e+12
1.790069e+12
2.080775e+12
2.241662e+12
2.308482e+12
2.34107e+12
2.340335e+12
2.30662e+12
2.239896e+12
2.080182e+12
1.789294e+12
1.586184e+12
1.3562e+12
9.769286e+11
7.550072e+11
8.441239e+11
1.31065e+12
1.640292e+12
2.105724e+12
2.37705e+12
2.64589e+12
2.886844e+12
3.287422e+12
3.44176e+12
3.503385e+12
3.502747e+12
3.440082e+12
3.285387e+12
2.88514e+12
2.643989e+12
2.375424e+12
2.103664e+12
1.640036e+12
1.310323e+12
8.446732e+11
9.044541e+11
1.455903e+12
1.893311e+12
2.421193e+12
2.840123e+12
3.416899e+12
3.791278e+12
4.078877e+12
4.319499e+12
4.467313e+12
4.535562e+12
4.535062e+12
4.465961e+12
4.317694e+12
4.077126e+12
3.789847e+12
3.41583e+12
2.8392e+12
2.41974e+12
1.893002e+12
1.455469e+12
9.046297e+11
9.38039e+11
1.574488e+12
2.180611e+12
2.647651e+12
3.109241e+12
3.864053e+12
4.405857e+12
4.833833e+12
5.137849e+12
5.368609e+12
5.518387e+12
5.591137e+12
5.590801e+12
5.517488e+12
5.367401e+12
5.136582e+12
4.832622e+12
4.404889e+12
3.863657e+12
3.108972e+12
2.646666e+12
2.179715e+12
1.573911e+12
9.378757e+11
9.047124e+11
1.574717e+12
2.277654e+12
2.819395e+12
3.584707e+12
4.218129e+12
4.852063e+12
5.381466e+12
5.82155e+12
6.192759e+12
6.465743e+12
6.640149e+12
6.725162e+12
6.725011e+12
6.639811e+12
6.465447e+12
6.192685e+12
5.821694e+12
5.381628e+12
4.852173e+12
4.217859e+12
3.584343e+12
2.818809e+12
2.276067e+12
1.574092e+12
9.044893e+11
8.445683e+11
1.456122e+12
2.181526e+12
2.819573e+12
3.677996e+12
4.430744e+12
5.130489e+12
5.749705e+12
6.329629e+12
6.821994e+12
7.226733e+12
7.52648e+12
7.721084e+12
7.816348e+12
7.816333e+12
7.721151e+12
7.526723e+12
7.227265e+12
6.822801e+12
6.330485e+12
5.750413e+12
5.130873e+12
4.430868e+12
3.677631e+12
2.818953e+12
2.18047e+12
1.45566e+12
8.44292e+11
7.54926e+11
1.310945e+12
1.894542e+12
2.648392e+12
3.585618e+12
4.43143e+12
5.226494e+12
5.934027e+12
6.619902e+12
7.24352e+12
7.769992e+12
8.197797e+12
8.520931e+12
8.732866e+12
8.833786e+12
8.833711e+12
8.732788e+12
8.521084e+12
8.198415e+12
7.771079e+12
7.244827e+12
6.621117e+12
5.934841e+12
5.226703e+12
4.431149e+12
3.584896e+12
2.647592e+12
1.894026e+12
1.310482e+12
7.546483e+11
9.77405e+11
1.641565e+12
2.421612e+12
3.111458e+12
4.219823e+12
5.132083e+12
5.934985e+12
6.71437e+12
7.444624e+12
8.095232e+12
8.648691e+12
9.096604e+12
9.435929e+12
9.66442e+12
9.781134e+12
9.780966e+12
9.664009e+12
9.435548e+12
9.096604e+12
8.649199e+12
8.09616e+12
7.44574e+12
6.715273e+12
5.935421e+12
5.131793e+12
4.219204e+12
3.11063e+12
2.421114e+12
1.641085e+12
9.773517e+11
7.490965e+11
1.3571e+12
2.105978e+12
2.841723e+12
3.867067e+12
4.854854e+12
5.75254e+12
6.622221e+12
7.445962e+12
8.201794e+12
8.872779e+12
9.445169e+12
9.913038e+12
1.027747e+13
1.052771e+13
1.065647e+13
1.065613e+13
1.05268e+13
1.027632e+13
9.912072e+12
9.444596e+12
8.872726e+12
8.202143e+12
7.446353e+12
6.622388e+12
5.752304e+12
4.854223e+12
3.866239e+12
2.840087e+12
2.105643e+12
1.356841e+12
7.495021e+11
9.305352e+11
1.587634e+12
2.377714e+12
3.419907e+12
4.409327e+12
5.385381e+12
6.333617e+12
7.247185e+12
8.097938e+12
8.874195e+12
9.56225e+12
1.016169e+13
1.065575e+13
1.103713e+13
1.129584e+13
1.142691e+13
1.142642e+13
1.129451e+13
1.103538e+13
1.065409e+13
1.016046e+13
9.561698e+12
8.874288e+12
8.098361e+12
7.247687e+12
6.333867e+12
5.385086e+12
4.40882e+12
3.418285e+12
2.376606e+12
1.587253e+12
9.307745e+11
1.041807e+12
1.791134e+12
2.648025e+12
3.795382e+12
4.837915e+12
5.826603e+12
6.827102e+12
7.774717e+12
8.652449e+12
9.447716e+12
1.016278e+13
1.078682e+13
1.129613e+13
1.16824e+13
1.194124e+13
1.207099e+13
1.207056e+13
1.19401e+13
1.168103e+13
1.129508e+13
1.078651e+13
1.016343e+13
9.449283e+12
8.654547e+12
7.776748e+12
6.828559e+12
5.827144e+12
4.837978e+12
3.793828e+12
2.646164e+12
1.789804e+12
1.041226e+12
1.168326e+12
2.083719e+12
2.890915e+12
4.083916e+12
5.143014e+12
6.198699e+12
7.23266e+12
8.203197e+12
9.101164e+12
9.916456e+12
1.065763e+13
1.12968e+13
1.181192e+13
1.219765e+13
1.245385e+13
1.258161e+13
1.25815e+13
1.245359e+13
1.219765e+13
1.181274e+13
1.12988e+13
1.066089e+13
9.920535e+12
9.105356e+12
8.206793e+12
7.235216e+12
6.199992e+12
5.143376e+12
4.08248e+12
2.888366e+12
2.08063e+12
1.167037e+12
7.793618e+11
1.450911e+12
2.244984e+12
3.29239e+12
4.325311e+12
5.374849e+12
6.472479e+12
7.532942e+12
8.526798e+12
9.441264e+12
1.028189e+13
1.104003e+13
1.168391e+13
1.219832e+13
1.258113e+13
1.283442e+13
1.296053e+13
1.296067e+13
1.283495e+13
1.258247e+13
1.220078e+13
1.168737e+13
1.104405e+13
1.028614e+13
9.445437e+12
8.530423e+12
7.535375e+12
6.473457e+12
5.374756e+12
4.323655e+12
3.289481e+12
2.241853e+12
1.449268e+12
7.784339e+11
8.776136e+11
1.512501e+12
2.311646e+12
3.446988e+12
4.473692e+12
5.525562e+12
6.647741e+12
7.728234e+12
8.739492e+12
9.670887e+12
1.053354e+13
1.130026e+13
1.19441e+13
1.245563e+13
1.283526e+13
1.308609e+13
1.321088e+13
1.321098e+13
1.30865e+13
1.283617e+13
1.245721e+13
1.194645e+13
1.130323e+13
1.053694e+13
9.674469e+12
8.742784e+12
7.730247e+12
6.648044e+12
5.524727e+12
4.471804e+12
3.444303e+12
2.309085e+12
1.511013e+12
8.773295e+11
9.00141e+11
1.536555e+12
2.344266e+12
3.509011e+12
4.542611e+12
5.599129e+12
6.733552e+12
7.824292e+12
8.841239e+12
9.788707e+12
1.06639e+13
1.143318e+13
1.207557e+13
1.258466e+13
1.296219e+13
1.321163e+13
1.333583e+13
1.33361e+13
1.321249e+13
1.29636e+13
1.258652e+13
1.207794e+13
1.143606e+13
1.066725e+13
9.79245e+12
8.844702e+12
7.826287e+12
6.733666e+12
5.597959e+12
4.540649e+12
3.506753e+12
2.342658e+12
1.53561e+12
8.999211e+11
9.001761e+11
1.536731e+12
2.344688e+12
3.509146e+12
4.542759e+12
5.59936e+12
6.733943e+12
7.824952e+12
8.842001e+12
9.789368e+12
1.066464e+13
1.143434e+13
1.207693e+13
1.258542e+13
1.29623e+13
1.321142e+13
1.33357e+13
1.333633e+13
1.321317e+13
1.296466e+13
1.258783e+13
1.207931e+13
1.143737e+13
1.066842e+13
9.7935e+12
8.845715e+12
7.827327e+12
6.734635e+12
5.598784e+12
4.541432e+12
3.50747e+12
2.343286e+12
1.536074e+12
9.002268e+11
8.781116e+11
1.512818e+12
2.311757e+12
3.446998e+12
4.473989e+12
5.526171e+12
6.64875e+12
7.73005e+12
8.741674e+12
9.673001e+12
1.053588e+13
1.130301e+13
1.194694e+13
1.245782e+13
1.283639e+13
1.308631e+13
1.321084e+13
1.321139e+13
1.308781e+13
1.283843e+13
1.246023e+13
1.194984e+13
1.13066e+13
1.053999e+13
9.677135e+12
8.745295e+12
7.732753e+12
6.650285e+12
5.526655e+12
4.473966e+12
3.446582e+12
2.311232e+12
1.512649e+12
8.782369e+11
7.800621e+11
1.450471e+12
2.244251e+12
3.292053e+12
4.325528e+12
5.375695e+12
6.473781e+12
7.535241e+12
8.52982e+12
9.444594e+12
1.028545e+13
1.104379e+13
1.168746e+13
1.220111e+13
1.258286e+13
1.283525e+13
1.296098e+13
1.296129e+13
1.283623e+13
1.258452e+13
1.220354e+13
1.16907e+13
1.104771e+13
1.028965e+13
9.448524e+12
8.533163e+12
7.537988e+12
6.475787e+12
5.376843e+12
4.326568e+12
3.292799e+12
2.24482e+12
1.45097e+12
7.802478e+11
1.16836e+12
2.082305e+12
2.890581e+12
4.084107e+12
5.144066e+12
6.199961e+12
7.234802e+12
8.206094e+12
9.104721e+12
9.920391e+12
1.066162e+13
1.130034e+13
1.181473e+13
1.219975e+13
1.245558e+13
1.258341e+13
1.258381e+13
1.245683e+13
1.220189e+13
1.181779e+13
1.13042e+13
1.066596e+13
9.924814e+12
9.108822e+12
8.209642e+12
7.237707e+12
6.202286e+12
5.145454e+12
4.085695e+12
2.891774e+12
2.083724e+12
1.168715e+12
1.041848e+12
1.791107e+12
2.648023e+12
3.795326e+12
4.838982e+12
5.827635e+12
6.828891e+12
7.777017e+12
8.655403e+12
9.4511e+12
1.016617e+13
1.078995e+13
1.129905e+13
1.168535e+13
1.194457e+13
1.207504e+13
1.207572e+13
1.194661e+13
1.168866e+13
1.130346e+13
1.079511e+13
1.017156e+13
9.456244e+12
8.660132e+12
7.781087e+12
6.832151e+12
5.830397e+12
4.840536e+12
3.797231e+12
2.649101e+12
1.791675e+12
1.041934e+12
9.312711e+11
1.588463e+12
2.378584e+12
3.419827e+12
4.410062e+12
5.386443e+12
6.335224e+12
7.249028e+12
8.100248e+12
8.876968e+12
9.565336e+12
1.016522e+13
1.065996e+13
1.104226e+13
1.130209e+13
1.143434e+13
1.143523e+13
1.130469e+13
1.104642e+13
1.066543e+13
1.017152e+13
9.571842e+12
8.883062e+12
8.1057e+12
7.253603e+12
6.338815e+12
5.389538e+12
4.412102e+12
3.421935e+12
2.378937e+12
1.588384e+12
9.309821e+11
7.497503e+11
1.357734e+12
2.107654e+12
2.841709e+12
3.867207e+12
4.855779e+12
5.753956e+12
6.623938e+12
7.448196e+12
8.204838e+12
8.876817e+12
9.450445e+12
9.919805e+12
1.028574e+13
1.053743e+13
1.066744e+13
1.06683e+13
1.053991e+13
1.028969e+13
9.925038e+12
9.456615e+12
8.883331e+12
8.211139e+12
7.453924e+12
6.628743e+12
5.757757e+12
4.85918e+12
3.86971e+12
2.843813e+12
2.106897e+12
1.357874e+12
7.495148e+11
9.77762e+11
1.641813e+12
2.422765e+12
3.111022e+12
4.2209e+12
5.133547e+12
5.937093e+12
6.717378e+12
7.448901e+12
8.100981e+12
8.656065e+12
9.105768e+12
9.446739e+12
9.676639e+12
9.7944e+12
9.795071e+12
9.678558e+12
9.449765e+12
9.109819e+12
8.660949e+12
8.106264e+12
7.454228e+12
6.722472e+12
5.941642e+12
5.137431e+12
4.223999e+12
3.113595e+12
2.423664e+12
1.642174e+12
9.777926e+11
7.549465e+11
1.3116e+12
1.895265e+12
2.650235e+12
3.587564e+12
4.43356e+12
5.229375e+12
5.938025e+12
6.625437e+12
7.250697e+12
7.778836e+12
8.208286e+12
8.53295e+12
8.746163e+12
8.847894e+12
8.848343e+12
8.74748e+12
8.535076e+12
8.211182e+12
7.782346e+12
7.254607e+12
6.629518e+12
5.94202e+12
5.232922e+12
4.436335e+12
3.589347e+12
2.651008e+12
1.895587e+12
1.311853e+12
7.553978e+11
8.445829e+11
1.457248e+12
2.18325e+12
2.821139e+12
3.680075e+12
4.433969e+12
5.135033e+12
5.755755e+12
6.337043e+12
6.831041e+12
7.237367e+12
7.538469e+12
7.734149e+12
7.83e+12
7.830287e+12
7.735109e+12
7.540038e+12
7.239518e+12
6.833794e+12
6.340238e+12
5.758955e+12
5.138002e+12
4.436631e+12
3.682155e+12
2.822599e+12
2.183171e+12
1.457277e+12
8.449789e+11
9.048954e+11
1.575438e+12
2.279848e+12
2.820909e+12
3.588055e+12
4.22227e+12
4.857416e+12
5.387987e+12
5.829624e+12
6.202193e+12
6.476317e+12
6.651726e+12
6.737378e+12
6.737534e+12
6.652551e+12
6.477793e+12
6.204182e+12
5.832064e+12
5.39074e+12
4.859879e+12
4.224223e+12
3.589839e+12
2.822272e+12
2.280468e+12
1.575785e+12
9.05024e+11
9.381928e+11
1.575371e+12
2.183576e+12
2.650769e+12
3.112984e+12
3.868944e+12
4.411461e+12
4.840345e+12
5.145544e+12
5.377356e+12
5.528214e+12
5.602042e+12
5.601982e+12
5.528866e+12
5.378611e+12
5.147258e+12
4.842505e+12
4.413424e+12
3.870287e+12
3.113357e+12
2.651707e+12
2.184345e+12
1.575887e+12
9.383749e+11
9.046088e+11
1.456774e+12
1.895937e+12
2.423532e+12
2.842348e+12
3.42091e+12
3.796664e+12
4.085659e+12
4.32722e+12
4.47581e+12
4.544567e+12
4.544311e+12
4.475801e+12
4.327437e+12
4.086144e+12
3.797769e+12
3.422396e+12