/*--------------------------------*- C++ -*----------------------------------*\
  =========                 |
  \\      /  F ield         | OpenFOAM: The Open Source CFD Toolbox
   \\    /   O peration     | Website:  https://openfoam.org
    \\  /    A nd           | Version:  6
     \\/     M anipulation  |
\*---------------------------------------------------------------------------*/
FoamFile
{
    version     2.0;
    format      ascii;
    class       volScalarField;
    location    "50/region0/neutronTransport";
    object      precursor0.dnp;
}
// * * * * * * * * * * * * * * * * * * * * * * * * * * * * * * * * * * * * * //

dimensions      [0 -3 0 0 0 0 0];

internalField   nonuniform List<scalar> 
203709
(
5.869772e+14
6.457941e+14
6.457226e+14
5.871188e+14
6.134196e+14
6.867059e+14
8.501233e+14
8.411848e+14
8.41091e+14
8.500949e+14
6.866529e+14
6.134785e+14
5.993147e+14
6.8914e+14
8.611878e+14
8.587415e+14
8.831678e+14
8.892632e+14
8.892367e+14
8.831313e+14
8.586723e+14
8.61194e+14
6.89157e+14
5.994102e+14
5.993158e+14
8.370741e+14
8.549457e+14
8.884943e+14
9.059466e+14
9.212873e+14
9.280811e+14
9.28114e+14
9.212638e+14
9.059136e+14
8.885574e+14
8.550608e+14
8.373014e+14
5.995556e+14
6.89022e+14
8.548503e+14
8.934986e+14
9.20932e+14
9.4172e+14
9.567405e+14
9.642201e+14
9.642596e+14
9.567467e+14
9.417717e+14
9.210858e+14
8.937119e+14
8.551453e+14
6.893131e+14
6.133193e+14
8.610202e+14
8.883697e+14
9.208551e+14
9.491206e+14
9.71434e+14
9.869254e+14
9.946213e+14
9.946495e+14
9.870031e+14
9.715964e+14
9.49319e+14
9.211324e+14
8.887483e+14
8.614754e+14
6.136132e+14
6.864816e+14
8.584739e+14
9.057084e+14
9.415225e+14
9.713508e+14
9.945428e+14
1.010007e+15
1.017338e+15
1.017372e+15
1.010143e+15
9.947127e+14
9.715618e+14
9.418422e+14
9.060778e+14
8.58839e+14
6.868189e+14
5.870073e+14
8.500099e+14
8.829845e+14
9.210763e+14
9.565785e+14
9.868108e+14
1.00997e+15
1.024361e+15
1.031495e+15
1.031496e+15
1.024387e+15
1.009969e+15
9.868794e+14
9.567325e+14
9.213075e+14
8.832788e+14
8.50412e+14
5.871239e+14
6.456298e+14
8.409926e+14
8.890432e+14
9.279011e+14
9.640422e+14
9.944502e+14
1.01728e+15
1.031544e+15
1.039316e+15
1.039097e+15
1.031525e+15
1.017339e+15
9.945976e+14
9.642097e+14
9.281038e+14
8.893461e+14
8.412969e+14
6.458477e+14
6.456987e+14
8.411632e+14
8.891315e+14
9.279137e+14
9.640273e+14
9.944141e+14
1.01719e+15
1.031488e+15
1.039478e+15
1.039278e+15
1.031572e+15
1.017359e+15
9.945885e+14
9.642267e+14
9.281161e+14
8.893572e+14
8.414024e+14
6.459596e+14
5.868658e+14
8.501773e+14
8.830703e+14
9.211049e+14
9.565464e+14
9.867239e+14
1.009845e+15
1.024277e+15
1.031509e+15
1.031506e+15
1.024434e+15
1.010072e+15
9.869407e+14
9.567637e+14
9.21312e+14
8.832748e+14
8.503299e+14
5.871565e+14
6.864804e+14
8.585196e+14
9.057333e+14
9.415113e+14
9.712328e+14
9.943778e+14
1.009827e+15
1.017229e+15
1.017206e+15
1.010007e+15
9.945966e+14
9.714744e+14
9.417261e+14
9.05926e+14
8.587446e+14
6.867509e+14
6.133029e+14
8.610283e+14
8.882814e+14
9.207272e+14
9.489137e+14
9.712186e+14
9.866567e+14
9.94457e+14
9.944558e+14
9.868495e+14
9.714433e+14
9.491964e+14
9.210175e+14
8.885742e+14
8.613086e+14
6.135122e+14
6.889495e+14
8.546943e+14
8.933092e+14
9.207205e+14
9.414833e+14
9.565451e+14
9.644724e+14
9.64487e+14
9.566528e+14
9.416756e+14
9.209731e+14
8.93617e+14
8.550815e+14
6.892511e+14
5.99245e+14
8.369724e+14
8.547371e+14
8.88299e+14
9.057017e+14
9.211007e+14
9.283043e+14
9.283366e+14
9.21196e+14
9.058651e+14
8.884838e+14
8.549522e+14
8.372479e+14
5.993762e+14
5.992946e+14
6.890164e+14
8.610463e+14
8.584912e+14
8.830624e+14
8.894144e+14
8.895104e+14
8.831513e+14
8.586785e+14
8.611854e+14
6.890717e+14
5.993508e+14
6.133896e+14
6.865639e+14
8.501582e+14
8.415401e+14
8.416792e+14
8.502344e+14
6.866391e+14
6.134035e+14
5.87073e+14
6.458086e+14
6.458659e+14
5.870786e+14
4.918541e+14
5.590778e+14
5.818518e+14
5.974828e+14
6.072593e+14
6.07269e+14
5.975169e+14
5.81902e+14
5.591616e+14
4.919841e+14
5.016715e+14
5.845582e+14
7.445825e+14
7.688941e+14
7.966447e+14
8.272067e+14
8.514004e+14
8.514204e+14
8.273057e+14
7.966682e+14
7.688083e+14
7.444383e+14
5.844001e+14
5.015517e+14
5.134853e+14
7.322924e+14
7.734383e+14
8.329402e+14
8.893847e+14
9.363575e+14
9.970166e+14
1.047062e+15
1.047066e+15
9.970532e+14
9.361913e+14
8.891341e+14
8.32806e+14
7.733721e+14
7.324039e+14
5.135747e+14
5.185618e+14
7.459963e+14
8.13048e+14
8.862413e+14
9.621354e+14
1.070158e+15
1.203936e+15
1.336907e+15
1.38464e+15
1.384614e+15
1.33672e+15
1.203752e+15
1.070056e+15
9.621304e+14
8.862935e+14
8.131373e+14
7.460511e+14
5.18686e+14
5.134626e+14
7.459127e+14
8.212563e+14
9.070047e+14
1.04946e+15
1.221199e+15
1.405981e+15
1.54188e+15
1.643047e+15
1.807325e+15
1.807257e+15
1.642968e+15
1.541732e+15
1.405764e+15
1.221173e+15
1.049416e+15
9.070944e+14
8.21321e+14
7.459776e+14
5.13575e+14
5.01717e+14
7.324976e+14
8.130969e+14
9.070657e+14
1.102053e+15
1.362429e+15
1.541208e+15
1.688258e+15
1.92485e+15
2.030792e+15
2.093302e+15
2.093201e+15
2.030529e+15
1.924496e+15
1.687958e+15
1.540923e+15
1.362138e+15
1.101962e+15
9.070221e+14
8.131504e+14
7.326082e+14
5.018627e+14
5.844619e+14
7.734389e+14
8.862741e+14
1.049499e+15
1.362413e+15
1.612319e+15
1.896467e+15
2.053802e+15
2.17672e+15
2.252602e+15
2.291218e+15
2.291112e+15
2.252293e+15
2.176336e+15
2.053431e+15
1.896132e+15
1.612142e+15
1.362411e+15
1.049575e+15
8.865021e+14
7.737332e+14
5.847027e+14
4.920382e+14
7.445824e+14
8.328331e+14
9.621125e+14
1.221153e+15
1.541319e+15
1.896435e+15
2.110033e+15
2.247907e+15
2.34329e+15
2.403865e+15
2.433742e+15
2.43368e+15
2.403682e+15
2.343118e+15
2.24782e+15
2.110075e+15
1.896691e+15
1.54181e+15
1.221772e+15
9.626645e+14
8.332613e+14
7.448275e+14
4.921045e+14
5.592447e+14
7.690832e+14
8.892824e+14
1.070219e+15
1.406271e+15
1.688487e+15
2.053798e+15
2.247855e+15
2.373034e+15
2.457546e+15
2.511017e+15
2.537103e+15
2.537115e+15
2.511058e+15
2.457695e+15
2.373323e+15
2.248329e+15
2.054465e+15
1.689248e+15
1.407016e+15
1.070669e+15
8.89744e+14
7.693005e+14
5.593292e+14
5.820052e+14
7.969075e+14
9.363102e+14
1.203855e+15
1.54231e+15
1.925122e+15
2.176751e+15
2.343221e+15
2.45752e+15
2.536044e+15
2.585944e+15
2.610389e+15
2.610446e+15
2.586136e+15
2.536386e+15
2.458005e+15
2.343848e+15
2.177415e+15
1.925692e+15
1.542594e+15
1.204455e+15
9.368022e+14
7.970485e+14
5.820755e+14
5.97609e+14
8.275227e+14
9.973021e+14
1.337319e+15
1.643652e+15
2.031275e+15
2.252801e+15
2.40391e+15
2.511034e+15
2.585958e+15
2.633631e+15
2.657029e+15
2.657007e+15
2.633644e+15
2.586007e+15
2.511179e+15
2.404188e+15
2.253183e+15
2.031663e+15
1.643946e+15
1.337758e+15
9.975699e+14
8.276775e+14
5.977591e+14
6.073026e+14
8.515672e+14
1.047247e+15
1.385166e+15
1.808086e+15
2.094013e+15
2.291684e+15
2.433985e+15
2.537205e+15
2.610469e+15
2.657197e+15
2.68031e+15
2.680216e+15
2.657255e+15
2.610659e+15
2.537489e+15
2.434317e+15
2.292077e+15
2.094443e+15
1.808526e+15
1.385636e+15
1.047681e+15
8.518843e+14
6.07534e+14
6.072021e+14
8.514142e+14
1.047093e+15
1.38508e+15
1.808149e+15
2.094159e+15
2.291911e+15
2.434159e+15
2.537242e+15
2.610379e+15
2.657126e+15
2.680414e+15
2.680425e+15
2.657484e+15
2.610916e+15
2.537746e+15
2.434559e+15
2.292297e+15
2.094659e+15
1.808712e+15
1.385609e+15
1.04758e+15
8.517978e+14
6.074741e+14
5.973612e+14
8.27316e+14
9.973267e+14
1.337485e+15
1.643717e+15
2.031595e+15
2.253219e+15
2.404249e+15
2.511191e+15
2.585922e+15
2.633542e+15
2.657088e+15
2.657234e+15
2.634057e+15
2.586586e+15
2.511818e+15
2.404805e+15
2.253749e+15
2.03219e+15
1.644375e+15
1.338011e+15
9.977987e+14
8.277682e+14
5.976815e+14
5.817992e+14
7.968243e+14
9.365521e+14
1.204194e+15
1.542494e+15
1.925517e+15
2.177199e+15
2.343564e+15
2.457648e+15
2.535981e+15
2.585781e+15
2.610288e+15
2.610401e+15
2.586241e+15
2.536627e+15
2.45836e+15
2.344272e+15
2.177876e+15
1.926173e+15
1.54316e+15
1.204574e+15
9.368754e+14
7.973033e+14
5.821483e+14
5.591103e+14
7.690693e+14
8.895296e+14
1.070353e+15
1.406658e+15
1.688875e+15
2.05415e+15
2.248053e+15
2.373036e+15
2.45743e+15
2.510866e+15
2.537048e+15
2.537159e+15
2.511316e+15
2.458109e+15
2.373853e+15
2.248913e+15
2.054946e+15
1.689425e+15
1.407072e+15
1.070827e+15
8.898146e+14
7.695007e+14
5.594339e+14
4.919161e+14
7.446125e+14
8.330099e+14
9.621909e+14
1.221478e+15
1.541584e+15
1.896616e+15
2.110069e+15
2.247844e+15
2.343208e+15
2.403892e+15
2.433888e+15
2.434027e+15
2.404357e+15
2.343946e+15
2.248757e+15
2.111048e+15
1.897501e+15
1.542143e+15
1.221869e+15
9.626446e+14
8.332611e+14
7.449559e+14
4.922017e+14
5.846074e+14
7.73495e+14
8.862363e+14
1.049539e+15
1.36252e+15
1.612341e+15
1.896472e+15
2.053873e+15
2.176884e+15
2.252996e+15
2.291712e+15
2.291874e+15
2.253467e+15
2.177621e+15
2.054771e+15
1.897444e+15
1.613182e+15
1.363083e+15
1.04995e+15
8.867105e+14
7.737271e+14
5.846545e+14
5.01827e+14
7.324191e+14
8.130547e+14
9.070537e+14
1.102097e+15
1.3625e+15
1.541503e+15
1.688763e+15
1.925467e+15
2.031714e+15
2.094359e+15
2.094549e+15
2.032132e+15
1.926055e+15
1.689353e+15
1.542192e+15
1.363178e+15
1.102558e+15
9.074043e+14
8.134517e+14
7.326634e+14
5.017253e+14
5.13596e+14
7.461698e+14
8.214327e+14
9.070523e+14
1.049527e+15
1.221491e+15
1.40675e+15
1.542793e+15
1.644125e+15
1.808542e+15
1.808727e+15
1.644425e+15
1.543053e+15
1.406946e+15
1.221876e+15
1.04992e+15
9.073573e+14
8.216658e+14
7.463845e+14
5.13611e+14
5.187292e+14
7.461462e+14
8.131714e+14
8.864824e+14
9.624331e+14
1.070385e+15
1.204384e+15
1.337915e+15
1.385689e+15
1.385752e+15
1.337889e+15
1.204456e+15
1.070626e+15
9.625164e+14
8.865462e+14
8.132706e+14
7.462776e+14
5.187876e+14
5.134893e+14
7.325718e+14
7.736547e+14
8.330789e+14
8.895367e+14
9.367757e+14
9.976915e+14
1.047716e+15
1.047718e+15
9.976552e+14
9.366431e+14
8.895844e+14
8.332117e+14
7.73715e+14
7.325776e+14
5.135024e+14
5.018702e+14
5.846619e+14
7.447776e+14
7.693006e+14
7.971649e+14
8.277411e+14
8.519279e+14
8.51939e+14
8.277328e+14
7.970838e+14
7.69214e+14
7.449058e+14
5.847515e+14
5.018759e+14
4.919912e+14
5.592109e+14
5.81947e+14
5.975578e+14
6.073796e+14
6.073761e+14
5.976654e+14
5.820655e+14
5.592904e+14
4.91982e+14
4.168552e+14
4.7266e+14
4.866458e+14
4.920286e+14
4.919219e+14
4.863275e+14
4.720888e+14
4.163989e+14
4.164013e+14
4.994498e+14
5.469491e+14
6.889843e+14
7.147509e+14
7.29831e+14
7.367011e+14
7.365974e+14
7.295003e+14
7.1422e+14
6.887422e+14
5.468222e+14
4.993846e+14
4.165444e+14
4.592311e+14
6.680227e+14
7.319885e+14
8.071942e+14
8.894459e+14
9.27641e+14
9.511203e+14
9.621459e+14
9.620582e+14
9.508594e+14
9.272296e+14
8.890149e+14
8.069686e+14
7.318391e+14
6.679611e+14
4.594623e+14
4.303234e+14
5.348593e+14
7.185158e+14
8.541571e+14
1.000594e+15
1.164708e+15
1.248238e+15
1.296907e+15
1.329308e+15
1.346118e+15
1.346021e+15
1.329036e+15
1.296506e+15
1.247791e+15
1.164321e+15
1.000325e+15
8.54143e+14
7.184086e+14
5.349301e+14
4.303422e+14
4.343874e+14
6.549533e+14
7.604474e+14
9.460599e+14
1.186161e+15
1.356372e+15
1.498755e+15
1.723376e+15
1.828315e+15
1.890134e+15
1.920917e+15
1.920843e+15
1.889961e+15
1.828125e+15
1.723299e+15
1.498932e+15
1.356609e+15
1.186252e+15
9.459513e+14
7.605987e+14
6.549326e+14
4.344209e+14
4.303053e+14
6.550848e+14
7.852707e+14
9.844136e+14
1.272957e+15
1.485512e+15
1.774635e+15
1.961694e+15
2.123954e+15
2.244477e+15
2.326234e+15
2.367034e+15
2.366968e+15
2.326112e+15
2.24425e+15
2.12374e+15
1.961639e+15
1.774666e+15
1.485549e+15
1.273061e+15
9.845704e+14
7.851814e+14
6.550054e+14
4.303215e+14
5.350628e+14
7.606744e+14
9.845492e+14
1.293394e+15
1.535717e+15
1.876371e+15
2.126153e+15
2.32977e+15
2.503683e+15
2.644275e+15
2.744555e+15
2.785802e+15
2.78571e+15
2.744287e+15
2.643919e+15
2.503435e+15
2.32974e+15
2.126255e+15
1.876524e+15
1.535846e+15
1.293342e+15
9.845226e+14
7.606623e+14
5.350613e+14
4.596596e+14
7.186226e+14
9.460946e+14
1.273303e+15
1.535748e+15
1.907068e+15
2.203139e+15
2.463045e+15
2.687362e+15
2.876849e+15
3.018285e+15
3.118882e+15
3.176933e+15
3.176808e+15
3.118549e+15
3.017822e+15
2.876406e+15
2.68707e+15
2.462918e+15
2.203218e+15
1.907202e+15
1.535922e+15
1.273281e+15
9.461252e+14
7.186466e+14
4.595489e+14
4.165015e+14
6.682235e+14
8.543625e+14
1.186385e+15
1.486164e+15
1.876959e+15
2.203483e+15
2.510994e+15
2.790826e+15
3.018937e+15
3.206935e+15
3.363716e+15
3.473982e+15
3.533606e+15
3.533438e+15
3.473519e+15
3.363064e+15
3.206255e+15
3.018304e+15
2.790364e+15
2.510783e+15
2.203393e+15
1.876929e+15
1.486134e+15
1.186217e+15
8.544988e+14
6.682144e+14
4.164105e+14
4.996806e+14
7.322883e+14
1.00074e+15
1.357109e+15
1.775487e+15
2.127081e+15
2.463653e+15
2.791094e+15
3.070706e+15
3.317671e+15
3.517413e+15
3.672604e+15
3.77685e+15
3.830039e+15
3.829842e+15
3.776314e+15
3.671876e+15
3.516652e+15
3.316994e+15
3.070264e+15
2.790927e+15
2.46365e+15
2.127194e+15
1.775624e+15
1.356982e+15
1.00102e+15
7.324455e+14
4.996636e+14
5.471266e+14
8.073408e+14
1.164694e+15
1.499828e+15
1.962744e+15
2.330826e+15
2.688081e+15
3.01941e+15
3.317833e+15
3.574132e+15
3.773267e+15
3.920166e+15
4.016862e+15
4.06506e+15
4.064914e+15
4.016475e+15
3.9197e+15
3.772884e+15
3.573961e+15
3.317993e+15
3.019931e+15
2.688814e+15
2.331534e+15
1.963319e+15
1.500041e+15
1.165458e+15
8.077344e+14
5.472227e+14
4.169424e+14
6.893074e+14
8.894466e+14
1.24842e+15
1.724502e+15
2.125142e+15
2.504805e+15
2.877842e+15
3.207658e+15
3.517729e+15
3.773344e+15
3.967716e+15
4.107953e+15
4.199152e+15
4.244188e+15
4.244164e+15
4.1991e+15
4.107999e+15
3.968005e+15
3.773972e+15
3.518738e+15
3.208949e+15
2.87919e+15
2.505928e+15
2.126004e+15
1.725022e+15
1.249279e+15
8.899577e+14
6.892778e+14
4.169204e+14
4.724985e+14
7.147954e+14
9.278447e+14
1.297446e+15
1.829534e+15
2.245779e+15
2.645436e+15
3.019499e+15
3.364699e+15
3.673162e+15
3.920409e+15
4.108071e+15
4.24307e+15
4.330658e+15
4.373886e+15
4.373943e+15
4.330856e+15
4.243521e+15
4.10883e+15
3.921449e+15
3.674335e+15
3.36589e+15
3.020647e+15
2.646569e+15
2.24656e+15
1.829994e+15
1.298009e+15
9.281807e+14
7.149904e+14
4.726259e+14
4.866392e+14
7.299884e+14
9.514893e+14
1.330177e+15
1.891605e+15
2.327801e+15
2.746116e+15
3.120478e+15
3.475399e+15
3.777832e+15
4.017446e+15
4.199513e+15
4.330823e+15
4.416063e+15
4.45811e+15
4.458112e+15
4.41613e+15
4.331013e+15
4.199881e+15
4.01803e+15
3.778595e+15
3.476265e+15
3.121403e+15
2.747064e+15
2.328437e+15
1.8919e+15
1.330441e+15
9.517228e+14
7.30153e+14
4.867042e+14
4.922049e+14
7.371019e+14
9.627284e+14
1.347251e+15
1.922616e+15
2.368801e+15
2.787645e+15
3.178899e+15
3.535536e+15
3.831585e+15
4.066136e+15
4.244865e+15
4.374263e+15
4.458376e+15
4.499934e+15
4.499972e+15
4.4586e+15
4.374669e+15
4.245397e+15
4.06677e+15
3.83235e+15
3.536408e+15
3.179886e+15
2.788645e+15
2.36948e+15
1.922854e+15
1.347342e+15
9.628314e+14
7.371438e+14
4.922426e+14
4.922368e+14
7.371335e+14
9.627533e+14
1.347322e+15
1.922693e+15
2.36894e+15
2.787816e+15
3.179064e+15
3.535776e+15
3.831984e+15
4.066534e+15
4.245049e+15
4.374236e+15
4.45829e+15
4.499955e+15
4.500152e+15
4.458923e+15
4.375098e+15
4.245875e+15
4.067244e+15
3.832788e+15
3.536803e+15
3.180214e+15
2.788885e+15
2.369688e+15
1.92301e+15
1.347385e+15
9.628276e+14
7.371381e+14
4.922663e+14
4.867792e+14
7.301603e+14
9.516188e+14
1.3304e+15
1.891827e+15
2.328294e+15
2.746761e+15
3.121071e+15
3.476117e+15
3.778696e+15
4.018272e+15
4.200074e+15
4.331038e+15
4.416055e+15
4.458151e+15
4.458398e+15
4.416754e+15
4.331946e+15
4.201008e+15
4.019214e+15
3.779729e+15
3.477278e+15
3.122248e+15
2.747777e+15
2.329106e+15
1.892307e+15
1.330483e+15
9.517446e+14
7.302225e+14
4.868413e+14
4.727885e+14
7.15074e+14
9.280679e+14
1.297855e+15
1.829855e+15
2.246435e+15
2.646405e+15
3.020496e+15
3.365769e+15
3.674275e+15
3.92138e+15
4.108727e+15
4.243371e+15
4.330712e+15
4.373899e+15
4.374073e+15
4.331256e+15
4.244192e+15
4.109732e+15
3.922504e+15
3.675471e+15
3.366972e+15
3.021597e+15
2.647278e+15
2.247201e+15
1.830408e+15
1.297847e+15
9.282029e+14
7.151976e+14
4.72868e+14
4.172725e+14
6.894591e+14
8.898914e+14
1.249114e+15
1.724774e+15
2.125759e+15
2.505612e+15
2.878907e+15
3.20879e+15
3.518807e+15
3.774202e+15
3.968283e+15
4.10828e+15
4.199377e+15
4.24447e+15
4.244652e+15
4.199956e+15
4.109205e+15
3.969476e+15
3.775556e+15
3.520182e+15
3.210062e+15
2.880042e+15
2.506616e+15
2.126498e+15
1.725377e+15
1.248935e+15
8.899907e+14
6.897193e+14
4.173254e+14
5.473085e+14
8.077446e+14
1.165505e+15
1.499889e+15
1.963228e+15
2.331313e+15
2.688884e+15
3.020289e+15
3.318611e+15
3.574748e+15
3.773762e+15
3.920645e+15
4.017463e+15
4.065849e+15
4.066097e+15
4.018213e+15
3.921838e+15
3.775287e+15
3.576447e+15
3.320281e+15
3.021755e+15
2.690202e+15
2.332446e+15
1.96393e+15
1.500609e+15
1.165205e+15
8.077501e+14
5.474446e+14
4.996767e+14
7.324882e+14
1.001252e+15
1.357363e+15
1.775939e+15
2.127344e+15
2.464079e+15
2.791649e+15
3.071259e+15
3.318285e+15
3.518209e+15
3.67365e+15
3.778235e+15
3.831708e+15
3.832005e+15
3.779099e+15
3.675005e+15
3.519943e+15
3.32024e+15
3.073195e+15
2.79335e+15
2.465565e+15
2.1285e+15
1.776561e+15
1.35802e+15
1.001224e+15
7.326242e+14
4.999299e+14
4.163707e+14
6.685352e+14
8.547846e+14
1.186739e+15
1.486523e+15
1.877204e+15
2.203824e+15
2.511527e+15
2.791559e+15
3.020006e+15
3.208467e+15
3.365657e+15
3.476375e+15
3.536329e+15
3.536626e+15
3.477179e+15
3.366879e+15
3.210029e+15
3.021844e+15
2.793444e+15
2.513239e+15
2.205291e+15
1.878269e+15
1.486922e+15
1.187303e+15
8.547624e+14
6.685251e+14
4.167439e+14
4.594778e+14
7.188404e+14
9.464525e+14
1.273457e+15
1.536229e+15
1.907633e+15
2.20397e+15
2.464198e+15
2.688947e+15
2.87903e+15
3.020927e+15
3.12194e+15
3.180273e+15
3.180518e+15
3.12256e+15
3.021807e+15
2.880161e+15
2.690339e+15
2.465644e+15
2.205332e+15
1.908841e+15
1.537133e+15
1.274144e+15
9.467698e+14
7.189755e+14
4.596696e+14
5.351087e+14
7.609041e+14
9.848689e+14
1.293881e+15
1.5363e+15
1.877565e+15
2.127807e+15
2.331792e+15
2.506046e+15
2.647099e+15
2.747906e+15
2.789431e+15
2.789571e+15
2.748266e+15
2.647666e+15
2.506832e+15
2.332626e+15
2.128677e+15
1.878444e+15
1.537099e+15
1.294466e+15
9.852005e+14
7.610091e+14
5.351637e+14
4.305466e+14
6.553568e+14
7.856155e+14
9.849205e+14
1.273977e+15
1.486921e+15
1.776264e+15
1.963698e+15
2.126338e+15
2.247249e+15
2.329393e+15
2.370362e+15
2.370431e+15
2.329651e+15
2.247587e+15
2.126774e+15
1.964265e+15
1.776979e+15
1.487516e+15
1.274424e+15
9.852403e+14
7.857777e+14
6.554257e+14
4.305236e+14
4.344948e+14
6.554038e+14
7.611175e+14
9.465444e+14
1.1868e+15
1.357365e+15
1.500321e+15
1.72524e+15
1.830387e+15
1.892484e+15
1.923407e+15
1.923427e+15
1.892765e+15
1.830842e+15
1.725734e+15
1.500714e+15
1.358052e+15
1.187494e+15
9.46979e+14
7.612767e+14
6.555132e+14
4.345393e+14
4.305722e+14
5.353392e+14
7.188879e+14
8.547741e+14
1.001096e+15
1.165339e+15
1.248859e+15
1.297598e+15
1.330301e+15
1.347884e+15
1.347763e+15
1.330731e+15
1.298266e+15
1.249575e+15
1.16601e+15
1.001628e+15
8.550919e+14
7.191242e+14
5.353278e+14
4.306339e+14
4.595771e+14
6.683739e+14
7.324878e+14
8.076481e+14
8.897254e+14
9.278765e+14
9.514918e+14
9.629132e+14
9.627477e+14
9.516621e+14
9.281096e+14
8.899699e+14
8.077862e+14
7.325223e+14
6.687157e+14
4.595927e+14
4.163874e+14
4.997331e+14
5.47218e+14
6.894203e+14
7.148914e+14
7.300061e+14
7.373895e+14
7.373242e+14
7.299967e+14
7.148627e+14
6.895098e+14
5.472135e+14
4.996529e+14
4.165682e+14
4.171135e+14
4.725887e+14
4.865802e+14
4.922368e+14
4.921914e+14
4.865158e+14
4.724605e+14
4.168151e+14
3.699525e+14
4.169441e+14
4.274477e+14
4.273262e+14
4.165702e+14
3.696924e+14
3.556152e+14
4.421534e+14
4.947402e+14
5.546373e+14
6.889368e+14
7.180711e+14
7.292824e+14
7.290074e+14
7.173615e+14
6.881013e+14
5.544541e+14
4.946696e+14
4.420159e+14
3.556543e+14
3.585036e+14
4.641338e+14
6.445884e+14
7.5419e+14
8.504897e+14
9.886084e+14
1.065049e+15
1.096796e+15
1.112279e+15
1.111929e+15
1.095911e+15
1.06421e+15
9.883265e+14
8.501215e+14
7.536205e+14
6.443516e+14
4.641539e+14
3.587156e+14
4.010564e+14
6.227104e+14
7.793282e+14
1.000462e+15
1.129374e+15
1.257103e+15
1.371584e+15
1.561905e+15
1.635233e+15
1.664512e+15
1.66421e+15
1.634436e+15
1.560938e+15
1.370775e+15
1.2562e+15
1.128601e+15
9.994833e+14
7.792063e+14
6.22555e+14
4.013173e+14
4.297202e+14
6.917221e+14
8.995413e+14
1.150346e+15
1.349386e+15
1.623422e+15
1.801295e+15
1.937938e+15
2.052261e+15
2.12249e+15
2.154916e+15
2.154678e+15
2.121848e+15
2.051403e+15
1.937106e+15
1.800615e+15
1.622914e+15
1.348948e+15
1.149656e+15
8.993948e+14
6.915158e+14
4.298036e+14
4.456769e+14
7.480639e+14
1.036042e+15
1.25794e+15
1.477249e+15
1.835872e+15
2.093291e+15
2.296629e+15
2.441072e+15
2.55071e+15
2.621871e+15
2.656436e+15
2.656276e+15
2.621444e+15
2.550135e+15
2.44047e+15
2.296054e+15
2.092831e+15
1.835683e+15
1.477121e+15
1.257472e+15
1.035616e+15
7.477893e+14
4.455993e+14
4.298429e+14
7.481725e+14
1.082149e+15
1.339539e+15
1.70315e+15
2.004099e+15
2.30529e+15
2.556818e+15
2.765909e+15
2.942276e+15
3.071975e+15
3.154838e+15
3.195229e+15
3.195157e+15
3.154677e+15
3.071834e+15
2.942241e+15
2.765977e+15
2.556895e+15
2.305343e+15
2.00397e+15
1.702977e+15
1.33926e+15
1.081395e+15
7.478754e+14
4.297369e+14
4.012675e+14
6.918262e+14
1.036477e+15
1.339623e+15
1.747473e+15
2.105115e+15
2.437575e+15
2.731774e+15
3.007305e+15
3.241235e+15
3.433533e+15
3.575947e+15
3.668407e+15
3.713668e+15
3.713661e+15
3.668439e+15
3.576063e+15
3.433786e+15
3.241619e+15
3.007712e+15
2.73211e+15
2.437757e+15
2.105174e+15
1.747299e+15
1.339328e+15
1.035975e+15
6.916068e+14
4.011362e+14
3.58677e+14
6.228503e+14
9.001263e+14
1.258292e+15
1.703583e+15
2.105441e+15
2.483189e+15
2.819348e+15
3.145218e+15
3.441509e+15
3.691644e+15
3.894901e+15
4.048426e+15
4.14912e+15
4.197069e+15
4.197033e+15
4.149083e+15
4.048499e+15
3.895194e+15
3.69216e+15
3.44213e+15
3.145796e+15
2.819735e+15
2.483288e+15
2.105308e+15
1.70324e+15
1.257912e+15
8.998813e+14
6.226304e+14
3.585451e+14
4.643803e+14
7.799328e+14
1.150545e+15
1.478302e+15
2.004903e+15
2.438332e+15
2.819803e+15
3.190101e+15
3.537056e+15
3.84617e+15
4.109127e+15
4.321938e+15
4.483156e+15
4.591716e+15
4.647169e+15
4.647089e+15
4.591521e+15
4.482975e+15
4.321938e+15
4.109369e+15
3.846611e+15
3.537586e+15
3.19053e+15
2.820011e+15
2.438194e+15
2.004609e+15
1.477908e+15
1.150309e+15
7.797052e+14
4.643549e+14
3.559074e+14
6.447794e+14
1.000583e+15
1.350147e+15
1.837304e+15
2.306616e+15
2.733121e+15
3.14632e+15
3.537692e+15
3.896799e+15
4.215595e+15
4.487546e+15
4.709838e+15
4.882986e+15
5.001876e+15
5.063057e+15
5.062893e+15
5.001444e+15
4.882441e+15
4.709379e+15
4.487274e+15
4.21557e+15
3.896966e+15
3.537878e+15
3.146399e+15
2.733009e+15
2.306317e+15
1.83691e+15
1.349369e+15
1.000424e+15
6.446564e+14
3.561001e+14
4.421117e+14
7.543095e+14
1.129689e+15
1.624851e+15
2.09494e+15
2.558678e+15
3.0092e+15
3.44325e+15
3.847456e+15
4.216268e+15
4.543173e+15
4.827978e+15
5.062714e+15
5.243911e+15
5.366827e+15
5.429104e+15
5.428869e+15
5.366196e+15
5.24308e+15
5.061922e+15
4.827394e+15
4.542911e+15
4.216312e+15
3.847657e+15
3.443488e+15
3.009319e+15
2.558538e+15
2.094699e+15
1.62408e+15
1.129163e+15
7.541285e+14
4.422254e+14
4.949789e+14
8.509957e+14
1.258118e+15
1.803245e+15
2.298568e+15
2.76831e+15
3.243662e+15
3.693889e+15
4.110913e+15
4.488756e+15
4.828496e+15
5.124983e+15
5.366966e+15
5.550488e+15
5.673466e+15
5.735115e+15
5.73491e+15
5.672928e+15
5.549838e+15
5.366468e+15
5.124837e+15
4.828803e+15
4.489501e+15
4.11191e+15
3.694854e+15
3.244354e+15
2.768566e+15
2.298598e+15
1.802507e+15
1.257234e+15
8.503635e+14
4.947025e+14
5.550897e+14
9.900072e+14
1.373519e+15
1.940332e+15
2.443526e+15
2.945098e+15
3.436349e+15
3.897466e+15
4.324104e+15
4.711462e+15
5.063607e+15
5.367283e+15
5.612026e+15
5.795292e+15
5.917017e+15
5.977719e+15
5.977665e+15
5.916895e+15
5.795291e+15
5.612415e+15
5.368236e+15
5.065155e+15
4.7134e+15
4.326096e+15
3.899175e+15
3.437564e+15
2.945712e+15
2.443698e+15
1.939649e+15
1.372307e+15
9.885398e+14
5.544773e+14
3.702869e+14
6.893504e+14
1.066627e+15
1.564266e+15
2.055022e+15
2.553674e+15
3.075175e+15
3.579018e+15
4.051214e+15
4.485691e+15
4.885084e+15
5.245288e+15
5.551207e+15
5.795612e+15
5.977488e+15
6.097832e+15
6.157749e+15
6.157817e+15
6.098083e+15
5.978125e+15
5.79678e+15
5.552851e+15
5.247199e+15
4.887105e+15
4.487674e+15
4.052937e+15
3.580173e+15
3.07564e+15
2.55363e+15
2.054235e+15
1.562884e+15
1.065139e+15
6.885696e+14
3.69846e+14
4.169679e+14
7.186126e+14
1.098299e+15
1.637717e+15
2.125521e+15
2.62528e+15
3.158445e+15
3.671804e+15
4.152268e+15
4.594788e+15
5.004649e+15
5.368927e+15
5.674827e+15
5.917864e+15
6.098231e+15
6.217402e+15
6.276693e+15
6.276741e+15
6.217601e+15
6.098662e+15
5.918616e+15
5.675942e+15
5.370341e+15
5.006264e+15
4.59649e+15
4.153832e+15
3.67276e+15
3.158589e+15
2.624883e+15
2.124624e+15
1.636442e+15
1.097082e+15
7.179059e+14
4.168329e+14
4.27671e+14
7.300413e+14
1.113797e+15
1.667185e+15
2.158265e+15
2.660233e+15
3.199215e+15
3.717443e+15
4.20061e+15
4.650766e+15
5.066583e+15
5.43208e+15
5.737293e+15
5.979167e+15
6.158536e+15
6.277049e+15
6.336058e+15
6.336188e+15
6.27746e+15
6.159207e+15
5.980052e+15
5.738416e+15
5.433449e+15
5.068174e+15
4.652545e+15
4.202255e+15
3.71839e+15
3.199269e+15
2.659677e+15
2.157333e+15
1.666113e+15
1.113033e+15
7.295922e+14
4.275665e+14
4.276876e+14
7.301247e+14
1.113998e+15
1.66725e+15
2.158335e+15
2.660343e+15
3.199401e+15
3.717756e+15
4.200972e+15
4.651081e+15
5.066937e+15
5.432632e+15
5.737939e+15
5.979529e+15
6.158592e+15
6.276949e+15
6.335996e+15
6.336296e+15
6.277782e+15
6.159712e+15
5.980671e+15
5.73907e+15
5.434071e+15
5.068731e+15
4.653044e+15
4.202736e+15
3.718884e+15
3.19973e+15
2.660069e+15
2.157705e+15
1.666453e+15
1.113332e+15
7.298126e+14
4.277117e+14
4.172045e+14
7.187631e+14
1.098352e+15
1.637722e+15
2.125662e+15
2.62557e+15
3.158924e+15
3.672667e+15
4.153305e+15
4.595793e+15
5.005762e+15
5.370237e+15
5.676175e+15
5.918903e+15
6.098767e+15
6.217507e+15
6.276674e+15
6.276939e+15
6.218222e+15
6.09974e+15
5.920047e+15
5.677552e+15
5.371943e+15
5.007714e+15
4.597757e+15
4.155025e+15
3.673951e+15
3.159653e+15
2.625799e+15
2.12565e+15
1.637525e+15
1.098102e+15
7.18683e+14
4.17264e+14
3.706196e+14
6.891412e+14
1.066279e+15
1.564105e+15
2.055125e+15
2.554076e+15
3.075794e+15
3.58011e+15
4.05265e+15
4.487273e+15
4.886775e+15
5.247078e+15
5.552896e+15
5.796937e+15
5.97831e+15
6.098229e+15
6.157962e+15
6.158111e+15
6.098694e+15
5.9791e+15
5.798089e+15
5.554432e+15
5.248938e+15
4.888774e+15
4.48914e+15
4.054238e+15
3.581415e+15
3.076747e+15
2.554621e+15
2.05562e+15
1.56446e+15
1.066549e+15
6.893786e+14
3.707078e+14
5.551058e+14
9.893355e+14
1.37336e+15
1.940422e+15
2.444026e+15
2.945698e+15
3.437367e+15
3.898843e+15
4.325794e+15
4.713332e+15
5.0655e+15
5.368969e+15
5.613363e+15
5.79629e+15
5.917841e+15
5.978574e+15
5.978764e+15
5.918436e+15
5.797308e+15
5.614815e+15
5.370801e+15
5.067561e+15
4.715433e+15
4.327743e+15
3.900528e+15
3.438747e+15
2.946802e+15
2.444685e+15
1.941177e+15
1.373927e+15
9.900096e+14
5.552748e+14
4.949983e+14
8.509828e+14
1.258117e+15
1.803218e+15
2.299075e+15
2.7688e+15
3.244512e+15
3.694981e+15
4.112316e+15
4.490364e+15
4.830107e+15
5.126474e+15
5.368353e+15
5.551889e+15
5.675049e+15
5.737038e+15
5.737363e+15
5.676021e+15
5.553466e+15
5.370451e+15
5.128924e+15
4.832664e+15
4.492808e+15
4.114563e+15
3.696915e+15
3.246061e+15
2.770112e+15
2.299814e+15
1.804124e+15
1.258629e+15
8.512527e+14
4.950392e+14
4.424614e+14
7.547034e+14
1.130102e+15
1.624813e+15
2.095289e+15
2.559183e+15
3.009963e+15
3.444126e+15
3.848554e+15
4.217585e+15
4.54464e+15
4.829652e+15
5.064714e+15
5.246347e+15
5.369797e+15
5.432633e+15
5.433054e+15
5.371036e+15
5.248327e+15
5.067309e+15
4.832646e+15
4.547731e+15
4.22048e+15
3.851144e+15
3.446299e+15
3.01167e+15
2.560653e+15
2.096258e+15
1.625814e+15
1.13027e+15
7.546661e+14
4.42324e+14
3.56218e+14
6.450805e+14
1.001379e+15
1.35014e+15
1.83737e+15
2.307056e+15
2.733794e+15
3.147136e+15
3.538753e+15
3.898246e+15
4.217514e+15
4.490053e+15
4.713054e+15
4.886915e+15
5.006494e+15
5.068266e+15
5.068673e+15
5.007676e+15
4.888793e+15
4.71554e+15
4.492984e+15
4.220608e+15
3.90124e+15
3.541475e+15
3.149418e+15
2.7356e+15
2.308672e+15
1.838559e+15
1.35114e+15
1.001019e+15
6.451469e+14
3.561061e+14
4.645499e+14
7.800507e+14
1.151093e+15
1.478095e+15
2.005415e+15
2.439028e+15
2.820805e+15
3.191531e+15
3.539089e+15
3.848902e+15
4.112631e+15
4.326292e+15
4.488292e+15
4.597521e+15
4.653471e+15
4.65379e+15
4.598433e+15
4.48973e+15
4.328217e+15
4.114951e+15
3.851412e+15
3.541619e+15
3.193951e+15
2.822966e+15
2.440873e+15
2.006887e+15
1.479317e+15
1.15152e+15
7.802224e+14
4.645644e+14
3.586868e+14
6.231613e+14
9.004699e+14
1.259168e+15
1.704507e+15
2.106453e+15
2.484557e+15
2.821248e+15
3.147848e+15
3.444919e+15
3.695846e+15
3.899884e+15
4.054137e+15
4.155438e+15
4.203772e+15
4.203985e+15
4.156064e+15
4.055147e+15
3.90126e+15
3.697514e+15
3.446777e+15
3.149787e+15
2.823146e+15
2.486242e+15
2.107771e+15
1.705354e+15
1.259535e+15
9.006228e+14
6.232818e+14
3.589012e+14
4.012745e+14
6.92361e+14
1.037296e+15
1.340367e+15
1.748461e+15
2.106647e+15
2.439734e+15
2.734649e+15
3.010827e+15
3.245534e+15
3.438585e+15
3.581644e+15
3.674614e+15
3.720154e+15
3.720291e+15
3.67507e+15
3.582389e+15
3.439607e+15
3.246842e+15
3.012346e+15
2.736169e+15
2.441145e+15
2.107912e+15
1.749449e+15
1.341061e+15
1.037259e+15
6.923749e+14
4.014626e+14
4.299299e+14
7.48515e+14
1.083191e+15
1.340258e+15
1.704741e+15
2.006066e+15
2.307834e+15
2.559916e+15
2.769745e+15
2.946758e+15
3.076999e+15
3.160338e+15
3.201033e+15
3.201107e+15
3.16073e+15
3.0777e+15
2.947703e+15
2.770904e+15
2.561224e+15
2.309004e+15
2.006994e+15
1.705588e+15
1.340905e+15
1.083486e+15
7.486799e+14
4.299909e+14
4.4575e+14
7.48483e+14
1.037451e+15
1.259421e+15
1.479027e+15
1.838195e+15
2.095954e+15
2.299723e+15
2.444728e+15
2.554865e+15
2.62654e+15
2.661617e+15
2.661588e+15
2.62685e+15
2.555462e+15
2.445542e+15
2.300749e+15
2.096886e+15
1.838833e+15
1.479204e+15
1.259867e+15
1.037816e+15
7.487285e+14
4.458365e+14
4.297937e+14
6.92136e+14
9.007889e+14
1.151458e+15
1.350444e+15
1.625328e+15
1.803854e+15
1.94116e+15
2.055929e+15
2.126527e+15
2.159194e+15
2.159073e+15
2.126523e+15
2.056032e+15