/*--------------------------------*- C++ -*----------------------------------*\
  =========                 |
  \\      /  F ield         | OpenFOAM: The Open Source CFD Toolbox
   \\    /   O peration     | Website:  https://openfoam.org
    \\  /    A nd           | Version:  6
     \\/     M anipulation  |
\*---------------------------------------------------------------------------*/
FoamFile
{
    version     2.0;
    format      ascii;
    class       volScalarField;
    location    "50/region0/neutronTransport";
    object      precursor4.dnp;
}
// * * * * * * * * * * * * * * * * * * * * * * * * * * * * * * * * * * * * * //

dimensions      [0 -3 0 0 0 0 0];

internalField   nonuniform List<scalar> 
203709
(
5.256629e+13
5.600632e+13
5.600543e+13
4.977405e+13
4.388812e+13
4.943913e+13
5.620909e+13
5.446558e+13
5.325301e+13
5.246057e+13
5.206591e+13
4.20792e+13
3.891631e+13
4.39715e+13
4.461298e+13
4.571319e+13
4.922506e+13
4.901408e+13
4.848182e+13
4.615083e+13
4.557364e+13
4.262241e+13
3.979627e+13
3.398623e+13
4.151839e+13
4.258762e+13
4.521856e+13
4.549575e+13
4.597565e+13
4.719861e+13
4.686591e+13
4.488689e+13
4.477792e+13
4.61543e+13
4.296371e+13
4.110937e+13
4.005305e+13
3.574109e+13
4.406331e+13
4.541309e+13
4.685561e+13
4.731961e+13
4.768995e+13
4.813503e+13
4.821573e+13
4.772407e+13
4.725978e+13
4.551675e+13
4.393087e+13
4.397173e+13
4.130294e+13
3.794956e+13
4.903261e+13
4.382827e+13
4.391456e+13
4.426713e+13
4.482216e+13
4.56179e+13
4.702538e+13
4.742282e+13
4.734886e+13
4.711083e+13
4.633876e+13
4.495508e+13
4.347432e+13
4.155375e+13
4.181783e+13
3.594343e+13
4.974363e+13
4.38889e+13
4.165809e+13
3.877356e+13
3.843598e+13
4.535229e+13
4.796394e+13
4.932167e+13
4.960967e+13
4.894803e+13
4.796577e+13
4.660958e+13
4.531705e+13
4.377413e+13
4.237378e+13
3.948125e+13
5.519146e+13
5.688527e+13
4.914998e+13
4.439222e+13
4.156911e+13
4.207187e+13
4.568101e+13
4.842911e+13
4.965834e+13
5.025456e+13
5.023399e+13
4.980531e+13
4.871557e+13
4.756995e+13
4.603932e+13
4.450747e+13
4.261753e+13
3.865904e+13
5.44447e+13
5.57656e+13
5.240659e+13
4.875171e+13
4.730625e+13
4.86142e+13
4.96565e+13
5.069516e+13
5.096638e+13
5.117858e+13
5.063838e+13
5.029241e+13
4.923739e+13
4.831174e+13
4.705455e+13
4.558601e+13
4.405574e+13
4.101864e+13
5.503598e+13
5.54873e+13
5.408554e+13
5.198432e+13
5.091439e+13
5.120012e+13
5.123332e+13
5.168578e+13
5.150412e+13
5.13794e+13
5.077402e+13
5.030723e+13
4.931817e+13
4.848469e+13
4.740708e+13
4.609476e+13
4.477621e+13
4.259395e+13
5.532354e+13
5.636087e+13
5.558801e+13
5.411556e+13
5.304113e+13
5.282609e+13
5.260354e+13
5.231845e+13
5.19863e+13
5.150622e+13
5.078283e+13
5.005526e+13
4.923333e+13
4.846169e+13
4.752931e+13
4.628405e+13
4.544356e+13
4.436162e+13
6.005262e+13
5.875127e+13
5.722793e+13
5.574396e+13
5.45798e+13
5.368081e+13
5.272153e+13
5.176245e+13
5.099306e+13
5.032888e+13
4.965189e+13
4.901711e+13
4.845375e+13
4.769354e+13
4.653469e+13
4.565513e+13
5.888729e+13
6.088187e+13
5.945683e+13
5.739214e+13
5.534647e+13
5.373532e+13
5.246385e+13
5.150349e+13
5.066666e+13
4.996941e+13
4.938971e+13
4.899626e+13
4.877972e+13
4.805418e+13
4.733331e+13
4.718873e+13
6.122826e+13
5.975972e+13
5.710548e+13
5.48442e+13
5.305851e+13
5.169973e+13
5.08994e+13
5.007757e+13
4.976327e+13
4.953613e+13
4.960323e+13
5.004886e+13
4.925625e+13
4.826608e+13
5.280594e+13
5.607797e+13
5.38939e+13
5.333152e+13
5.240255e+13
5.182889e+13
5.137135e+13
5.068642e+13
5.055069e+13
5.083245e+13
5.157392e+13
5.314961e+13
5.194538e+13
5.009569e+13
4.883304e+13
4.89311e+13
5.4365e+13
5.320906e+13
5.379456e+13
5.311724e+13
5.230525e+13
5.26565e+13
5.41233e+13
5.55201e+13
5.79051e+13
5.375658e+13
5.055257e+13
5.167287e+13
5.676825e+13
5.559036e+13
5.541159e+13
5.587074e+13
5.787738e+13
5.463799e+13
5.242901e+13
5.51677e+13
5.668988e+13
5.354615e+13
5.859577e+13
6.010682e+13
6.040342e+13
6.203335e+13
6.295115e+13
6.227501e+13
6.015427e+13
5.722691e+13
5.448775e+13
4.769326e+13
5.426527e+13
5.854608e+13
6.012971e+13
5.854675e+13
5.893622e+13
6.083698e+13
6.209337e+13
6.161316e+13
5.948696e+13
5.627622e+13
5.335081e+13
5.121931e+13
4.87985e+13
4.160555e+13
5.129868e+13
5.597725e+13
5.5739e+13
5.68065e+13
5.666468e+13
5.781412e+13
6.053385e+13
6.251992e+13
6.215246e+13
5.979573e+13
5.600559e+13
5.25333e+13
4.947848e+13
4.699535e+13
4.441772e+13
3.6511e+13
4.74896e+13
5.369726e+13
5.307117e+13
5.245648e+13
5.423513e+13
5.677426e+13
5.914764e+13
6.377812e+13
6.733156e+13
6.730666e+13
6.448436e+13
5.759453e+13
5.355016e+13
4.929661e+13
4.621695e+13
4.293105e+13
3.893842e+13
3.420949e+13
4.513019e+13
5.050638e+13
5.035123e+13
4.93917e+13
5.074908e+13
5.436795e+13
6.126534e+13
6.608883e+13
6.921892e+13
7.2675e+13
7.255052e+13
6.925213e+13
6.577284e+13
6.129392e+13
5.32136e+13
4.930662e+13
4.520428e+13
4.138316e+13
3.830776e+13
3.470195e+13
4.432812e+13
4.82186e+13
4.763385e+13
4.7688e+13
5.173542e+13
5.815896e+13
6.261452e+13
6.775041e+13
7.305293e+13
7.557885e+13
7.85549e+13
7.85997e+13
7.518965e+13
7.238454e+13
6.74601e+13
6.486871e+13
5.869825e+13
5.235938e+13
4.727482e+13
4.337499e+13
4.037895e+13
3.729501e+13
4.14216e+13
4.594168e+13
4.743124e+13
5.222185e+13
6.074212e+13
6.580651e+13
7.502369e+13
7.953863e+13
8.371879e+13
8.599674e+13
8.746922e+13
8.530361e+13
8.324497e+13
8.23863e+13
7.644981e+13
7.186013e+13
6.351197e+13
5.900416e+13
5.561769e+13
5.213276e+13
4.801241e+13
4.385021e+13
4.43358e+13
4.642034e+13
4.593489e+13
5.05318e+13
5.812109e+13
6.686065e+13
7.959304e+13
8.894019e+13
9.339477e+13
9.585807e+13
9.653833e+13
9.644086e+13
9.513013e+13
9.434313e+13
9.052134e+13
8.758782e+13
8.763049e+13
8.106584e+13
7.034312e+13
6.477147e+13
5.750013e+13
5.094853e+13
4.637302e+13
3.949646e+13
4.352063e+13
4.530957e+13
4.590687e+13
5.298625e+13
6.496506e+13
7.432316e+13
8.605624e+13
9.240708e+13
9.342949e+13
9.360122e+13
9.497434e+13
9.581283e+13
9.677874e+13
9.785141e+13
9.759517e+13
9.645565e+13
9.2614e+13
8.515794e+13
7.393223e+13
6.237002e+13
5.778432e+13
5.084031e+13
4.510531e+13
3.924471e+13
4.412425e+13
4.500254e+13
4.739329e+13
5.523229e+13
6.653842e+13
7.808658e+13
8.591052e+13
8.743846e+13
8.694828e+13
9.181865e+13
9.477836e+13
9.605416e+13
9.67206e+13
9.674099e+13
9.596934e+13
9.449581e+13
9.232107e+13
8.789833e+13
8.06132e+13
6.752405e+13
6.038244e+13
5.281563e+13
4.684018e+13
4.03621e+13
4.570518e+13
4.625804e+13
4.94401e+13
5.694988e+13
6.996448e+13
7.979299e+13
8.590095e+13
8.560803e+13
8.623181e+13
9.144735e+13
9.457142e+13
9.646411e+13
9.784274e+13
9.867507e+13
9.869655e+13
9.768898e+13
9.547776e+13
9.139656e+13
8.493778e+13
7.049594e+13
6.02752e+13
5.575714e+13
4.931114e+13
4.2503e+13
4.758481e+13
4.821455e+13
5.189588e+13
5.887896e+13
7.152369e+13
8.073206e+13
8.623238e+13
8.861162e+13
9.15465e+13
9.401746e+13
9.584519e+13
9.731759e+13
9.858061e+13
9.928605e+13
9.938329e+13
9.844112e+13
9.641054e+13
9.270934e+13
8.644091e+13
7.67847e+13
6.345157e+13
5.836925e+13
5.16064e+13
4.464522e+13
4.917555e+13
5.0023e+13
5.370139e+13
6.011109e+13
7.132495e+13
8.012786e+13
8.506432e+13
8.843592e+13
9.110658e+13
9.345766e+13
9.551856e+13
9.714733e+13
9.843745e+13
9.912228e+13
9.916707e+13
9.81762e+13
9.606616e+13
9.228888e+13
8.581479e+13
7.569843e+13
6.420667e+13
5.903695e+13
5.246613e+13
4.593153e+13
4.999392e+13
5.095729e+13
5.411949e+13
6.005356e+13
6.791521e+13
7.739889e+13
8.293922e+13
8.665891e+13
8.9706e+13
9.223464e+13
9.432112e+13
9.59811e+13
9.716962e+13
9.773933e+13
9.758978e+13
9.645202e+13
9.40837e+13
8.987853e+13
8.241661e+13
7.100792e+13
6.523465e+13
5.843878e+13
5.207305e+13
4.628093e+13
5.011545e+13
5.093167e+13
5.324596e+13
5.844137e+13
6.684339e+13
7.541363e+13
8.1204e+13
8.468982e+13
8.765286e+13
9.009712e+13
9.204795e+13
9.351563e+13
9.451125e+13
9.493498e+13
9.459008e+13
9.322213e+13
9.052697e+13
8.56625e+13
7.692171e+13
6.656631e+13
6.20421e+13
5.659738e+13
5.086338e+13
4.59195e+13
4.951376e+13
5.013788e+13
5.171627e+13
5.621714e+13
6.340838e+13
7.05411e+13
7.739513e+13
8.130866e+13
8.426236e+13
8.656297e+13
8.83378e+13
8.966508e+13
9.05439e+13
9.086709e+13
9.035199e+13
8.87448e+13
8.577301e+13
8.026927e+13
7.074455e+13
6.615826e+13
5.990156e+13
5.454391e+13
4.962079e+13
4.560218e+13
4.523665e+13
4.938688e+13
4.980921e+13
5.305025e+13
5.751877e+13
6.646889e+13
7.300226e+13
7.672984e+13
7.900562e+13
8.105639e+13
8.283449e+13
8.430983e+13
8.538007e+13
8.585403e+13
8.524907e+13
8.346784e+13
8.038794e+13
7.472851e+13
6.694409e+13
6.275579e+13
5.807903e+13
5.346985e+13
4.950089e+13
4.673069e+13
4.900028e+13
4.853851e+13
4.969315e+13
5.344672e+13
5.781225e+13
6.345447e+13
6.767288e+13
7.101104e+13
7.363722e+13
7.615674e+13
7.841147e+13
8.005291e+13
8.068835e+13
7.986979e+13
7.798679e+13
7.512655e+13
7.110949e+13
6.768888e+13
6.155177e+13
5.813371e+13
5.423985e+13
4.986011e+13
4.245773e+13
4.731772e+13
4.692865e+13
4.771189e+13
4.988915e+13
5.428967e+13
5.838852e+13
6.333905e+13
6.711573e+13
7.007246e+13
7.307519e+13
7.521987e+13
7.574927e+13
7.451973e+13
7.311183e+13
7.096651e+13
6.913125e+13
6.523585e+13
6.285246e+13
6.128203e+13
5.830596e+13
5.264651e+13
4.006099e+13
4.618403e+13
4.613319e+13
4.732514e+13
4.899634e+13
5.255068e+13
5.724569e+13
6.161389e+13
6.57897e+13
6.905384e+13
7.098503e+13
7.160104e+13
7.058649e+13
7.106619e+13
6.84316e+13
6.715818e+13
6.806329e+13
6.854386e+13
6.756656e+13
5.99322e+13
4.040067e+13
4.765564e+13
4.845465e+13
4.851838e+13
5.127685e+13
5.380962e+13
5.702455e+13
6.162183e+13
6.600843e+13
6.821728e+13
6.988704e+13
6.737823e+13
6.879671e+13
7.069529e+13
7.106379e+13
7.426596e+13
7.473339e+13
6.830674e+13
4.246496e+13
5.12148e+13
5.057954e+13
5.373989e+13
5.494026e+13
5.707815e+13
6.012025e+13
6.348807e+13
6.567454e+13
6.770441e+13
6.910646e+13
7.24421e+13
7.608305e+13
7.621863e+13
7.969999e+13
7.531729e+13
4.75346e+13
5.241373e+13
5.850746e+13
5.851368e+13
5.981177e+13
6.249848e+13
6.55422e+13
6.821758e+13
7.08619e+13
7.365244e+13
7.702291e+13
8.140032e+13
8.087379e+13
8.139263e+13
5.458681e+13
6.066309e+13
6.184638e+13
6.422783e+13
6.689886e+13
6.970076e+13
7.302098e+13
7.673494e+13
8.054807e+13
8.247106e+13
6.131847e+13
5.86519e+13
5.941286e+13
5.965499e+13
5.867065e+13
5.684981e+13
5.510558e+13
5.375812e+13
5.624497e+13
6.045768e+13
6.325431e+13
6.218216e+13
5.927032e+13
5.986559e+13
6.001383e+13
5.907916e+13
5.736901e+13
5.580223e+13
5.603631e+13
5.294964e+13
4.952424e+13
4.784082e+13
5.609381e+13
5.748426e+13
6.028278e+13
6.338959e+13
6.357894e+13
6.221466e+13
6.312478e+13
6.343179e+13
6.24934e+13
6.05505e+13
5.843622e+13
5.719566e+13
5.35981e+13
5.006928e+13
5.040391e+13
4.578765e+13
5.075446e+13
5.529307e+13
5.840793e+13
5.907781e+13
6.265224e+13
6.637659e+13
6.862764e+13
6.861974e+13
6.995218e+13
7.054024e+13
6.96185e+13
6.742178e+13
6.473378e+13
6.232379e+13
5.732637e+13
5.176038e+13
5.088355e+13
4.897793e+13
4.296407e+13
3.963558e+13
4.848897e+13
5.221232e+13
5.474859e+13
5.909945e+13
6.27359e+13
6.888993e+13
7.19763e+13
7.597246e+13
7.747682e+13
7.96337e+13
8.087127e+13
8.011108e+13
7.749578e+13
7.382113e+13
7.00793e+13
6.368988e+13
5.910613e+13
5.504705e+13
4.818567e+13
4.257026e+13
4.169433e+13
3.184117e+13
4.696584e+13
5.048827e+13
5.181933e+13
5.583457e+13
6.286234e+13
6.821527e+13
7.520005e+13
7.885174e+13
8.326172e+13
8.615359e+13
8.912352e+13
9.103177e+13
9.059114e+13
8.776304e+13
8.336052e+13
7.843761e+13
7.181163e+13
6.678039e+13
6.07497e+13
5.538557e+13
4.308058e+13
3.894648e+13
3.303891e+13
2.302868e+13
4.577921e+13
4.941842e+13
5.290942e+13
6.010884e+13
6.812224e+13
7.4081e+13
8.133133e+13
8.595727e+13
9.08677e+13
9.457118e+13
9.771896e+13
1.000569e+14
9.990264e+13
9.734663e+13
9.382517e+13
8.95195e+13
8.344402e+13
7.742378e+13
7.056833e+13
6.252374e+13
5.484771e+13
4.54754e+13
3.800588e+13
2.971166e+13
4.564429e+13
4.993709e+13
5.092212e+13
5.736483e+13
6.55029e+13
7.33066e+13
8.166551e+13
9.021295e+13
9.596214e+13
1.004561e+14
1.048404e+14
1.082443e+14
1.109299e+14
1.114873e+14
1.096191e+14
1.068312e+14
1.022709e+14
9.618732e+13
8.957333e+13
8.187214e+13
7.307838e+13
6.197929e+13
5.609993e+13
5.022326e+13
4.246335e+13
3.371476e+13
4.445316e+13
4.806374e+13
4.963695e+13
5.485981e+13
6.218402e+13
7.074255e+13
8.17859e+13
9.154125e+13
1.003555e+14
1.074267e+14
1.120516e+14
1.161111e+14
1.19096e+14
1.213943e+14
1.216806e+14
1.191614e+14
1.167728e+14
1.125267e+14
1.076439e+14
1.006937e+14
9.282458e+13
8.428759e+13
7.488481e+13
6.267647e+13
5.638285e+13
5.236318e+13
4.681114e+13
4.143681e+13
4.476781e+13
4.688187e+13
5.024529e+13
5.765419e+13
6.650557e+13
7.93851e+13
9.230913e+13
1.035501e+14
1.131136e+14
1.21306e+14
1.263751e+14
1.304141e+14
1.330846e+14
1.346331e+14
1.325171e+14
1.301094e+14
1.283066e+14
1.218074e+14
1.155121e+14
1.072747e+14
1.000529e+14
9.370754e+13
8.792441e+13
7.962861e+13
6.628845e+13
6.122563e+13
5.450104e+13
4.854189e+13
4.593325e+13
4.6987e+13
5.259732e+13
6.100525e+13
7.17377e+13
8.95288e+13
1.041137e+14
1.166129e+14
1.291062e+14
1.385105e+14
1.439648e+14
1.471993e+14
1.484398e+14
1.482776e+14
1.463346e+14
1.445933e+14
1.39574e+14
1.35371e+14
1.333659e+14
1.26341e+14
1.179591e+14
1.105067e+14
1.006818e+14
8.921181e+13
7.265962e+13
6.075958e+13
5.44474e+13
4.870455e+13
4.656711e+13
4.97554e+13
4.899929e+13
5.456618e+13
6.354639e+13
7.574569e+13
9.699322e+13
1.139892e+14
1.271095e+14
1.384525e+14
1.449572e+14
1.466557e+14
1.474413e+14
1.49378e+14
1.509089e+14
1.521973e+14
1.532752e+14
1.523524e+14
1.495063e+14
1.427397e+14
1.336669e+14
1.236273e+14
1.127683e+14
1.027466e+14
9.180767e+13
7.907046e+13
6.101362e+13
5.394858e+13
4.654038e+13
3.73196e+13
4.628867e+13
4.787321e+13
4.939885e+13
5.581736e+13
6.604474e+13
7.885854e+13
9.871869e+13
1.183472e+14
1.33067e+14
1.404067e+14
1.417108e+14
1.408108e+14
1.463007e+14
1.515964e+14
1.531803e+14
1.539255e+14
1.535476e+14
1.517597e+14
1.487043e+14
1.447263e+14
1.379837e+14
1.287513e+14
1.166112e+14
1.058388e+14
9.453456e+13
8.197367e+13
6.241858e+13
5.413047e+13
4.500096e+13
3.643772e+13
4.640943e+13
4.727862e+13
4.963954e+13
5.676168e+13
6.815914e+13
8.164312e+13
1.000344e+14
1.191522e+14
1.351538e+14
1.426651e+14
1.40368e+14
1.395099e+14
1.486859e+14
1.540083e+14
1.56714e+14
1.58454e+14
1.591342e+14
1.583195e+14
1.557561e+14
1.51197e+14
1.441229e+14
1.343881e+14
1.207841e+14
1.083441e+14
9.727323e+13
8.423874e+13
6.421916e+13
5.530301e+13
4.560186e+13
3.645135e+13
4.683966e+13
4.736637e+13
5.007004e+13
5.758259e+13
6.967241e+13
8.350669e+13
1.00709e+14
1.185605e+14
1.340616e+14
1.44273e+14
1.471102e+14
1.514929e+14
1.555595e+14
1.582547e+14
1.60153e+14
1.61477e+14
1.618242e+14
1.608971e+14
1.58232e+14
1.536613e+14
1.467112e+14
1.368832e+14
1.24204e+14
1.105476e+14
9.880986e+13
8.538747e+13
6.549213e+13
5.653548e+13
4.682609e+13
3.760101e+13
4.693881e+13
4.753579e+13
5.047524e+13
5.815925e+13
7.042074e+13
8.414688e+13
1.002429e+14
1.1676e+14
1.313846e+14
1.426905e+14
1.489014e+14
1.535587e+14
1.571446e+14
1.596556e+14
1.613851e+14
1.62453e+14
1.625129e+14
1.612937e+14
1.583577e+14
1.535033e+14
1.462966e+14
1.362231e+14
1.234057e+14
1.104739e+14
9.859096e+13
8.503254e+13
6.573817e+13
5.7132e+13
4.786845e+13
3.899058e+13
4.667983e+13
4.744404e+13
5.053706e+13
5.821845e+13
7.018797e+13
8.337039e+13
9.830711e+13
1.135794e+14
1.274166e+14
1.381108e+14
1.458469e+14
1.511164e+14
1.549398e+14
1.576056e+14
1.593963e+14
1.603058e+14
1.600695e+14
1.584391e+14
1.551174e+14
1.498747e+14
1.42261e+14
1.317535e+14
1.192603e+14
1.085054e+14
9.676699e+13
8.310118e+13
6.486346e+13
5.671336e+13
4.807023e+13
4.003272e+13
4.714605e+13
4.777436e+13
5.060806e+13
5.789943e+13
6.901589e+13
8.122571e+13
9.485214e+13
1.092664e+14
1.223553e+14
1.326583e+14
1.406354e+14
1.461593e+14
1.500626e+14
1.527547e+14
1.544177e+14
1.550293e+14
1.544019e+14
1.523284e+14
1.486195e+14
1.430778e+14
1.351079e+14
1.243521e+14
1.130435e+14
1.034174e+14
9.291066e+13
7.941121e+13
6.31893e+13
5.530985e+13
4.728275e+13
4.057999e+13
4.500718e+13
4.880686e+13
5.078592e+13
5.711773e+13
6.684504e+13
7.790119e+13
9.022488e+13
1.034206e+14
1.156459e+14
1.257278e+14
1.329653e+14
1.383787e+14
1.422626e+14
1.449814e+14
1.46569e+14
1.469103e+14
1.459243e+14
1.435483e+14
1.397086e+14
1.342472e+14
1.262813e+14
1.16253e+14
1.075498e+14
9.825811e+13
8.783706e+13
7.438546e+13
6.167051e+13
5.321863e+13
4.576913e+13
4.120541e+13
4.767301e+13
4.917391e+13
5.502141e+13
6.226394e+13
7.236458e+13
8.338123e+13
9.5047e+13
1.066641e+14
1.150778e+14
1.214902e+14
1.272837e+14
1.316661e+14
1.347702e+14
1.364611e+14
1.366742e+14
1.355728e+14
1.332708e+14
1.297772e+14
1.249065e+14
1.17452e+14
1.089002e+14
1.012572e+14
9.307239e+13
8.227645e+13
6.935675e+13
6.14829e+13
5.087777e+13
4.364238e+13
4.399491e+13
4.538355e+13
4.831511e+13
5.735509e+13
6.629613e+13
7.576142e+13
8.519462e+13
9.352189e+13
1.00818e+14
1.077197e+14
1.143316e+14
1.199362e+14
1.237666e+14
1.25609e+14
1.258193e+14
1.248188e+14
1.229764e+14
1.202505e+14
1.163833e+14
1.103442e+14
1.037785e+14
9.630241e+13
8.825516e+13
7.731682e+13
6.61229e+13
5.635809e+13
4.946146e+13
4.352429e+13
4.099391e+13
4.562268e+13
4.693302e+13
5.184527e+13
5.855418e+13
6.546581e+13
7.328027e+13
8.130627e+13
8.919278e+13
9.666821e+13
1.034396e+14
1.089197e+14
1.130477e+14
1.148216e+14
1.152145e+14
1.145742e+14
1.135436e+14
1.118506e+14
1.089105e+14
1.043185e+14
9.847127e+13
9.216909e+13
8.459837e+13
7.503154e+13
6.629426e+13
5.484492e+13
5.051317e+13
4.463308e+13
4.072205e+13
4.629581e+13
4.686822e+13
5.2271e+13
5.851415e+13
6.548493e+13
7.358959e+13
8.14661e+13
8.846517e+13
9.425136e+13
9.885147e+13
1.020549e+14
1.04102e+14
1.051758e+14
1.052024e+14
1.051497e+14
1.042649e+14
1.015906e+14
9.893258e+13
9.394165e+13
8.898376e+13
8.295959e+13
7.389406e+13
6.243126e+13
5.727114e+13
5.174589e+13
4.130218e+13
4.44546e+13
4.733847e+13
5.371905e+13
6.090763e+13
6.785492e+13
7.479421e+13
8.093041e+13
8.628984e+13
9.001534e+13
9.233048e+13
9.439321e+13
9.585816e+13
9.683246e+13
9.820247e+13
9.865119e+13
9.668106e+13
9.541411e+13
9.164692e+13
8.879906e+13
8.240575e+13
7.080403e+13
6.481277e+13
5.687776e+13
4.110951e+13
4.6696e+13
4.839219e+13
5.06788e+13
5.799147e+13
6.413483e+13
6.953099e+13
7.460323e+13
7.948986e+13
8.241389e+13
8.503391e+13
8.753626e+13
8.96561e+13
9.154243e+13
9.346904e+13
9.497739e+13
9.439394e+13
9.403207e+13
9.053714e+13
8.822656e+13
8.100375e+13
7.319168e+13
6.831718e+13
6.214138e+13
4.345617e+13
5.114125e+13
5.236077e+13
5.614232e+13
6.125866e+13
6.691389e+13
7.107199e+13
7.513587e+13
7.706909e+13
7.970253e+13
8.258333e+13
8.511403e+13
8.765961e+13
9.038611e+13
9.285243e+13
9.276142e+13
9.222952e+13
8.935295e+13
8.790265e+13
8.300086e+13
7.614971e+13
7.059447e+13
4.914383e+13
5.426888e+13
5.806668e+13
5.955698e+13
6.258031e+13
6.810787e+13
7.182267e+13
7.273694e+13
7.513011e+13
7.797309e+13
8.071333e+13
8.376079e+13
8.722542e+13
9.056066e+13
9.109141e+13
8.940027e+13
8.853489e+13
8.995384e+13
8.675488e+13
7.905582e+13
5.588499e+13
6.137051e+13
6.364207e+13
6.696446e+13
6.842149e+13
6.849552e+13
7.068323e+13
7.348495e+13
7.642863e+13
7.983953e+13
8.391466e+13
8.858783e+13
9.066234e+13
8.941178e+13
8.917149e+13
9.248499e+13
6.030518e+13
6.585448e+13
6.851546e+13
6.971447e+13
6.88502e+13
7.099929e+13
7.400705e+13
7.690591e+13
8.011006e+13
8.406524e+13
8.958608e+13
9.291672e+13
9.14542e+13
9.294264e+13
6.974577e+13
6.993636e+13
7.219877e+13
7.540487e+13
7.826416e+13
8.143784e+13
8.521338e+13
9.297568e+13
5.455328e+13
5.231058e+13
5.292263e+13
5.204611e+13
5.024796e+13
5.110582e+13
5.197044e+13
5.608484e+13
5.776757e+13
6.084079e+13
5.812918e+13
5.701204e+13
5.733671e+13
5.642382e+13
5.479014e+13
5.527982e+13
5.38215e+13
5.002595e+13
4.684177e+13
4.635729e+13
4.940612e+13
5.273564e+13
5.500268e+13
5.984683e+13
6.219324e+13
6.461987e+13
6.45584e+13
6.443863e+13
6.467969e+13
6.366967e+13
6.189539e+13
6.086938e+13
5.744347e+13
5.363239e+13
5.069383e+13
5.011016e+13
4.782188e+13
4.835216e+13
4.934686e+13
5.16509e+13
5.579255e+13
5.971055e+13
6.666469e+13
7.081892e+13
7.306384e+13
7.650194e+13
7.751943e+13
7.79015e+13
7.668438e+13
7.431153e+13
7.139845e+13
6.567529e+13
6.138421e+13
5.715541e+13
5.429269e+13
5.071138e+13
4.929509e+13
4.712318e+13
4.85573e+13
5.252654e+13
5.575873e+13
6.173981e+13
6.867274e+13
7.830169e+13
8.324827e+13
8.603337e+13
8.922774e+13
9.095383e+13
9.161062e+13
9.01882e+13
8.716858e+13
8.311999e+13
7.737797e+13
7.235933e+13
6.703271e+13
6.146948e+13
5.585186e+13
5.061964e+13
4.722312e+13
4.204262e+13
4.804903e+13
5.266326e+13
5.648069e+13
6.336135e+13
7.055787e+13
8.045871e+13
8.996226e+13
9.544136e+13
9.88093e+13
1.021923e+14
1.047902e+14
1.060027e+14
1.044815e+14
1.007882e+14
9.562801e+13
8.919217e+13
8.329238e+13
7.713765e+13
7.033037e+13
6.316101e+13
5.681032e+13
5.047279e+13
4.503988e+13
3.892453e+13
4.635394e+13
5.165597e+13
5.671845e+13
6.344564e+13
7.308356e+13
8.180802e+13
9.170592e+13
1.010674e+14
1.069253e+14
1.110952e+14
1.150028e+14
1.184544e+14
1.204488e+14
1.192134e+14
1.151497e+14
1.089978e+14
1.014294e+14
9.399307e+13
8.711977e+13
7.955204e+13
7.242981e+13
6.538862e+13
5.748478e+13
4.9562e+13
4.14266e+13
3.536007e+13
4.556522e+13
4.913237e+13
5.456842e+13
6.220786e+13
7.174669e+13
8.239165e+13
9.198889e+13
1.018734e+14
1.111554e+14
1.173936e+14
1.223466e+14
1.268856e+14
1.310826e+14
1.338457e+14
1.332136e+14
1.292313e+14
1.235908e+14
1.169631e+14
1.09225e+14
1.015797e+14
9.275802e+13
8.509505e+13
7.669034e+13
6.695922e+13
5.59104e+13
4.496359e+13
3.782185e+13
3.083346e+13
4.57692e+13
4.803734e+13
5.125079e+13
5.844435e+13
6.883318e+13
7.97698e+13
9.078696e+13
1.009304e+14
1.107828e+14
1.213037e+14
1.289228e+14
1.351469e+14
1.403454e+14
1.448563e+14
1.480742e+14
1.484008e+14
1.456864e+14
1.40137e+14
1.332658e+14
1.250011e+14
1.165262e+14
1.070647e+14
9.763508e+13
8.885454e+13
7.873878e+13
6.588383e+13
5.139498e+13
4.721012e+13
3.561186e+13
2.757252e+13
4.570729e+13
4.863832e+13
5.483334e+13
6.370805e+13
7.532283e+13
8.706225e+13
9.835631e+13
1.105985e+14
1.217048e+14
1.323119e+14
1.406008e+14
1.47598e+14
1.536541e+14
1.584618e+14
1.61682e+14
1.624671e+14
1.60414e+14
1.558536e+14
1.491603e+14
1.408109e+14
1.318212e+14
1.218996e+14
1.114787e+14
1.002485e+14
9.023468e+13
7.920787e+13
6.51608e+13
5.516237e+13
4.998094e+13
3.677887e+13
4.500687e+13
4.820949e+13
5.219012e+13
5.952702e+13
6.973218e+13
8.139805e+13
9.409871e+13
1.07746e+14
1.210222e+14
1.333343e+14
1.439264e+14
1.527527e+14
1.595362e+14
1.649152e+14
1.68932e+14
1.718994e+14
1.725568e+14
1.702545e+14
1.669973e+14
1.615296e+14
1.546131e+14
1.458897e+14
1.358712e+14
1.253241e+14
1.14257e+14
1.016757e+14
9.060505e+13
8.024752e+13
6.645955e+13
5.792103e+13
4.915121e+13
4.340945e+13
4.746672e+13
4.969843e+13
5.531534e+13
6.449463e+13
7.539953e+13
8.713252e+13
1.021804e+14
1.181225e+14
1.336489e+14
1.472463e+14
1.586137e+14
1.677041e+14
1.742219e+14
1.791623e+14
1.827377e+14
1.851037e+14
1.835742e+14
1.815139e+14
1.788645e+14
1.714922e+14
1.637259e+14
1.544426e+14
1.451691e+14
1.365427e+14
1.285391e+14
1.1873e+14
1.054113e+14
9.357914e+13
8.022445e+13
6.422838e+13
5.781247e+13
5.102954e+13
4.855632e+13
5.157551e+13
5.854479e+13
6.868025e+13
8.011531e+13
9.351681e+13
1.102215e+14
1.297353e+14
1.479303e+14
1.635846e+14
1.767188e+14
1.867956e+14
1.935413e+14
1.979529e+14
2.002581e+14
2.004385e+14
1.984565e+14
1.963711e+14
1.905313e+14
1.856592e+14
1.823149e+14
1.745745e+14
1.6614e+14
1.569097e+14
1.454473e+14
1.319042e+14
1.155601e+14
9.978954e+13
8.447028e+13
6.729216e+13
5.87704e+13
5.187754e+13
5.085694e+13
5.470742e+13
6.161479e+13
7.211789e+13
8.408899e+13
9.895415e+13
1.169002e+14
1.388382e+14
1.600535e+14
1.765405e+14
1.887241e+14
1.963284e+14
1.994744e+14
2.010828e+14
2.035203e+14
2.056512e+14
2.069333e+14
2.07629e+14
2.058179e+14
2.013519e+14
1.924207e+14
1.826468e+14
1.72876e+14
1.612935e+14
1.495106e+14
1.362953e+14
1.209519e+14
1.027377e+14
8.656032e+13
6.771143e+13
5.363079e+13
4.763822e+13
4.627946e+13
5.105801e+13
5.665698e+13
6.497255e+13
7.526242e+13
8.744653e+13
1.031035e+14
1.219351e+14
1.441638e+14
1.664222e+14
1.84399e+14
1.928375e+14
1.958696e+14
1.956454e+14
2.016862e+14
2.086768e+14
2.103179e+14
2.107943e+14
2.097197e+14
2.067522e+14
2.021519e+14
1.966326e+14
1.884256e+14
1.782211e+14
1.66126e+14
1.538769e+14
1.402785e+14
1.24801e+14
1.057427e+14
8.980222e+13
7.293967e+13
5.313102e+13
4.495437e+13
3.333587e+13
4.606704e+13
4.934917e+13
5.628298e+13
6.613889e+13
7.718971e+13
8.997049e+13
1.058864e+14
1.249355e+14
1.466592e+14
1.698065e+14
1.877498e+14
1.965276e+14
1.957229e+14
1.929895e+14
2.048178e+14
2.133202e+14
2.165544e+14
2.182224e+14
2.182923e+14
2.162976e+14
2.120931e+14
2.055124e+14
1.964107e+14
1.850512e+14
1.713567e+14
1.574802e+14
1.432629e+14
1.273109e+14
1.078895e+14
9.180285e+13
7.427652e+13
5.352986e+13
4.286476e+13
3.166345e+13
4.635101e+13
4.953764e+13
5.643854e+13
6.668234e+13
7.823924e+13
9.160753e+13
1.074825e+14
1.262796e+14
1.470979e+14
1.694187e+14
1.886355e+14
2.001757e+14
2.036752e+14
2.082989e+14
2.150584e+14
2.194389e+14
2.217631e+14
2.227298e+14
2.221738e+14
2.197767e+14
2.152505e+14
2.084704e+14
1.992262e+14
1.874494e+14
1.735287e+14
1.588332e+14
1.440567e+14
1.277368e+14
1.082589e+14
9.225918e+13
7.484263e+13
5.43692e+13
4.279813e+13
3.098335e+13
4.569761e+13
4.921374e+13
5.634454e+13
6.684559e+13
7.861332e+13
9.230356e+13
1.081498e+14
1.263096e+14
1.459554e+14
1.666144e+14
1.857451e+14
1.996785e+14
2.07573e+14
2.143229e+14
2.196346e+14
2.22739e+14
2.242346e+14
2.24417e+14
2.230949e+14
2.200032e+14
2.14879e+14
2.075843e+14
1.979409e+14
1.858718e+14
1.71827e+14
1.573007e+14
1.424506e+14
1.25987e+14
1.067546e+14
9.105767e+13
7.42052e+13
5.490067e+13
4.347805e+13
3.206852e+13
4.45513e+13
4.85732e+13
5.593553e+13
6.663354e+13
7.834732e+13
9.196716e+13
1.075281e+14
1.249756e+14
1.434643e+14
1.624958e+14
1.804422e+14
1.95333e+14
2.05356e+14
2.124073e+14
2.174161e+14
2.203651e+14
2.216248e+14
2.213166e+14
2.193304e+14
2.155243e+14
2.097796e+14
2.020214e+14
1.920948e+14
1.799659e+14
1.664179e+14
1.52889e+14
1.384914e+14
1.22132e+14
1.035632e+14
8.828881e+13
7.201492e+13
5.470952e+13
4.384096e+13
3.37765e+13
4.481077e+13
5.015231e+13
5.657749e+13
6.657867e+13
7.78507e+13
9.088139e+13
1.056669e+14
1.22325e+14
1.39832e+14
1.573078e+14
1.737239e+14
1.878816e+14
1.987739e+14
2.061691e+14
2.111015e+14
2.13827e+14
2.146183e+14
2.136358e+14
2.109271e+14
2.064945e+14
2.003496e+14
1.924679e+14
1.826307e+14
1.709049e+14
1.584422e+14
1.459106e+14
1.323664e+14
1.163787e+14
9.911195e+13
8.419626e+13
6.813477e+13
5.393126e+13
4.301433e+13
3.514289e+13
4.867222e+13
5.36167e+13
6.244122e+13
7.468251e+13
8.759463e+13
1.016422e+14
1.177929e+14
1.345479e+14
1.508645e+14
1.660282e+14
1.797303e+14
1.898869e+14
1.967716e+14
2.010605e+14
2.031336e+14
2.03264e+14
2.016651e+14
1.985173e+14
1.93934e+14
1.880007e+14
1.806551e+14
1.715183e+14
1.609107e+14
1.499541e+14
1.382621e+14
1.250266e+14
1.095005e+14
9.417698e+13
7.923074e+13
6.287218e+13
5.308854e+13
3.984218e+13
4.493482e+13
4.910596e+13
5.803375e+13
6.986531e+13
8.23604e+13
9.58558e+13
1.112442e+14
1.272799e+14
1.42756e+14
1.574508e+14
1.694466e+14
1.779345e+14
1.83591e+14
1.870382e+14
1.885943e+14
1.884412e+14
1.867732e+14
1.838682e+14
1.798934e+14
1.749376e+14
1.687646e+14
1.608654e+14
1.517041e+14
1.417159e+14
1.307653e+14
1.17388e+14
1.027266e+14
8.91565e+13
7.391525e+13
5.801509e+13
4.726142e+13
3.791133e+13
4.173545e+13
4.57639e+13
5.334612e+13
6.414968e+13
7.543194e+13
8.737927e+13
1.01701e+14
1.16952e+14
1.314472e+14
1.437265e+14
1.536465e+14
1.610283e+14
1.665731e+14
1.702639e+14
1.722441e+14
1.725492e+14
1.71453e+14
1.694021e+14
1.666095e+14
1.630942e+14
1.583407e+14
1.520597e+14
1.442069e+14
1.347462e+14
1.238849e+14
1.103073e+14
9.668609e+13
8.277279e+13
6.875779e+13
5.522431e+13
4.381712e+13
3.59664e+13
4.104474e+13
4.510795e+13
4.983176e+13
5.809424e+13
6.788694e+13
7.843414e+13
9.092965e+13
1.041213e+14
1.162932e+14
1.267488e+14
1.359168e+14
1.436934e+14
1.499019e+14
1.542049e+14
1.568436e+14
1.577903e+14
1.574943e+14
1.565588e+14
1.551128e+14
1.529931e+14
1.493961e+14
1.446346e+14
1.375128e+14
1.287032e+14
1.178505e+14
1.046558e+14
9.149448e+13
7.688225e+13
6.461293e+13
5.375758e+13
4.118666e+13
3.627844e+13
4.160559e+13
4.570852e+13
5.282529e+13
6.143244e+13
7.13327e+13
8.228519e+13
9.383024e+13
1.044756e+14
1.136251e+14
1.21943e+14
1.292457e+14
1.351082e+14
1.397705e+14
1.428379e+14
1.445e+14
1.45079e+14
1.452934e+14
1.450176e+14
1.438843e+14
1.411868e+14
1.379504e+14
1.314316e+14
1.231966e+14
1.126327e+14
9.961107e+13
8.601113e+13
7.216251e+13
6.196479e+13
4.940084e+13
4.094601e+13
4.15416e+13
4.553647e+13
4.898494e+13
5.696788e+13
6.607903e+13
7.550782e+13
8.546661e+13
9.421598e+13
1.018717e+14
1.097808e+14
1.166056e+14
1.220286e+14
1.266963e+14
1.298406e+14
1.322473e+14
1.335755e+14
1.348456e+14
1.356492e+14
1.355387e+14
1.340565e+14
1.318923e+14
1.257696e+14
1.18725e+14
1.098928e+14
9.632432e+13
8.216339e+13
6.932326e+13
5.772798e+13
5.140481e+13
4.477012e+13
4.303678e+13
4.867797e+13
5.476918e+13
6.226979e+13
6.942122e+13
7.797597e+13
8.450409e+13
9.129572e+13
9.948146e+13
1.056647e+14
1.105691e+14
1.151501e+14
1.181509e+14
1.209158e+14
1.228526e+14
1.252437e+14
1.272312e+14
1.280223e+14
1.278009e+14
1.271277e+14
1.224786e+14
1.151209e+14
1.058852e+14
9.199241e+13
7.810715e+13
6.764872e+13
5.842493e+13
5.164013e+13
4.63919e+13
5.310804e+13
5.930616e+13
6.53154e+13
7.220923e+13
7.715964e+13
8.304371e+13
9.100162e+13
9.638753e+13
1.007339e+14
1.050085e+14
1.076362e+14
1.106178e+14
1.132187e+14
1.166888e+14
1.202594e+14
1.226944e+14
1.236909e+14
1.224188e+14
1.172787e+14
1.090998e+14
1.001421e+14
8.60248e+13
7.488458e+13
6.612987e+13
5.991017e+13
5.051515e+13
5.663257e+13
6.226042e+13
6.75613e+13
7.179791e+13
7.804708e+13
8.572768e+13
9.026181e+13
9.396666e+13
9.805472e+13
1.00709e+14
1.040391e+14
1.072437e+14
1.10916e+14
1.146784e+14
1.16849e+14
1.176928e+14
1.156279e+14
1.095043e+14
1.00633e+14
9.245531e+13
8.114226e+13
7.275529e+13
6.732619e+13
5.44588e+13
6.041272e+13
6.183403e+13
6.741406e+13
7.218327e+13
7.968989e+13
8.416967e+13
8.74866e+13
9.143366e+13
9.395443e+13
9.72919e+13
1.004968e+14
1.041565e+14
1.078824e+14