/*--------------------------------*- C++ -*----------------------------------*\
  =========                 |
  \\      /  F ield         | OpenFOAM: The Open Source CFD Toolbox
   \\    /   O peration     | Website:  https://openfoam.org
    \\  /    A nd           | Version:  6
     \\/     M anipulation  |
\*---------------------------------------------------------------------------*/
FoamFile
{
    version     2.0;
    format      ascii;
    class       volScalarField;
    location    "50/region0/neutronTransport";
    object      precursor0.dnp;
}
// * * * * * * * * * * * * * * * * * * * * * * * * * * * * * * * * * * * * * //

dimensions      [0 -3 0 0 0 0 0];

internalField   nonuniform List<scalar> 
203709
(
5.963048e+14
6.560314e+14
6.55937e+14
5.964039e+14
6.232497e+14
6.976679e+14
8.636437e+14
8.545413e+14
8.544172e+14
8.635372e+14
6.975047e+14
6.231905e+14
6.089719e+14
7.001864e+14
8.749418e+14
8.724349e+14
8.972278e+14
9.033982e+14
9.033452e+14
8.971203e+14
8.722454e+14
8.747868e+14
7.000341e+14
6.088508e+14
6.090623e+14
8.505372e+14
8.686664e+14
9.027264e+14
9.204145e+14
9.359708e+14
9.428452e+14
9.428488e+14
9.35863e+14
9.202363e+14
9.025732e+14
8.685099e+14
8.50418e+14
6.089667e+14
7.002659e+14
8.686963e+14
9.079212e+14
9.357494e+14
9.568175e+14
9.720362e+14
9.795987e+14
9.796027e+14
9.719276e+14
9.566682e+14
9.356059e+14
9.077431e+14
8.6851e+14
7.000963e+14
6.23418e+14
8.750643e+14
9.02826e+14
9.357884e+14
9.64455e+14
9.87073e+14
1.002755e+15
1.010522e+15
1.010508e+15
1.002697e+15
9.869906e+14
9.642915e+14
9.355866e+14
9.026257e+14
8.748723e+14
6.232335e+14
6.978016e+14
8.725562e+14
9.205398e+14
9.569035e+14
9.871683e+14
1.010673e+15
1.026299e+15
1.033663e+15
1.033635e+15
1.026248e+15
1.010535e+15
9.869786e+14
9.567536e+14
9.20399e+14
8.723928e+14
6.976689e+14
5.967511e+14
8.639856e+14
8.975186e+14
9.362328e+14
9.723054e+14
1.003022e+15
1.026504e+15
1.041041e+15
1.048196e+15
1.048125e+15
1.040868e+15
1.026214e+15
1.002753e+15
9.721061e+14
9.360772e+14
8.973902e+14
8.639342e+14
5.964637e+14
6.563529e+14
8.548632e+14
9.03708e+14
9.432153e+14
9.799515e+14
1.010846e+15
1.033992e+15
1.048396e+15
1.056194e+15
1.05589e+15
1.048147e+15
1.033715e+15
1.010606e+15
9.797289e+14
9.43029e+14
9.036173e+14
8.547535e+14
6.561589e+14
6.564686e+14
8.550919e+14
9.038359e+14
9.432483e+14
9.799808e+14
1.010888e+15
1.033999e+15
1.048424e+15
1.056416e+15
1.05611e+15
1.048221e+15
1.033754e+15
1.010613e+15
9.797638e+14
9.430657e+14
9.036627e+14
8.549024e+14
6.563159e+14
5.967095e+14
8.643084e+14
8.977461e+14
9.364175e+14
9.724606e+14
1.003136e+15
1.026605e+15
1.041196e+15
1.04843e+15
1.048308e+15
1.041034e+15
1.026396e+15
1.002877e+15
9.722104e+14
9.361802e+14
8.975105e+14
8.63993e+14
5.966082e+14
6.980007e+14
8.728595e+14
9.208749e+14
9.572534e+14
9.874486e+14
1.010931e+15
1.026569e+15
1.034011e+15
1.033899e+15
1.026499e+15
1.01077e+15
9.872295e+14
9.569768e+14
9.205826e+14
8.7262e+14
6.978531e+14
6.23655e+14
8.75458e+14
9.031849e+14
9.361632e+14
9.647911e+14
9.874245e+14
1.003068e+15
1.010943e+15
1.010883e+15
1.003088e+15
9.873641e+14
9.646936e+14
9.360078e+14
9.030004e+14
8.752521e+14
6.23464e+14
7.005823e+14
8.690614e+14
9.083113e+14
9.361612e+14
9.572438e+14
9.725253e+14
9.805482e+14
9.805201e+14
9.725052e+14
9.572226e+14
9.361176e+14
9.082538e+14
8.690345e+14
7.004864e+14
6.094059e+14
8.510599e+14
8.69133e+14
9.032553e+14
9.209381e+14
9.365759e+14
9.438716e+14
9.438662e+14
9.365598e+14
9.209206e+14
9.031936e+14
8.690497e+14
8.50984e+14
6.091917e+14
6.094861e+14
7.007067e+14
8.75626e+14
8.730157e+14
8.97985e+14
9.04415e+14
9.044751e+14
8.979669e+14
8.730374e+14
8.755396e+14
7.005226e+14
6.092718e+14
6.238247e+14
6.982207e+14
8.645895e+14
8.557958e+14
8.55906e+14
8.645774e+14
6.981846e+14
6.236929e+14
5.970495e+14
6.567728e+14
6.568176e+14
5.970208e+14
4.99593e+14
5.678519e+14
5.909761e+14
6.068432e+14
6.167573e+14
6.167416e+14
6.067977e+14
5.90885e+14
5.677282e+14
4.995033e+14
5.096384e+14
5.938085e+14
7.562927e+14
7.80977e+14
8.091476e+14
8.40168e+14
8.647091e+14
8.646869e+14
8.401388e+14
8.089472e+14
7.805552e+14
7.557007e+14
5.932661e+14
5.091636e+14
5.217021e+14
7.439369e+14
7.857235e+14
8.461236e+14
9.034324e+14
9.511189e+14
1.012693e+15
1.063469e+15
1.063417e+15
1.012569e+15
9.506985e+14
9.028138e+14
8.455269e+14
7.850925e+14
7.434078e+14
5.213822e+14
5.269203e+14
7.579507e+14
8.26049e+14
9.003943e+14
9.774523e+14
1.087145e+15
1.222979e+15
1.357965e+15
1.406367e+15
1.406251e+15
1.357526e+15
1.222422e+15
1.086603e+15
9.769486e+14
8.998552e+14
8.255015e+14
7.573179e+14
5.266219e+14
5.217862e+14
7.579284e+14
8.344583e+14
9.215459e+14
1.06624e+15
1.240661e+15
1.428301e+15
1.566308e+15
1.669021e+15
1.835793e+15
1.835617e+15
1.668642e+15
1.565722e+15
1.427549e+15
1.240023e+15
1.065575e+15
9.210289e+14
8.338811e+14
7.57337e+14
5.214689e+14
5.098918e+14
7.44339e+14
8.261934e+14
9.216362e+14
1.11966e+15
1.384015e+15
1.565591e+15
1.714967e+15
1.955257e+15
2.062844e+15
2.126288e+15
2.12612e+15
2.062361e+15
1.954551e+15
1.714214e+15
1.56479e+15
1.383185e+15
1.118963e+15
9.210087e+14
8.256449e+14
7.438029e+14
5.095731e+14
5.939973e+14
7.859489e+14
9.005612e+14
1.066344e+15
1.384045e+15
1.6378e+15
1.926348e+15
2.086132e+15
2.210956e+15
2.288027e+15
2.327241e+15
2.327107e+15
2.287616e+15
2.210392e+15
2.085463e+15
1.925596e+15
1.637108e+15
1.383477e+15
1.06584e+15
9.002081e+14
7.856389e+14
5.937074e+14
5.001588e+14
7.56744e+14
8.463536e+14
9.77705e+14
1.240814e+15
1.565902e+15
1.9265e+15
2.143367e+15
2.28333e+15
2.380146e+15
2.441635e+15
2.471964e+15
2.471883e+15
2.441368e+15
2.379777e+15
2.282883e+15
2.142856e+15
1.926008e+15
1.56552e+15
1.240569e+15
9.774866e+14
8.460475e+14
7.56199e+14
4.996748e+14
5.685168e+14
7.817405e+14
9.038149e+14
1.08763e+15
1.428911e+15
1.715519e+15
2.086512e+15
2.283531e+15
2.410573e+15
2.496307e+15
2.550508e+15
2.576912e+15
2.576861e+15
2.550342e+15
2.496051e+15
2.410211e+15
2.283076e+15
2.086001e+15
1.715034e+15
1.428484e+15
1.087126e+15
9.034237e+14
7.810905e+14
5.679279e+14
5.916908e+14
8.101091e+14
9.517142e+14
1.223475e+15
1.56719e+15
1.956034e+15
2.211615e+15
2.380678e+15
2.496703e+15
2.576337e+15
2.626783e+15
2.651375e+15
2.651269e+15
2.626498e+15
2.575907e+15
2.496246e+15
2.38025e+15
2.211193e+15
1.955544e+15
1.566516e+15
1.223218e+15
9.514037e+14
8.094201e+14
5.911039e+14
6.075727e+14
8.412754e+14
1.013772e+15
1.35911e+15
1.670213e+15
2.063969e+15
2.289032e+15
2.442606e+15
2.55151e+15
2.627492e+15
2.675616e+15
2.699037e+15
2.698756e+15
2.67492e+15
2.626564e+15
2.550646e+15
2.442043e+15
2.288685e+15
2.063661e+15
1.669803e+15
1.35879e+15
1.013262e+15
8.406531e+14
6.07109e+14
6.174437e+14
8.657395e+14
1.064592e+15
1.407818e+15
1.837365e+15
2.127756e+15
2.328606e+15
2.473267e+15
2.578221e+15
2.652559e+15
2.69973e+15
2.72281e+15
2.722361e+15
2.698833e+15
2.651469e+15
2.577237e+15
2.47258e+15
2.32822e+15
2.12754e+15
1.83713e+15
1.407547e+15
1.064265e+15
8.65339e+14
6.171071e+14
6.173565e+14
8.655986e+14
1.064474e+15
1.407811e+15
1.837556e+15
2.128011e+15
2.328853e+15
2.473481e+15
2.578393e+15
2.652698e+15
2.699904e+15
2.723108e+15
2.722683e+15
2.699095e+15
2.651696e+15
2.57743e+15
2.472758e+15
2.328409e+15
2.127772e+15
1.83737e+15
1.407586e+15
1.064226e+15
8.6531e+14
6.170929e+14
6.073648e+14
8.411159e+14
1.013922e+15
1.359506e+15
1.670616e+15
2.064623e+15
2.289761e+15
2.443291e+15
2.552055e+15
2.627998e+15
2.676208e+15
2.699775e+15
2.6995e+15
2.675616e+15
2.627221e+15
2.55126e+15
2.442653e+15
2.289347e+15
2.064404e+15
1.670521e+15
1.359291e+15
1.013702e+15
8.409271e+14
6.071682e+14
5.915534e+14
8.101323e+14
9.521828e+14
1.224169e+15
1.567841e+15
1.956999e+15
2.212746e+15
2.381855e+15
2.497816e+15
2.577378e+15
2.627854e+15
2.652547e+15
2.652405e+15
2.627605e+15
2.577008e+15
2.497398e+15
2.381494e+15
2.212515e+15
1.956885e+15
1.567811e+15
1.223878e+15
9.518788e+14
8.100143e+14
5.914093e+14
5.684931e+14
7.819244e+14
9.044013e+14
1.088197e+15
1.429887e+15
1.716674e+15
2.087891e+15
2.284957e+15
2.411961e+15
2.497688e+15
2.551931e+15
2.578456e+15
2.578465e+15
2.552076e+15
2.49787e+15
2.412129e+15
2.28509e+15
2.087971e+15
1.716594e+15
1.429702e+15
1.088111e+15
9.041381e+14
7.81821e+14
5.683611e+14
5.001897e+14
7.570587e+14
8.469585e+14
9.782984e+14
1.241824e+15
1.56708e+15
1.927903e+15
2.144853e+15
2.284901e+15
2.381853e+15
2.443554e+15
2.474047e+15
2.47416e+15
2.443935e+15
2.382428e+15
2.285551e+15
2.145465e+15
1.928339e+15
1.567135e+15
1.24172e+15
9.782805e+14
8.467443e+14
7.56936e+14
5.000899e+14
5.944297e+14
7.864609e+14
9.011009e+14
1.067111e+15
1.385213e+15
1.63915e+15
1.928026e+15
2.088103e+15
2.213219e+15
2.290639e+15
2.33001e+15
2.330143e+15
2.291026e+15
2.213808e+15
2.088787e+15
1.928726e+15
1.639674e+15
1.385382e+15
1.067138e+15
9.011917e+14
7.863097e+14
5.941135e+14
5.102801e+14
7.447236e+14
8.267449e+14
9.223577e+14
1.120686e+15
1.385481e+15
1.56753e+15
1.717305e+15
1.958019e+15
2.066067e+15
2.129744e+15
2.129879e+15
2.066318e+15
1.958343e+15
1.717556e+15
1.567837e+15
1.385747e+15
1.120778e+15
9.223592e+14
8.268135e+14
7.446431e+14
5.098777e+14
5.222668e+14
7.587759e+14
8.353584e+14
9.224629e+14
1.067372e+15
1.242278e+15
1.430699e+15
1.569066e+15
1.672132e+15
1.839312e+15
1.839436e+15
1.672253e+15
1.569078e+15
1.43058e+15
1.24233e+15
1.067425e+15
9.224487e+14
8.352946e+14
7.587205e+14
5.220527e+14
5.274997e+14
7.587843e+14
8.269842e+14
9.015658e+14
9.78832e+14
1.088643e+15
1.224954e+15
1.36077e+15
1.409346e+15
1.409368e+15
1.360622e+15
1.224844e+15
1.08868e+15
9.786986e+14
9.014068e+14
8.268712e+14
7.587123e+14
5.273899e+14
5.221532e+14
7.449821e+14
7.867954e+14
8.472764e+14
9.047275e+14
9.527886e+14
1.014754e+15
1.065624e+15
1.065593e+15
1.014631e+15
9.525348e+14
9.046353e+14
8.472703e+14
7.867257e+14
7.448503e+14
5.22071e+14
5.103506e+14
5.94578e+14
7.574836e+14
7.824548e+14
8.108161e+14
8.419204e+14
8.665081e+14
8.664937e+14
8.41841e+14
8.106318e+14
7.822478e+14
7.574852e+14
5.945907e+14
5.102852e+14
5.003642e+14
5.687662e+14
5.91913e+14
6.077981e+14
6.177824e+14
6.177649e+14
6.07867e+14
5.919728e+14
5.687762e+14
5.003025e+14
4.233264e+14
4.7998e+14
4.941818e+14
4.996384e+14
4.99507e+14
4.93787e+14
4.792785e+14
4.227161e+14
4.229013e+14
5.072141e+14
5.554358e+14
6.996299e+14
7.257952e+14
7.411065e+14
7.480651e+14
7.479161e+14
7.406321e+14
7.250099e+14
6.990215e+14
5.550005e+14
5.068157e+14
4.227493e+14
4.664379e+14
6.784601e+14
7.433946e+14
8.197225e+14
9.032161e+14
9.419896e+14
9.658195e+14
9.76985e+14
9.768315e+14
9.653498e+14
9.412071e+14
9.022488e+14
8.188828e+14
7.426076e+14
6.777305e+14
4.662998e+14
4.371272e+14
5.433077e+14
7.298235e+14
8.675655e+14
1.016213e+15
1.182787e+15
1.267538e+15
1.316919e+15
1.349781e+15
1.366784e+15
1.366568e+15
1.349134e+15
1.315853e+15
1.266118e+15
1.181215e+15
1.014888e+15
8.666025e+14
7.289194e+14
5.428529e+14
4.367404e+14
4.413001e+14
6.653454e+14
7.725234e+14
9.610189e+14
1.204828e+15
1.377607e+15
1.522094e+15
1.75013e+15
1.856621e+15
1.919307e+15
1.950434e+15
1.950165e+15
1.91853e+15
1.855397e+15
1.748605e+15
1.520658e+15
1.37609e+15
1.203242e+15
9.596715e+14
7.717369e+14
6.645214e+14
4.408973e+14
4.371874e+14
6.655403e+14
7.978177e+14
1.000118e+15
1.293164e+15
1.508964e+15
1.802556e+15
1.992426e+15
2.157141e+15
2.279447e+15
2.362344e+15
2.403588e+15
2.403268e+15
2.361454e+15
2.277944e+15
2.155165e+15
1.990229e+15
1.800207e+15
1.506794e+15
1.291236e+15
9.988566e+14
7.966764e+14
6.645977e+14
4.36712e+14
5.436634e+14
7.728968e+14
1.000356e+15
1.314092e+15
1.56016e+15
1.906114e+15
2.159774e+15
2.3665e+15
2.543071e+15
2.685767e+15
2.787461e+15
2.829124e+15
2.828735e+15
2.786307e+15
2.683974e+15
2.540874e+15
2.364084e+15
2.15719e+15
1.90355e+15
1.557871e+15
1.311898e+15
9.988573e+14
7.718449e+14
5.430038e+14
4.670912e+14
7.302134e+14
9.613601e+14
1.293796e+15
1.56035e+15
1.937473e+15
2.238126e+15
2.502072e+15
2.729859e+15
2.922277e+15
3.065865e+15
3.16791e+15
3.226654e+15
3.226237e+15
3.166703e+15
3.064001e+15
2.919964e+15
2.727265e+15
2.499324e+15
2.235454e+15
1.934911e+15
1.558198e+15
1.291812e+15
9.600309e+14
7.292519e+14
4.664273e+14
4.232574e+14
6.790351e+14
8.682093e+14
1.205573e+15
1.510089e+15
1.906993e+15
2.238542e+15
2.550764e+15
2.834911e+15
3.06657e+15
3.257522e+15
3.41675e+15
3.52869e+15
3.589113e+15
3.588731e+15
3.527576e+15
3.415043e+15
3.255403e+15
3.064137e+15
2.832346e+15
2.548228e+15
2.236027e+15
1.904601e+15
1.508025e+15
1.2037e+15
8.671949e+14
6.781435e+14
4.226735e+14
5.078146e+14
7.442058e+14
1.017025e+15
1.379111e+15
1.804051e+15
2.161001e+15
2.502697e+15
2.835118e+15
3.119021e+15
3.369814e+15
3.572687e+15
3.730321e+15
3.83621e+15
3.890195e+15
3.889882e+15
3.835317e+15
3.729006e+15
3.571064e+15
3.367978e+15
3.117121e+15
2.833241e+15
2.500806e+15
2.159108e+15
1.802118e+15
1.377188e+15
1.015984e+15
7.434349e+14
5.071967e+14
5.56075e+14
8.205312e+14
1.1837e+15
1.524183e+15
1.994347e+15
2.367987e+15
2.730694e+15
3.067087e+15
3.370085e+15
3.630323e+15
3.832526e+15
3.9817e+15
4.079912e+15
4.128868e+15
4.128678e+15
4.079365e+15
3.980887e+15
3.831531e+15
3.629231e+15
3.368986e+15
3.066005e+15
2.729503e+15
2.366554e+15
1.992629e+15
1.522352e+15
1.182781e+15
8.198645e+14
5.555005e+14
4.238042e+14
7.005794e+14
9.040223e+14
1.268861e+15
1.752628e+15
2.159542e+15
2.54493e+15
2.92365e+15
3.258535e+15
3.573373e+15
3.832891e+15
4.030192e+15
4.172512e+15
4.265041e+15
4.310687e+15
4.310573e+15
4.264709e+15
4.172018e+15
4.029569e+15
3.832157e+15
3.572548e+15
3.25762e+15
2.922594e+15
2.543558e+15
2.157805e+15
1.750717e+15
1.267858e+15
9.033248e+14
6.996429e+14
4.232602e+14
4.802916e+14
7.265312e+14
9.430913e+14
1.318731e+15
1.859527e+15
2.282392e+15
2.688088e+15
3.067757e+15
3.418274e+15
3.731546e+15
3.982639e+15
4.173151e+15
4.310106e+15
4.398735e+15
4.442293e+15
4.44209e+15
4.398184e+15
4.309357e+15
4.172441e+15
3.982012e+15
3.730977e+15
3.41767e+15
3.066998e+15
2.6871e+15
2.280844e+15
1.857777e+15
1.317618e+15
9.422584e+14
7.258211e+14
4.798147e+14
4.946991e+14
7.42013e+14
9.671558e+14
1.352015e+15
1.922672e+15
2.365962e+15
2.790629e+15
3.170531e+15
3.530864e+15
3.838056e+15
4.081585e+15
4.266697e+15
4.399898e+15
4.485981e+15
4.528108e+15
4.527653e+15
4.484795e+15
4.398352e+15
4.265301e+15
4.08075e+15
3.837658e+15
3.530608e+15
3.170132e+15
2.789864e+15
2.364606e+15
1.921169e+15
1.350923e+15
9.663684e+14
7.413391e+14
4.941546e+14
5.003897e+14
7.492808e+14
9.786056e+14
1.369369e+15
1.954191e+15
2.407702e+15
2.833053e+15
3.23011e+15
3.592073e+15
3.892748e+15
4.131157e+15
4.312913e+15
4.444282e+15
4.529273e+15
4.570818e+15
4.570222e+15
4.527795e+15
4.44244e+15
4.311278e+15
4.130115e+15
3.892291e+15
3.591901e+15
3.229862e+15
2.832447e+15
2.406645e+15
1.952954e+15
1.36838e+15
9.77843e+14
7.485746e+14
4.998442e+14
5.004522e+14
7.493499e+14
9.786568e+14
1.369438e+15
1.954239e+15
2.407824e+15
2.833351e+15
3.230551e+15
3.592583e+15
3.893252e+15
4.131595e+15
4.313261e+15
4.444591e+15
4.529613e+15
4.571238e+15
4.570692e+15
4.528267e+15
4.442892e+15
4.3117e+15
4.130521e+15
3.892712e+15
3.592361e+15
3.230319e+15
2.832833e+15
2.406994e+15
1.953252e+15
1.368563e+15
9.779694e+14
7.486979e+14
4.99957e+14
4.949284e+14
7.422976e+14
9.673692e+14
1.352244e+15
1.922836e+15
2.366467e+15
2.791667e+15
3.171821e+15
3.532305e+15
3.83953e+15
4.082951e+15
4.267821e+15
4.400958e+15
4.487146e+15
4.52942e+15
4.529025e+15
4.486148e+15
4.399663e+15
4.266594e+15
4.082085e+15
3.839093e+15
3.532142e+15
3.171658e+15
2.791245e+15
2.365862e+15
1.922082e+15
1.351383e+15
9.667202e+14
7.416941e+14
4.944741e+14
4.807186e+14
7.269917e+14
9.434645e+14
1.319192e+15
1.859848e+15
2.283245e+15
2.6897e+15
3.069743e+15
3.420446e+15
3.733835e+15
3.984953e+15
4.175375e+15
4.312182e+15
4.400807e+15
4.444436e+15
4.444267e+15
4.400401e+15
4.31165e+15
4.17488e+15
3.984655e+15
3.733799e+15
3.420552e+15
3.069777e+15
2.689471e+15
2.282884e+15
1.859311e+15
1.318245e+15
9.428033e+14
7.264233e+14
4.802934e+14
4.242836e+14
7.009656e+14
9.046897e+14
1.269697e+15
1.75309e+15
2.160621e+15
2.546659e+15
2.925977e+15
3.261161e+15
3.576196e+15
3.835753e+15
4.033e+15
4.175277e+15
4.267843e+15
4.313628e+15
4.313729e+15
4.268174e+15
4.175777e+15
4.0336e+15
3.836399e+15
3.576835e+15
3.261724e+15
2.926408e+15
2.546935e+15
2.160569e+15
1.752837e+15
1.268676e+15
9.040424e+14
7.005624e+14
4.238934e+14
5.564693e+14
8.212044e+14
1.184773e+15
1.524615e+15
1.995523e+15
2.369625e+15
2.73303e+15
3.069833e+15
3.373051e+15
3.633426e+15
3.835794e+15
3.98521e+15
4.083747e+15
4.133028e+15
4.133317e+15
4.084596e+15
3.986498e+15
3.837334e+15
3.635011e+15
3.374468e+15
3.070955e+15
2.733964e+15
2.370319e+15
1.995686e+15
1.524707e+15
1.183782e+15
8.205883e+14
5.561155e+14
5.080287e+14
7.447129e+14
1.017929e+15
1.379846e+15
1.805303e+15
2.162496e+15
2.504791e+15
2.837822e+15
3.122173e+15
3.373457e+15
3.576888e+15
3.735097e+15
3.841576e+15
3.896029e+15
3.89633e+15
3.842445e+15
3.736431e+15
3.578545e+15
3.375279e+15
3.123929e+15
2.839326e+15
2.506055e+15
2.163347e+15
1.805504e+15
1.379979e+15
1.017324e+15
7.443373e+14
5.078797e+14
4.233115e+14
6.79669e+14
8.690595e+14
1.206544e+15
1.511328e+15
1.908573e+15
2.240757e+15
2.55375e+15
2.838637e+15
3.071086e+15
3.262868e+15
3.422825e+15
3.535484e+15
3.596451e+15
3.596666e+15
3.536045e+15
3.423656e+15
3.263915e+15
3.07235e+15
2.839944e+15
2.554953e+15
2.241762e+15
1.909191e+15
1.51126e+15
1.206607e+15
8.685675e+14
6.792442e+14
4.233958e+14
4.671246e+14
7.308122e+14
9.622778e+14
1.294835e+15
1.562115e+15
1.939908e+15
2.241392e+15
2.506168e+15
2.734868e+15
2.928302e+15
3.0727e+15
3.175463e+15
3.234733e+15
3.234844e+15
3.175695e+15
3.072998e+15
2.928722e+15
2.735511e+15
2.506886e+15
2.242087e+15
1.940488e+15
1.56247e+15
1.295021e+15
9.621705e+14
7.305984e+14
4.67067e+14
5.439941e+14
7.735939e+14
1.001372e+15
1.31566e+15
1.562289e+15
1.909489e+15
2.164137e+15
2.371747e+15
2.549103e+15
2.692647e+15
2.795181e+15
2.83733e+15
2.837313e+15
2.7951e+15
2.692572e+15
2.549154e+15
2.371847e+15
2.164319e+15
1.909732e+15
1.562529e+15
1.315761e+15
1.00129e+15
7.733704e+14
5.438221e+14
4.376387e+14
6.661863e+14
7.986954e+14
1.001419e+15
1.295446e+15
1.512157e+15
1.806585e+15
1.997376e+15
2.162918e+15
2.285955e+15
2.369476e+15
2.411041e+15
2.410957e+15
2.369303e+15
2.285659e+15
2.162632e+15
1.997234e+15
1.806651e+15
1.512186e+15
1.295423e+15
1.001374e+15
7.985737e+14
6.660187e+14
4.374753e+14
4.416563e+14
6.662616e+14
7.7382e+14
9.624726e+14
1.206912e+15
1.380506e+15
1.526031e+15
1.754892e+15
1.861859e+15
1.924966e+15
1.956315e+15
1.956206e+15
1.924876e+15
1.861751e+15
1.754723e+15
1.525803e+15
1.380631e+15
1.207101e+15
9.625189e+14
7.737156e+14
6.661317e+14
4.415785e+14
4.376857e+14
5.442489e+14
7.309501e+14
8.692239e+14
1.018115e+15
1.185242e+15
1.270243e+15
1.319819e+15
1.353043e+15
1.37086e+15
1.370657e+15
1.35324e+15
1.320114e+15
1.270489e+15
1.185442e+15
1.018244e+15
8.691966e+14
7.309103e+14
5.440741e+14
4.376316e+14
4.672618e+14
6.79627e+14
7.448884e+14
8.213865e+14
9.048931e+14
9.437066e+14
9.677127e+14
9.793004e+14
9.790914e+14
9.677609e+14
9.437385e+14
9.04879e+14
8.212664e+14
7.446894e+14
6.797257e+14
4.671601e+14
4.233738e+14
5.081667e+14
5.564995e+14
7.011268e+14
7.270501e+14
7.424219e+14
7.499176e+14
7.498263e+14
7.423349e+14
7.268925e+14
7.010502e+14
5.56372e+14
5.079694e+14
4.234673e+14
4.242015e+14
4.806291e+14
4.948665e+14
5.006179e+14
5.005605e+14
4.947665e+14
4.804442e+14
4.238468e+14
3.756579e+14
4.233553e+14
4.340115e+14
4.338707e+14
4.22922e+14
3.753137e+14
3.611015e+14
4.489538e+14
5.023463e+14
5.631433e+14
6.994506e+14
7.290246e+14
7.403872e+14
7.400617e+14
7.281589e+14
6.98358e+14
5.627047e+14
5.020041e+14
4.485355e+14
3.609152e+14
3.640481e+14
4.71302e+14
6.545206e+14
7.657663e+14
8.634882e+14
1.003654e+15
1.081199e+15
1.113408e+15
1.12908e+15
1.128625e+15
1.112195e+15
1.079797e+15
1.002581e+15
8.623768e+14
7.64434e+14
6.535756e+14
4.709024e+14
3.639517e+14
4.072943e+14
6.323617e+14
7.913767e+14
1.015918e+15
1.146705e+15
1.276295e+15
1.392451e+15
1.585577e+15
1.659956e+15
1.689581e+15
1.689088e+15
1.658576e+15
1.583632e+15
1.3904e+15
1.273969e+15
1.144442e+15
1.013467e+15
7.902572e+14
6.314476e+14
4.071629e+14
4.364413e+14
7.024981e+14
9.13539e+14
1.168227e+15
1.370293e+15
1.648433e+15
1.828906e+15
1.96751e+15
2.083447e+15
2.154625e+15
2.187377e+15
2.186861e+15
2.153134e+15
2.08116e+15
1.964731e+15
1.825946e+15
1.645566e+15
1.367753e+15
1.165749e+15
9.121617e+14
7.014395e+14
4.361007e+14
4.526773e+14
7.597586e+14
1.052255e+15
1.277622e+15
1.500308e+15
1.864456e+15
2.125728e+15
2.332052e+15
2.478538e+15
2.589666e+15
2.661705e+15
2.69653e+15
2.695986e+15
2.66011e+15
2.587137e+15
2.475283e+15
2.328352e+15
2.122037e+15
1.861236e+15
1.497749e+15
1.275139e+15
1.050296e+15
7.585653e+14
4.521502e+14
4.366244e+14
7.599136e+14
1.099145e+15
1.360616e+15
1.729945e+15
2.035557e+15
2.34139e+15
2.596698e+15
2.808884e+15
2.987795e+15
3.119253e+15
3.203079e+15
3.243698e+15
3.243116e+15
3.201383e+15
3.116582e+15
2.984377e+15
2.804993e+15
2.592585e+15
2.337366e+15
2.031818e+15
1.726738e+15
1.358121e+15
1.096819e+15
7.587339e+14
4.361052e+14
4.076207e+14
7.027284e+14
1.052806e+15
1.360794e+15
1.775134e+15
2.138423e+15
2.476054e+15
2.774797e+15
3.054525e+15
3.291983e+15
3.487116e+15
3.631491e+15
3.725003e+15
3.77046e+15
3.769825e+15
3.723166e+15
3.628549e+15
3.483309e+15
3.287613e+15
3.049837e+15
2.770075e+15
2.471544e+15
2.134433e+15
1.7718e+15
1.358391e+15
1.050938e+15
7.017794e+14
4.071106e+14
3.64386e+14
6.326975e+14
9.143741e+14
1.27823e+15
1.730666e+15
2.138963e+15
2.52269e+15
2.864083e+15
3.195008e+15
3.495863e+15
3.749833e+15
3.956152e+15
4.111847e+15
4.213723e+15
4.261871e+15
4.261157e+15
4.211649e+15
4.108614e+15
3.952067e+15
3.745179e+15
3.49085e+15
3.189848e+15
2.858989e+15
2.517836e+15
2.134767e+15
1.727311e+15
1.275899e+15
9.13036e+14
6.318127e+14
3.638866e+14
4.717978e+14
7.923086e+14
1.168796e+15
1.501863e+15
2.036956e+15
2.477356e+15
2.864853e+15
3.240897e+15
3.593218e+15
3.907124e+15
4.174178e+15
4.390281e+15
4.553883e+15
4.663841e+15
4.719678e+15
4.718943e+15
4.661711e+15
4.550589e+15
4.386155e+15
4.169484e+15
3.90208e+15
3.588e+15
3.235632e+15
2.859725e+15
2.472577e+15
2.032939e+15
1.498969e+15
1.166895e+15
7.911571e+14
4.712652e+14
3.61658e+14
6.550741e+14
1.016469e+15
1.37167e+15
1.866738e+15
2.343683e+15
2.777043e+15
3.196693e+15
3.594031e+15
3.958613e+15
4.28233e+15
4.558556e+15
4.78437e+15
4.960207e+15
5.080801e+15
5.142611e+15
5.141944e+15
5.07887e+15
4.957238e+15
4.780668e+15
4.554345e+15
4.277815e+15
3.953884e+15
3.589113e+15
3.191698e+15
2.772209e+15
2.339311e+15
1.863218e+15
1.368884e+15
1.015038e+15
6.541943e+14
3.614283e+14
4.492726e+14
7.664082e+14
1.14771e+15
1.650869e+15
2.128662e+15
2.599984e+15
3.057684e+15
3.498321e+15
3.9085e+15
4.282842e+15
4.614748e+15
4.904003e+15
5.142471e+15
5.326567e+15
5.451415e+15
5.514551e+15
5.514014e+15
5.449905e+15
5.324312e+15
5.1397e+15
4.900894e+15
4.611438e+15
4.27937e+15
3.904804e+15
3.494297e+15
3.053411e+15
2.595797e+15
2.125103e+15
1.647728e+15
1.145775e+15
7.653318e+14
4.488497e+14
5.030421e+14
8.647023e+14
1.278274e+15
1.832237e+15
2.335721e+15
2.813177e+15
3.296044e+15
3.752899e+15
4.175997e+15
4.559507e+15
4.904432e+15
5.205505e+15
5.45128e+15
5.637726e+15
5.762692e+15
5.825326e+15
5.825017e+15
5.761806e+15
5.636395e+15
5.449676e+15
5.203777e+15
4.90265e+15
4.557607e+15
4.173696e+15
3.749876e+15
3.292279e+15
2.809173e+15
2.332152e+15
1.828842e+15
1.275748e+15
8.630014e+14
5.021314e+14
5.641675e+14
1.005963e+15
1.395608e+15
1.971635e+15
2.483158e+15
2.993026e+15
3.492099e+15
3.959953e+15
4.39275e+15
4.785951e+15
5.143474e+15
5.451794e+15
5.700264e+15
5.886314e+15
6.009901e+15
6.071481e+15
6.071305e+15
6.00941e+15
5.885608e+15
5.699425e+15
5.450858e+15
5.142419e+15
4.784682e+15
4.391046e+15
3.95736e+15
3.48855e+15
2.989118e+15
2.479502e+15
1.968043e+15
1.392465e+15
1.003123e+15
5.627921e+14
3.764298e+14
7.00649e+14
1.083906e+15
1.589509e+15
2.088263e+15
2.595188e+15
3.125396e+15
3.637447e+15
4.116603e+15
4.557255e+15
4.962595e+15
5.32835e+15
5.639004e+15
5.887123e+15
6.071652e+15
6.193504e+15
6.253933e+15
6.253645e+15
6.192736e+15
6.070667e+15
5.886249e+15
5.638309e+15
5.327775e+15
4.961963e+15
4.556196e+15
4.114604e+15
3.634377e+15
3.121877e+15
2.591692e+15
2.084681e+15
1.585972e+15
1.080859e+15
6.988247e+14
3.754321e+14
4.239022e+14
7.304475e+14
1.116185e+15
1.664246e+15
2.159974e+15
2.668003e+15
3.210107e+15
3.732004e+15
4.219704e+15
4.668428e+15
5.084246e+15
5.454124e+15
5.764972e+15
6.012063e+15
6.195043e+15
6.315411e+15
6.37484e+15
6.374238e+15
6.313819e+15
6.192977e+15
6.010276e+15
5.76403e+15
5.453827e+15
5.08413e+15
4.667912e+15
4.218232e+15
3.729503e+15
3.207147e+15
2.664945e+15
2.156809e+15
1.661034e+15
1.113445e+15
7.286612e+14
4.231334e+14
4.34805e+14
7.421122e+14
1.132023e+15
1.694297e+15
2.193319e+15
2.703537e+15
3.251538e+15
3.778448e+15
4.269139e+15
4.725687e+15
5.147367e+15
5.518364e+15
5.828512e+15
6.074454e+15
6.256609e+15
6.376431e+15
6.435475e+15
6.43471e+15
6.374448e+15
6.254135e+15
6.072334e+15
5.827298e+15
5.517992e+15
5.14734e+15
4.72536e+15
4.268002e+15
3.776475e+15
3.249144e+15
2.701012e+15
2.1907e+15
1.691684e+15
1.129944e+15
7.406649e+14
4.340986e+14
4.348378e+14
7.422351e+14
1.132306e+15
1.694473e+15
2.193475e+15
2.703664e+15
3.25167e+15
3.778704e+15
4.269656e+15
4.726427e+15
5.148182e+15
5.519145e+15
5.829185e+15
6.074984e+15
6.257088e+15
6.376948e+15
6.436074e+15
6.435379e+15
6.375146e+15
6.254827e+15
6.073004e+15
5.82796e+15
5.518677e+15
5.148068e+15
4.726116e+15
4.268749e+15
3.777197e+15
3.249812e+15
2.701643e+15
2.191374e+15
1.692366e+15
1.130531e+15
7.410489e+14
4.342827e+14
4.241858e+14
7.307051e+14
1.116463e+15
1.664572e+15
2.160378e+15
2.668375e+15
3.210491e+15
3.732765e+15
4.221221e+15
4.670542e+15
5.086572e+15
5.45641e+15
5.767072e+15
6.013831e+15
6.196719e+15
6.317216e+15
6.376793e+15
6.376279e+15
6.315877e+15
6.19502e+15
6.012337e+15
5.76618e+15
5.456122e+15
5.086563e+15
4.670387e+15
4.220628e+15
3.73175e+15
3.20914e+15
2.66677e+15
2.158734e+15
1.662937e+15
1.115073e+15
7.297715e+14
4.236997e+14
3.768287e+14
7.005846e+14
1.083883e+15
1.589831e+15
2.088809e+15
2.595816e+15
3.12603e+15
3.638636e+15
4.118887e+15
4.560416e+15
4.966097e+15
5.331932e+15
5.642588e+15
5.890594e+15
6.07492e+15
6.1967e+15
6.257174e+15
6.25697e+15
6.196182e+15
6.074294e+15
5.890137e+15
5.642515e+15
5.332255e+15
4.966565e+15
4.560716e+15
4.118817e+15
3.638192e+15
3.125186e+15
2.59456e+15
2.087588e+15
1.588671e+15
1.083e+15
7.000233e+14
3.764645e+14
5.643445e+14
1.005673e+15
1.396e+15
1.972325e+15
2.484102e+15
2.993924e+15
3.493616e+15
3.962616e+15
4.396453e+15
4.790167e+15
5.14795e+15
5.456322e+15
5.70472e+15
5.890696e+15
6.014311e+15
6.076091e+15
6.076275e+15
6.014857e+15
5.891553e+15
5.705832e+15
5.457611e+15
5.149306e+15
4.791453e+15
4.397503e+15
3.963287e+15
3.493798e+15
2.993615e+15
2.483184e+15
1.971526e+15
1.395268e+15
1.005324e+15
5.639061e+14
5.032231e+14
8.650428e+14
1.278854e+15
1.832917e+15
2.336902e+15
2.814308e+15
3.297797e+15
3.755625e+15
4.17976e+15
4.563954e+15
4.909275e+15
5.210603e+15
5.456648e+15
5.643462e+15
5.768923e+15
5.832157e+15
5.832604e+15
5.770213e+15
5.64544e+15
5.459088e+15
5.213221e+15
4.911778e+15
4.566152e+15
4.18159e+15
3.756946e+15
3.298477e+15
2.814489e+15
2.336326e+15
1.832529e+15
1.278294e+15
8.645199e+14
5.027675e+14
4.497797e+14
7.671353e+14
1.148695e+15
1.651583e+15
2.129873e+15
2.601453e+15
3.059691e+15
3.501036e+15
3.912188e+15
4.28745e+15
4.620154e+15
4.910186e+15
5.149482e+15
5.334465e+15
5.46024e+15
5.524282e+15
5.524718e+15
5.461503e+15
5.336435e+15
5.151991e+15
4.912999e+15
4.622982e+15
4.290048e+15
3.914382e+15
3.50261e+15
3.06055e+15
2.601872e+15
2.129705e+15
1.651536e+15
1.148018e+15
7.66483e+14
4.492494e+14
3.620829e+14
6.556411e+14
1.017787e+15
1.372339e+15
1.867726e+15
2.345353e+15
2.779366e+15
3.199805e+15
3.59821e+15
3.963991e+15
4.288895e+15
4.566296e+15
4.793312e+15
4.97032e+15
5.092045e+15
5.154853e+15
5.155107e+15
5.092777e+15
4.971483e+15
4.79487e+15
4.568162e+15
4.290865e+15
3.965873e+15
3.599811e+15
3.200936e+15
2.779995e+15
2.345831e+15
1.867897e+15
1.372539e+15
1.01678e+15
6.552742e+14
3.617023e+14
4.721518e+14
7.927805e+14
1.16994e+15
1.502425e+15
2.038676e+15
2.479784e+15
2.868258e+15
3.245533e+15
3.599272e+15
3.914634e+15
4.183122e+15
4.40065e+15
4.565559e+15
4.676676e+15
4.733451e+15
4.733503e+15
4.676823e+15
4.56584e+15
4.401163e+15
4.183909e+15
3.915581e+15
3.600251e+15
3.246401e+15
2.868926e+15
2.480275e+15
2.039029e+15
1.502835e+15
1.16973e+15
7.925155e+14
4.718915e+14
3.645159e+14
6.332693e+14
9.151235e+14
1.27978e+15
1.73264e+15
2.141519e+15
2.526266e+15
2.868979e+15
3.201469e+15
3.503925e+15
3.759434e+15
3.967175e+15
4.124156e+15
4.227125e+15
4.276068e+15
4.275953e+15
4.226814e+15
4.123758e+15
3.966863e+15
3.759294e+15
3.503962e+15
3.201602e+15
2.869131e+15
2.52637e+15
2.141514e+15
1.732476e+15
1.279465e+15
9.148278e+14
6.330963e+14
3.645656e+14
4.077859e+14
7.035748e+14
1.054153e+15
1.362346e+15
1.777429e+15
2.141909e+15
2.480953e+15
2.781219e+15
3.062415e+15
3.301405e+15
3.497915e+15
3.643429e+15
3.737846e+15
3.783898e+15
3.7837e+15
3.73733e+15
3.642683e+15
3.497114e+15
3.30072e+15
3.061914e+15
2.780746e+15
2.480547e+15
2.141666e+15
1.777271e+15
1.362274e+15
1.053592e+15
7.032809e+14
4.078169e+14
4.36899e+14
7.606543e+14
1.100887e+15
1.362384e+15
1.733204e+15
2.039886e+15
2.347048e+15
2.603656e+15
2.817273e+15
2.997388e+15
3.129793e+15
3.214377e+15
3.255508e+15
3.255283e+15
3.213888e+15
3.129102e+15
2.996578e+15
2.816473e+15
2.603009e+15
2.346344e+15
2.039216e+15
1.7328e+15
1.362173e+15
1.100586e+15
7.60475e+14
4.368146e+14
4.529926e+14
7.607074e+14
1.054538e+15
1.280385e+15
1.503853e+15
1.869277e+15
2.131551e+15
2.338915e+15
2.486404e+15
2.598328e+15
2.671058e+15
2.706518e+15
2.70625e+15
2.670658e+15
2.597791e+15
2.485782e+15
2.338345e+15
2.130947e+15
1.868507e+15
1.50296e+15
1.280001e+15
1.054295e+15
7.605892e+14
4.529331e+14
4.368112e+14
7.035098e+14
9.157233e+14
1.170685e+15
1.37312e+15
1.65272e+15
1.834336e+15
1.973956e+15
2.090589e+15
2.162259e+15
2.19533e+15
2.195041e+15
2.161759e+15
2.089908e+15
1.973224e+15
1.833822e+15
1.652467e+15