/*--------------------------------*- C++ -*----------------------------------*\
  =========                 |
  \\      /  F ield         | OpenFOAM: The Open Source CFD Toolbox
   \\    /   O peration     | Website:  https://openfoam.org
    \\  /    A nd           | Version:  6
     \\/     M anipulation  |
\*---------------------------------------------------------------------------*/
FoamFile
{
    version     2.0;
    format      ascii;
    class       volScalarField;
    location    "50/region0/neutronTransport";
    object      precursor1.dnp;
}
// * * * * * * * * * * * * * * * * * * * * * * * * * * * * * * * * * * * * * //

dimensions      [0 -3 0 0 0 0 0];

internalField   nonuniform List<scalar> 
203709
(
1.217303e+15
1.339281e+15
1.339132e+15
1.217597e+15
1.272141e+15
1.424126e+15
1.763029e+15
1.744492e+15
1.744297e+15
1.76297e+15
1.424016e+15
1.272263e+15
1.242889e+15
1.429173e+15
1.785975e+15
1.780902e+15
1.831558e+15
1.844199e+15
1.844144e+15
1.831483e+15
1.780758e+15
1.785988e+15
1.429209e+15
1.243087e+15
1.242891e+15
1.735967e+15
1.77303e+15
1.842605e+15
1.878798e+15
1.910612e+15
1.924702e+15
1.92477e+15
1.910564e+15
1.87873e+15
1.842735e+15
1.773268e+15
1.736438e+15
1.243389e+15
1.428929e+15
1.772832e+15
1.852983e+15
1.909876e+15
1.952987e+15
1.984137e+15
1.999649e+15
1.999731e+15
1.98415e+15
1.953094e+15
1.910195e+15
1.853425e+15
1.773444e+15
1.429533e+15
1.271933e+15
1.785628e+15
1.842346e+15
1.909716e+15
1.968334e+15
2.014609e+15
2.046736e+15
2.062696e+15
2.062755e+15
2.046897e+15
2.014946e+15
1.968746e+15
1.910291e+15
1.843131e+15
1.786571e+15
1.272542e+15
1.42366e+15
1.780347e+15
1.878304e+15
1.952577e+15
2.014437e+15
2.062533e+15
2.094604e+15
2.109808e+15
2.109877e+15
2.094885e+15
2.062886e+15
2.014874e+15
1.95324e+15
1.87907e+15
1.781104e+15
1.42436e+15
1.217366e+15
1.762794e+15
1.831178e+15
1.910175e+15
1.983801e+15
2.046498e+15
2.094528e+15
2.124372e+15
2.139167e+15
2.139168e+15
2.124426e+15
2.094525e+15
2.046641e+15
1.984121e+15
1.910654e+15
1.831789e+15
1.763628e+15
1.217607e+15
1.33894e+15
1.744093e+15
1.843743e+15
1.924329e+15
1.99928e+15
2.062341e+15
2.109688e+15
2.139268e+15
2.155386e+15
2.154932e+15
2.13923e+15
2.10981e+15
2.062647e+15
1.999627e+15
1.924749e+15
1.844371e+15
1.744724e+15
1.339392e+15
1.339083e+15
1.744447e+15
1.843926e+15
1.924355e+15
1.999249e+15
2.062266e+15
2.109501e+15
2.139153e+15
2.155722e+15
2.155307e+15
2.139326e+15
2.10985e+15
2.062628e+15
1.999662e+15
1.924774e+15
1.844394e+15
1.744943e+15
1.339624e+15
1.217072e+15
1.763141e+15
1.831356e+15
1.910234e+15
1.983735e+15
2.046318e+15
2.094267e+15
2.124198e+15
2.139196e+15
2.13919e+15
2.124522e+15
2.094739e+15
2.046768e+15
1.984185e+15
1.910664e+15
1.83178e+15
1.763457e+15
1.217675e+15
1.423658e+15
1.780442e+15
1.878356e+15
1.952554e+15
2.014192e+15
2.062191e+15
2.09423e+15
2.109581e+15
2.109533e+15
2.094604e+15
2.062645e+15
2.014693e+15
1.953e+15
1.878755e+15
1.780908e+15
1.424219e+15
1.271899e+15
1.785644e+15
1.842163e+15
1.909451e+15
1.967905e+15
2.014162e+15
2.046179e+15
2.062356e+15
2.062353e+15
2.046579e+15
2.014628e+15
1.968492e+15
1.910053e+15
1.84277e+15
1.786226e+15
1.272333e+15
1.428778e+15
1.772508e+15
1.85259e+15
1.909437e+15
1.952496e+15
1.983732e+15
2.000172e+15
2.000202e+15
1.983955e+15
1.952895e+15
1.909961e+15
1.853228e+15
1.773312e+15
1.429404e+15
1.242745e+15
1.735756e+15
1.772597e+15
1.8422e+15
1.87829e+15
1.910225e+15
1.925165e+15
1.925232e+15
1.910423e+15
1.878629e+15
1.842583e+15
1.773043e+15
1.736327e+15
1.243017e+15
1.242848e+15
1.428917e+15
1.785682e+15
1.780383e+15
1.83134e+15
1.844513e+15
1.844712e+15
1.831524e+15
1.780771e+15
1.78597e+15
1.429032e+15
1.242964e+15
1.272079e+15
1.423831e+15
1.763101e+15
1.745229e+15
1.745517e+15
1.763259e+15
1.423987e+15
1.272107e+15
1.217502e+15
1.339311e+15
1.339429e+15
1.217513e+15
1.020032e+15
1.159444e+15
1.206674e+15
1.23909e+15
1.259365e+15
1.259385e+15
1.239161e+15
1.206778e+15
1.159618e+15
1.020302e+15
1.040392e+15
1.212286e+15
1.544153e+15
1.594572e+15
1.652122e+15
1.715503e+15
1.765677e+15
1.765719e+15
1.715709e+15
1.652171e+15
1.594394e+15
1.543854e+15
1.211959e+15
1.040143e+15
1.064892e+15
1.518665e+15
1.603996e+15
1.727394e+15
1.844451e+15
1.941866e+15
2.067664e+15
2.17145e+15
2.171459e+15
2.06774e+15
1.941521e+15
1.843932e+15
1.727115e+15
1.603858e+15
1.518896e+15
1.065077e+15
1.07542e+15
1.547085e+15
1.68614e+15
1.837932e+15
1.995325e+15
2.219348e+15
2.496783e+15
2.772547e+15
2.871537e+15
2.871483e+15
2.772157e+15
2.496402e+15
2.219137e+15
1.995315e+15
1.83804e+15
1.686325e+15
1.547199e+15
1.075677e+15
1.064845e+15
1.546912e+15
1.703163e+15
1.880992e+15
2.176424e+15
2.532585e+15
2.915795e+15
3.19763e+15
3.407433e+15
3.748122e+15
3.747981e+15
3.407271e+15
3.197321e+15
2.915345e+15
2.53253e+15
2.176331e+15
1.881178e+15
1.703297e+15
1.547046e+15
1.065078e+15
1.040486e+15
1.519091e+15
1.686242e+15
1.881119e+15
2.285494e+15
2.825475e+15
3.196236e+15
3.501195e+15
3.991852e+15
4.211559e+15
4.341196e+15
4.340987e+15
4.211015e+15
3.991118e+15
3.500572e+15
3.195644e+15
2.824872e+15
2.285305e+15
1.881028e+15
1.686353e+15
1.51932e+15
1.040788e+15
1.212087e+15
1.603997e+15
1.838e+15
2.176504e+15
2.825442e+15
3.343709e+15
3.93299e+15
4.259279e+15
4.514192e+15
4.67156e+15
4.751644e+15
4.751424e+15
4.67092e+15
4.513397e+15
4.25851e+15
3.932296e+15
3.343342e+15
2.825436e+15
2.176662e+15
1.838473e+15
1.604607e+15
1.212586e+15
1.020414e+15
1.544153e+15
1.727172e+15
1.995278e+15
2.53249e+15
3.196466e+15
3.932922e+15
4.375893e+15
4.661823e+15
4.859633e+15
4.985257e+15
5.047217e+15
5.047089e+15
4.984877e+15
4.859277e+15
4.661644e+15
4.375982e+15
3.933455e+15
3.197483e+15
2.533773e+15
1.996423e+15
1.72806e+15
1.544661e+15
1.020551e+15
1.15979e+15
1.594964e+15
1.844239e+15
2.219474e+15
2.916396e+15
3.501671e+15
4.259271e+15
4.661716e+15
4.921318e+15
5.096585e+15
5.207474e+15
5.261573e+15
5.261597e+15
5.20756e+15
5.096893e+15
4.921918e+15
4.662698e+15
4.260653e+15
3.503249e+15
2.917942e+15
2.220407e+15
1.845196e+15
1.595414e+15
1.159965e+15
1.206992e+15
1.652667e+15
1.941768e+15
2.496616e+15
3.198521e+15
3.992415e+15
4.514256e+15
4.859491e+15
5.096529e+15
5.259378e+15
5.362861e+15
5.413558e+15
5.413676e+15
5.36326e+15
5.260087e+15
5.097535e+15
4.860792e+15
4.515634e+15
3.993598e+15
3.19911e+15
2.497859e+15
1.942788e+15
1.65296e+15
1.207138e+15
1.239352e+15
1.716159e+15
2.068256e+15
2.7734e+15
3.408689e+15
4.212562e+15
4.671973e+15
4.98535e+15
5.20751e+15
5.362892e+15
5.461758e+15
5.510281e+15
5.510236e+15
5.461784e+15
5.362993e+15
5.207811e+15
4.985928e+15
4.672766e+15
4.213366e+15
3.409299e+15
2.774311e+15
2.068811e+15
1.71648e+15
1.239663e+15
1.259455e+15
1.766023e+15
2.171834e+15
2.872629e+15
3.749701e+15
4.34267e+15
4.75261e+15
5.047722e+15
5.261785e+15
5.413724e+15
5.510631e+15
5.558563e+15
5.558368e+15
5.510749e+15
5.414118e+15
5.262373e+15
5.048411e+15
4.753425e+15
4.343563e+15
3.750612e+15
2.873602e+15
2.172734e+15
1.766681e+15
1.259935e+15
1.259247e+15
1.765706e+15
2.171514e+15
2.872449e+15
3.749831e+15
4.342974e+15
4.753081e+15
5.048083e+15
5.261862e+15
5.413536e+15
5.510482e+15
5.558778e+15
5.558802e+15
5.511226e+15
5.41465e+15
5.262906e+15
5.048912e+15
4.753881e+15
4.34401e+15
3.750999e+15
2.873547e+15
2.172524e+15
1.766502e+15
1.259811e+15
1.238838e+15
1.71573e+15
2.068307e+15
2.773744e+15
3.408824e+15
4.213225e+15
4.67284e+15
4.986053e+15
5.207835e+15
5.362817e+15
5.461573e+15
5.510405e+15
5.510707e+15
5.462641e+15
5.364193e+15
5.209137e+15
4.987208e+15
4.673939e+15
4.214459e+15
3.410188e+15
2.774834e+15
2.069286e+15
1.716668e+15
1.239502e+15
1.206565e+15
1.652495e+15
1.942269e+15
2.497319e+15
3.198902e+15
3.993235e+15
4.515186e+15
4.860202e+15
5.096796e+15
5.259247e+15
5.362524e+15
5.413347e+15
5.413583e+15
5.363477e+15
5.260587e+15
5.098273e+15
4.861671e+15
4.51659e+15
3.994596e+15
3.200283e+15
2.498106e+15
1.94294e+15
1.653488e+15
1.207289e+15
1.159511e+15
1.594935e+15
1.844752e+15
2.219753e+15
2.917199e+15
3.502474e+15
4.260001e+15
4.662126e+15
4.921323e+15
5.096343e+15
5.207162e+15
5.261458e+15
5.26169e+15
5.208095e+15
5.097752e+15
4.923017e+15
4.663911e+15
4.261651e+15
3.503616e+15
2.918058e+15
2.220736e+15
1.845343e+15
1.59583e+15
1.160182e+15
1.020161e+15
1.544215e+15
1.727538e+15
1.99544e+15
2.533163e+15
3.197014e+15
3.933299e+15
4.375968e+15
4.661693e+15
4.859463e+15
4.985313e+15
5.047522e+15
5.047809e+15
4.986277e+15
4.860994e+15
4.663586e+15
4.377999e+15
3.935133e+15
3.198174e+15
2.533973e+15
1.996381e+15
1.728059e+15
1.544927e+15
1.020753e+15
1.212389e+15
1.604113e+15
1.837922e+15
2.176587e+15
2.825664e+15
3.343754e+15
3.933e+15
4.259425e+15
4.514533e+15
4.672378e+15
4.752669e+15
4.753005e+15
4.673354e+15
4.516061e+15
4.261289e+15
3.935015e+15
3.345498e+15
2.826831e+15
2.17744e+15
1.838905e+15
1.604595e+15
1.212486e+15
1.040714e+15
1.518928e+15
1.686154e+15
1.881094e+15
2.285585e+15
2.825622e+15
3.196848e+15
3.502243e+15
3.993131e+15
4.213472e+15
4.343388e+15
4.343782e+15
4.214338e+15
3.99435e+15
3.503467e+15
3.198276e+15
2.827027e+15
2.286541e+15
1.881821e+15
1.686978e+15
1.519434e+15
1.040503e+15
1.065122e+15
1.547445e+15
1.703529e+15
1.881091e+15
2.176563e+15
2.533191e+15
2.917389e+15
3.199522e+15
3.40967e+15
3.750647e+15
3.75103e+15
3.410292e+15
3.200061e+15
2.917797e+15
2.533989e+15
2.177377e+15
1.881724e+15
1.704012e+15
1.54789e+15
1.065153e+15
1.075767e+15
1.547396e+15
1.686396e+15
1.838432e+15
1.995943e+15
2.219818e+15
2.497712e+15
2.774637e+15
2.873712e+15
2.873843e+15
2.774583e+15
2.497862e+15
2.22032e+15
1.996115e+15
1.838564e+15
1.686602e+15
1.547668e+15
1.075888e+15
1.0649e+15
1.519245e+15
1.604444e+15
1.727681e+15
1.844766e+15
1.942733e+15
2.069063e+15
2.172806e+15
2.17281e+15
2.068988e+15
1.942458e+15
1.844865e+15
1.727957e+15
1.604569e+15
1.519257e+15
1.064927e+15
1.040804e+15
1.212502e+15
1.544558e+15
1.595415e+15
1.653201e+15
1.716611e+15
1.766771e+15
1.766794e+15
1.716594e+15
1.653033e+15
1.595235e+15
1.544823e+15
1.212687e+15
1.040816e+15
1.020316e+15
1.15972e+15
1.206871e+15
1.239246e+15
1.259615e+15
1.259607e+15
1.239469e+15
1.207117e+15
1.159885e+15
1.020297e+15
8.644954e+14
9.802262e+14
1.009231e+15
1.020394e+15
1.020173e+15
1.008571e+15
9.790418e+14
8.635492e+14
8.635542e+14
1.035784e+15
1.134291e+15
1.428851e+15
1.482287e+15
1.513561e+15
1.527808e+15
1.527593e+15
1.512875e+15
1.481186e+15
1.428349e+15
1.134028e+15
1.035649e+15
8.63851e+14
9.523767e+14
1.385379e+15
1.518035e+15
1.674e+15
1.844578e+15
1.923789e+15
1.972482e+15
1.995347e+15
1.995165e+15
1.971941e+15
1.922936e+15
1.843684e+15
1.673532e+15
1.517725e+15
1.385252e+15
9.528563e+14
8.924266e+14
1.109218e+15
1.490095e+15
1.771394e+15
2.075082e+15
2.41543e+15
2.58866e+15
2.689591e+15
2.756787e+15
2.791647e+15
2.791446e+15
2.756223e+15
2.688761e+15
2.587732e+15
2.414628e+15
2.074525e+15
1.771365e+15
1.489872e+15
1.109365e+15
8.924655e+14
9.008546e+14
1.358275e+15
1.577054e+15
1.961987e+15
2.459922e+15
2.812913e+15
3.108195e+15
3.574025e+15
3.791652e+15
3.919857e+15
3.983695e+15
3.983542e+15
3.919497e+15
3.791258e+15
3.573865e+15
3.108561e+15
2.813404e+15
2.46011e+15
1.961762e+15
1.577368e+15
1.358233e+15
9.009242e+14
8.923891e+14
1.358548e+15
1.628534e+15
2.041527e+15
2.639923e+15
3.080729e+15
3.680327e+15
4.06826e+15
4.404764e+15
4.654711e+15
4.824263e+15
4.908876e+15
4.908738e+15
4.824009e+15
4.65424e+15
4.404321e+15
4.068147e+15
3.680392e+15
3.080807e+15
2.640138e+15
2.041852e+15
1.628349e+15
1.358383e+15
8.924226e+14
1.10964e+15
1.577525e+15
2.041808e+15
2.682307e+15
3.184848e+15
3.891314e+15
4.409325e+15
4.831596e+15
5.192265e+15
5.483833e+15
5.691799e+15
5.777338e+15
5.777147e+15
5.691241e+15
5.483094e+15
5.19175e+15
4.831533e+15
4.409535e+15
3.891631e+15
3.185115e+15
2.682199e+15
2.041753e+15
1.5775e+15
1.109637e+15
9.532653e+14
1.490316e+15
1.962059e+15
2.64064e+15
3.184912e+15
3.954975e+15
4.568982e+15
5.107987e+15
5.573187e+15
5.966155e+15
6.259473e+15
6.468096e+15
6.588484e+15
6.588225e+15
6.467406e+15
6.258514e+15
5.965237e+15
5.572582e+15
5.107723e+15
4.569144e+15
3.955253e+15
3.185274e+15
2.640595e+15
1.962122e+15
1.490366e+15
9.53036e+14
8.63762e+14
1.385796e+15
1.77182e+15
2.460385e+15
3.082082e+15
3.892533e+15
4.569694e+15
5.207427e+15
5.787756e+15
6.260824e+15
6.650705e+15
6.975845e+15
7.20452e+15
7.328172e+15
7.327823e+15
7.20356e+15
6.974493e+15
6.649294e+15
6.259511e+15
5.786798e+15
5.206989e+15
4.569508e+15
3.892472e+15
3.08202e+15
2.460037e+15
1.772103e+15
1.385777e+15
8.635733e+14
1.036263e+15
1.518657e+15
2.075384e+15
2.814442e+15
3.682096e+15
4.411248e+15
5.109249e+15
5.788313e+15
6.368185e+15
6.880354e+15
7.294589e+15
7.616432e+15
7.832624e+15
7.942929e+15
7.942521e+15
7.831512e+15
7.614922e+15
7.293011e+15
6.87895e+15
6.367269e+15
5.787965e+15
5.109242e+15
4.411483e+15
3.682378e+15
2.814178e+15
2.075967e+15
1.518983e+15
1.036228e+15
1.134659e+15
1.674304e+15
2.415401e+15
3.11042e+15
4.070437e+15
4.833786e+15
5.574678e+15
6.261807e+15
6.880692e+15
7.412216e+15
7.825194e+15
8.129838e+15
8.330373e+15
8.430328e+15
8.430025e+15
8.32957e+15
8.128872e+15
7.824398e+15
7.411863e+15
6.881022e+15
6.262886e+15
5.576199e+15
4.835253e+15
4.07163e+15
3.110861e+15
2.416987e+15
1.675121e+15
1.134858e+15
8.646763e+14
1.429521e+15
1.84458e+15
2.589038e+15
3.57636e+15
4.407228e+15
5.194592e+15
5.968214e+15
6.652205e+15
7.295245e+15
7.825352e+15
8.228451e+15
8.519281e+15
8.708416e+15
8.801814e+15
8.801763e+15
8.708307e+15
8.519376e+15
8.229049e+15
7.826655e+15
7.297337e+15
6.654882e+15
5.971011e+15
5.19692e+15
4.409016e+15
3.577438e+15
2.590817e+15
1.84564e+15
1.429459e+15
8.646307e+14
9.798914e+14
1.482379e+15
1.924211e+15
2.690708e+15
3.794181e+15
4.657411e+15
5.486239e+15
6.261991e+15
6.977883e+15
7.61759e+15
8.130343e+15
8.519527e+15
8.799493e+15
8.981138e+15
9.070787e+15
9.070904e+15
8.981549e+15
8.800428e+15
8.5211e+15
8.132499e+15
7.620023e+15
6.980354e+15
6.26437e+15
5.488589e+15
4.65903e+15
3.795135e+15
2.691877e+15
1.924908e+15
1.482783e+15
9.801556e+14
1.009217e+15
1.513887e+15
1.973247e+15
2.758588e+15
3.922906e+15
4.827512e+15
5.695035e+15
6.471406e+15
7.207458e+15
7.83466e+15
8.331583e+15
8.709164e+15
8.981481e+15
9.158255e+15
9.245455e+15
9.24546e+15
9.158396e+15
8.981875e+15
8.709927e+15
8.332795e+15
7.836243e+15
7.209255e+15
6.473324e+15
5.697001e+15
4.828832e+15
3.923519e+15
2.759137e+15
1.973731e+15
1.514228e+15
1.009352e+15
1.020759e+15
1.528639e+15
1.996555e+15
2.793997e+15
3.987219e+15
4.912541e+15
5.78116e+15
6.592562e+15
7.332174e+15
7.946136e+15
8.43256e+15
8.803217e+15
9.071569e+15
9.246008e+15
9.332192e+15
9.332271e+15
9.24647e+15
9.07241e+15
8.80432e+15
8.433875e+15
7.947722e+15
7.333983e+15
6.59461e+15
5.783233e+15
4.913947e+15
3.987712e+15
2.794187e+15
1.996769e+15
1.528726e+15
1.020838e+15
1.020826e+15
1.528705e+15
1.996607e+15
2.794145e+15
3.987379e+15
4.912828e+15
5.781515e+15
6.592905e+15
7.332673e+15
7.946964e+15
8.433385e+15
8.803598e+15
9.071513e+15
9.245829e+15
9.332235e+15
9.332644e+15
9.24714e+15
9.0733e+15
8.80531e+15
8.434858e+15
7.948631e+15
7.334801e+15
6.59529e+15
5.783731e+15
4.91438e+15
3.988036e+15
2.794276e+15
1.996761e+15
1.528714e+15
1.020887e+15
1.009507e+15
1.514243e+15
1.973515e+15
2.759051e+15
3.923368e+15
4.828535e+15
5.696373e+15
6.472636e+15
7.208949e+15
7.836452e+15
8.333296e+15
8.710326e+15
8.981927e+15
9.158239e+15
9.245539e+15
9.246053e+15
9.159689e+15
8.98381e+15
8.712264e+15
8.33525e+15
7.838594e+15
7.211356e+15
6.475077e+15
5.69848e+15
4.830218e+15
3.924362e+15
2.759223e+15
1.973776e+15
1.514373e+15
1.009636e+15
9.804927e+14
1.482957e+15
1.924674e+15
2.691558e+15
3.794846e+15
4.658772e+15
5.488249e+15
6.264057e+15
6.980103e+15
7.619899e+15
8.132356e+15
8.520887e+15
8.800118e+15
8.98125e+15
9.070814e+15
9.071175e+15
8.982379e+15
8.80182e+15
8.52297e+15
8.134689e+15
7.622378e+15
6.982597e+15
6.266342e+15
5.490059e+15
4.660359e+15
3.795992e+15
2.691541e+15
1.924954e+15
1.483213e+15
9.806576e+14
8.653609e+14
1.429835e+15
1.845502e+15
2.590477e+15
3.576923e+15
4.408508e+15
5.196266e+15
5.970424e+15
6.654553e+15
7.29748e+15
7.827132e+15
8.229628e+15
8.51996e+15
8.708882e+15
8.802398e+15
8.802775e+15
8.710082e+15
8.521878e+15
8.2321e+15
7.829939e+15
7.300332e+15
6.657189e+15
5.972777e+15
5.198347e+15
4.410039e+15
3.578174e+15
2.590105e+15
1.845708e+15
1.430375e+15
8.654706e+14
1.135036e+15
1.675142e+15
2.417083e+15
3.110546e+15
4.071441e+15
4.834794e+15
5.576345e+15
6.26363e+15
6.882305e+15
7.413493e+15
7.826219e+15
8.130833e+15
8.331618e+15
8.431965e+15
8.432478e+15
8.333174e+15
8.133307e+15
7.829383e+15
7.417018e+15
6.885768e+15
6.26667e+15
5.579077e+15
4.837144e+15
4.072897e+15
3.112039e+15
2.41646e+15
1.675153e+15
1.135318e+15
1.036255e+15
1.519071e+15
2.076446e+15
2.814969e+15
3.683032e+15
4.411794e+15
5.110132e+15
5.789464e+15
6.369334e+15
6.881627e+15
7.29624e+15
7.618602e+15
7.835496e+15
7.946391e+15
7.947006e+15
7.837287e+15
7.621413e+15
7.299836e+15
6.885683e+15
6.373348e+15
5.79299e+15
5.113213e+15
4.414191e+15
3.684322e+15
2.81633e+15
2.076389e+15
1.519353e+15
1.03678e+15
8.634907e+14
1.386442e+15
1.772696e+15
2.461119e+15
3.082828e+15
3.89304e+15
4.570402e+15
5.208532e+15
5.789278e+15
6.263042e+15
6.653882e+15
6.97987e+15
7.209483e+15
7.333818e+15
7.334434e+15
7.211151e+15
6.982404e+15
6.657122e+15
6.266854e+15
5.793186e+15
5.212082e+15
4.573445e+15
3.89525e+15
3.083655e+15
2.462289e+15
1.77265e+15
1.386421e+15
8.642647e+14
9.528885e+14
1.490768e+15
1.962801e+15
2.640959e+15
3.18591e+15
3.956147e+15
4.570705e+15
5.110378e+15
5.576475e+15
5.970679e+15
6.264952e+15
6.474439e+15
6.595411e+15
6.59592e+15
6.475723e+15
6.266776e+15
5.973024e+15
5.579361e+15
5.113378e+15
4.573529e+15
3.958651e+15
3.187785e+15
2.642385e+15
1.963459e+15
1.491048e+15
9.532862e+14
1.109736e+15
1.578001e+15
2.042471e+15
2.683316e+15
3.186057e+15
3.89379e+15
4.412755e+15
4.835789e+15
5.197166e+15
5.489688e+15
5.698747e+15
5.784864e+15
5.785153e+15
5.699494e+15
5.490863e+15
5.198796e+15
4.837517e+15
4.414558e+15
3.895613e+15
3.187713e+15
2.684528e+15
2.043159e+15
1.578219e+15
1.10985e+15
8.928894e+14
1.359112e+15
1.629249e+15
2.042578e+15
2.642038e+15
3.083651e+15
3.683707e+15
4.072417e+15
4.409707e+15
4.66046e+15
4.830814e+15
4.915778e+15
4.915921e+15
4.831349e+15
4.661159e+15
4.410611e+15
4.073592e+15
3.685189e+15
3.084886e+15
2.642966e+15
2.043241e+15
1.629586e+15
1.359255e+15
8.928416e+14
9.010774e+14
1.35921e+15
1.578444e+15
1.962992e+15
2.461247e+15
2.814972e+15
3.111442e+15
3.577891e+15
3.79595e+15
3.924729e+15
3.98886e+15
3.988901e+15
3.925312e+15
3.796894e+15
3.578916e+15
3.112256e+15
2.816398e+15
2.462685e+15
1.963893e+15
1.578774e+15
1.359437e+15
9.011697e+14
8.929424e+14
1.110214e+15
1.490866e+15
1.772674e+15
2.076124e+15
2.416738e+15
2.589947e+15
2.691024e+15
2.758846e+15
2.79531e+15
2.79506e+15
2.759738e+15
2.692409e+15
2.591433e+15
2.418131e+15
2.077228e+15
1.773333e+15
1.491356e+15
1.11019e+15
8.930705e+14
9.530944e+14
1.386108e+15
1.51907e+15
1.674942e+15
1.845158e+15
1.924277e+15
1.973252e+15
1.996938e+15
1.996595e+15
1.973605e+15
1.924761e+15
1.845665e+15
1.675228e+15
1.519142e+15
1.386817e+15
9.531266e+14
8.635253e+14
1.036372e+15
1.134849e+15
1.429755e+15
1.482578e+15
1.513924e+15
1.529236e+15
1.5291e+15
1.513904e+15
1.482519e+15
1.429941e+15
1.134839e+15
1.036206e+15
8.639004e+14
8.650312e+14
9.800785e+14
1.009095e+15
1.020826e+15
1.020731e+15
1.008961e+15
9.798126e+14
8.644122e+14
7.672262e+14
8.646799e+14
8.864628e+14
8.862108e+14
8.639044e+14
7.666868e+14
7.374928e+14
9.169602e+14
1.026017e+15
1.150235e+15
1.428752e+15
1.489172e+15
1.512423e+15
1.511853e+15
1.487701e+15
1.427019e+15
1.149855e+15
1.025871e+15
9.166751e+14
7.37574e+14
7.43483e+14
9.625442e+14
1.33678e+15
1.564078e+15
1.763789e+15
2.050226e+15
2.208752e+15
2.274591e+15
2.3067e+15
2.305976e+15
2.272756e+15
2.207012e+15
2.049642e+15
1.763025e+15
1.562896e+15
1.336289e+15
9.62586e+14
7.439227e+14
8.317311e+14
1.291408e+15
1.61621e+15
2.074809e+15
2.342152e+15
2.607045e+15
2.844461e+15
3.239158e+15
3.39123e+15
3.45195e+15
3.451323e+15
3.389577e+15
3.237153e+15
2.842782e+15
2.605171e+15
2.34055e+15
2.072779e+15
1.615958e+15
1.291086e+15
8.322723e+14
8.911755e+14
1.434528e+15
1.865514e+15
2.385647e+15
2.798426e+15
3.366735e+15
3.735617e+15
4.018994e+15
4.256083e+15
4.401727e+15
4.468974e+15
4.468481e+15
4.400395e+15
4.254304e+15
4.017268e+15
3.734207e+15
3.365681e+15
2.797517e+15
2.384215e+15
1.865211e+15
1.434101e+15
8.913486e+14
9.242673e+14
1.551373e+15
2.148597e+15
2.60878e+15
3.063593e+15
3.807324e+15
4.341173e+15
4.762866e+15
5.062419e+15
5.289791e+15
5.437369e+15
5.509052e+15
5.508721e+15
5.436484e+15
5.2886e+15
5.06117e+15
4.761673e+15
4.34022e+15
3.806933e+15
3.063329e+15
2.60781e+15
2.147714e+15
1.550803e+15
9.241065e+14
8.914301e+14
1.551598e+15
2.244215e+15
2.778003e+15
3.532079e+15
4.156202e+15
4.780828e+15
5.302459e+15
5.736082e+15
6.101841e+15
6.370817e+15
6.542663e+15
6.626428e+15
6.626279e+15
6.542329e+15
6.370525e+15
6.101768e+15
5.736224e+15
5.302619e+15
4.780937e+15
4.155935e+15
3.53172e+15
2.777425e+15
2.242652e+15
1.550982e+15
8.912102e+14
8.32169e+14
1.434744e+15
2.149498e+15
2.778178e+15
3.623998e+15
4.365695e+15
5.055167e+15
5.665291e+15
6.236702e+15
6.721838e+15
7.120635e+15
7.415981e+15
7.607729e+15
7.701594e+15
7.701579e+15
7.607794e+15
7.416221e+15
7.12116e+15
6.722634e+15
6.237545e+15
5.665989e+15
5.055545e+15
4.365817e+15
3.623638e+15
2.777567e+15
2.148457e+15
1.434289e+15
8.318967e+14
7.438427e+14
1.291699e+15
1.866728e+15
2.60951e+15
3.532976e+15
4.366371e+15
5.149763e+15
5.846908e+15
6.522713e+15
7.137176e+15
7.655918e+15
8.077443e+15
8.395832e+15
8.604656e+15
8.704094e+15
8.704021e+15
8.604579e+15
8.395983e+15
8.078052e+15
7.65699e+15
7.138464e+15
6.523911e+15
5.84771e+15
5.149968e+15
4.366094e+15
3.532265e+15
2.608722e+15
1.86622e+15
1.291242e+15
7.43569e+14
9.630555e+14
1.617464e+15
2.386059e+15
3.065778e+15
4.15787e+15
5.056737e+15
5.847851e+15
6.615794e+15
7.335327e+15
7.976383e+15
8.521717e+15
8.963054e+15
9.297397e+15
9.522534e+15
9.637534e+15
9.637368e+15
9.522129e+15
9.297022e+15
8.963054e+15
8.522217e+15
7.977298e+15
7.336427e+15
6.616684e+15
5.848281e+15
5.056451e+15
4.157261e+15
3.064961e+15
2.385568e+15
1.616992e+15
9.630029e+14
7.380988e+14
1.337176e+15
2.07506e+15
2.800003e+15
3.810294e+15
4.783578e+15
5.668085e+15
6.524998e+15
7.336645e+15
8.081381e+15
8.742515e+15
9.306502e+15
9.767502e+15
1.012658e+16
1.037315e+16
1.050002e+16
1.049969e+16
1.037225e+16
1.012545e+16
9.76655e+15
9.305937e+15
8.742463e+15
8.081725e+15
7.337031e+15
6.525163e+15
5.667852e+15
4.782957e+15
3.809478e+15
2.79839e+15
2.074729e+15
1.336921e+15
7.384985e+14
9.168737e+14
1.564325e+15
2.342806e+15
3.369698e+15
4.344593e+15
5.306317e+15
6.240631e+15
7.140787e+15
7.979049e+15
8.74391e+15
9.421864e+15
1.001251e+16
1.049931e+16
1.087509e+16
1.113e+16
1.125915e+16
1.125867e+16
1.112869e+16
1.087337e+16
1.049767e+16
1.00113e+16
9.42132e+15
8.744002e+15
7.979466e+15
7.141281e+15
6.240878e+15
5.306026e+15
4.344093e+15
3.3681e+15
2.341715e+15
1.56395e+15
9.171095e+14
1.026512e+15
1.764838e+15
2.609149e+15
3.739661e+15
4.766888e+15
5.741061e+15
6.726871e+15
7.660574e+15
8.52542e+15
9.309011e+15
1.001358e+16
1.062845e+16
1.113029e+16
1.151088e+16
1.176592e+16
1.189377e+16
1.189335e+16
1.176481e+16
1.150954e+16
1.112925e+16
1.062815e+16
1.001422e+16
9.310556e+15
8.527487e+15
7.662575e+15
6.728307e+15
5.741594e+15
4.76695e+15
3.73813e+15
2.607315e+15
1.763527e+15
1.025939e+15
1.151173e+15
2.053127e+15
2.848473e+15
4.023959e+15
5.067508e+15
6.107694e+15
7.126475e+15
8.082764e+15
8.967547e+15
9.77087e+15
1.050117e+16
1.113094e+16
1.16385e+16
1.201857e+16
1.227101e+16
1.23969e+16
1.239679e+16
1.227076e+16
1.201857e+16
1.163931e+16
1.113292e+16
1.050438e+16
9.774889e+15
8.971677e+15
8.086307e+15
7.128994e+15
6.108968e+15
5.067865e+15
4.022543e+15
2.845961e+15
2.050084e+15
1.149903e+15
7.679198e+14
1.42961e+15
2.212025e+15
3.244053e+15
4.261809e+15
5.295939e+15
6.377455e+15
7.422349e+15
8.401614e+15
9.302654e+15
1.013093e+16
1.087794e+16
1.151238e+16
1.201924e+16
1.239642e+16
1.264599e+16
1.277025e+16
1.277039e+16
1.264651e+16
1.239774e+16
1.202166e+16
1.151578e+16
1.088191e+16
1.013513e+16
9.306766e+15
8.405186e+15
7.424746e+15
6.378418e+15
5.295848e+15
4.260178e+15
3.241187e+15
2.20894e+15
1.427991e+15
7.670055e+14
8.647291e+14
1.490295e+15
2.277708e+15
3.396381e+15
4.408012e+15
5.44444e+15
6.550144e+15
7.614773e+15
8.611185e+15
9.528905e+15
1.037889e+16
1.113435e+16
1.176874e+16
1.227277e+16
1.264682e+16
1.289397e+16
1.301692e+16
1.301702e+16
1.289438e+16
1.264772e+16
1.227433e+16
1.177106e+16
1.113729e+16
1.038225e+16
9.532435e+15
8.614429e+15
7.616757e+15
6.550442e+15
5.443616e+15
4.406152e+15
3.393736e+15
2.275185e+15
1.48883e+15
8.644492e+14
8.869257e+14
1.513997e+15
2.309849e+15
3.457494e+15
4.47592e+15
5.516927e+15
6.634695e+15
7.709422e+15
8.711438e+15
9.644996e+15
1.050734e+16
1.126532e+16
1.189829e+16
1.23999e+16
1.277188e+16
1.301766e+16
1.314004e+16
1.314031e+16
1.301852e+16
1.277328e+16
1.240174e+16
1.190062e+16
1.126816e+16
1.051064e+16
9.648684e+15
8.71485e+15
7.711387e+15
6.634807e+15
5.515773e+15
4.473986e+15
3.455269e+15
2.308265e+15
1.513065e+15
8.86709e+14
8.869603e+14
1.51417e+15
2.310265e+15
3.457627e+15
4.476066e+15
5.517154e+15
6.63508e+15
7.710072e+15
8.712189e+15
9.645647e+15
1.050807e+16
1.126647e+16
1.189963e+16
1.240065e+16
1.2772e+16
1.301746e+16
1.313991e+16
1.314053e+16
1.301918e+16
1.277432e+16
1.240302e+16
1.190197e+16
1.126945e+16
1.051179e+16
9.649719e+15
8.715848e+15
7.712411e+15
6.635762e+15
5.516586e+15
4.474757e+15
3.455976e+15
2.308884e+15
1.513522e+15
8.870103e+14
8.652198e+14
1.490607e+15
2.277818e+15
3.396391e+15
4.408305e+15
5.44504e+15
6.551137e+15
7.616563e+15
8.613335e+15
9.530989e+15
1.03812e+16
1.113707e+16
1.177154e+16
1.227492e+16
1.264793e+16
1.289418e+16
1.301689e+16
1.301743e+16
1.289566e+16
1.264995e+16
1.227729e+16
1.17744e+16
1.114061e+16
1.038525e+16
9.535062e+15
8.616903e+15
7.619226e+15
6.55265e+15
5.445516e+15
4.408282e+15
3.395982e+15
2.2773e+15
1.490441e+15
8.653432e+14
7.686098e+14
1.429176e+15
2.211303e+15
3.243721e+15
4.262024e+15
5.296773e+15
6.378737e+15
7.424614e+15
8.404591e+15
9.305935e+15
1.013444e+16
1.088166e+16
1.151588e+16
1.202198e+16
1.239812e+16
1.264682e+16
1.277069e+16
1.2771e+16
1.264778e+16
1.239976e+16
1.202437e+16
1.151906e+16
1.088551e+16
1.013859e+16
9.309807e+15
8.407885e+15
7.42732e+15
6.380714e+15
5.297904e+15
4.263049e+15
3.244456e+15
2.211863e+15
1.429668e+15
7.687928e+14
1.151207e+15
2.051734e+15
2.848144e+15
4.024147e+15
5.068545e+15
6.108938e+15
7.128585e+15
8.085618e+15
8.971052e+15
9.774747e+15
1.050509e+16
1.113444e+16
1.164128e+16
1.202064e+16
1.227272e+16
1.239867e+16
1.239907e+16
1.227395e+16
1.202275e+16
1.164429e+16
1.113824e+16
1.050937e+16
9.779105e+15
8.975092e+15
8.089114e+15
7.131448e+15
6.111228e+15
5.069912e+15
4.025712e+15
2.849319e+15
2.053132e+15
1.151557e+15
1.026553e+15
1.764811e+15
2.609146e+15
3.739606e+15
4.767939e+15
5.742077e+15
6.728634e+15
7.66284e+15
8.52833e+15
9.312345e+15
1.001692e+16
1.063154e+16
1.113316e+16
1.151379e+16
1.176921e+16
1.189776e+16
1.189844e+16
1.177122e+16
1.151706e+16
1.113751e+16
1.063662e+16
1.002222e+16
9.317414e+15
8.53299e+15
7.66685e+15
6.731846e+15
5.744799e+15
4.76947e+15
3.741483e+15
2.610209e+15
1.765371e+15
1.026637e+15
9.175989e+14
1.565142e+15
2.343663e+15
3.369619e+15
4.345316e+15
5.307363e+15
6.242215e+15
7.142603e+15
7.981326e+15
8.746642e+15
9.424904e+15
1.001598e+16
1.050346e+16
1.088014e+16
1.113616e+16
1.126647e+16
1.126734e+16
1.113873e+16
1.088425e+16
1.050884e+16
1.002219e+16
9.431315e+15
8.752647e+15
7.986698e+15
7.14711e+15
6.245753e+15
5.310412e+15
4.347326e+15
3.371696e+15
2.344011e+15
1.565065e+15
9.173141e+14
7.38743e+14
1.337801e+15
2.076711e+15
2.799989e+15
3.810432e+15
4.78449e+15
5.669481e+15
6.52669e+15
7.338847e+15
8.08438e+15
8.746494e+15
9.3117e+15
9.77417e+15
1.013473e+16
1.038272e+16
1.051083e+16
1.051167e+16
1.038517e+16
1.013863e+16
9.779325e+15
9.317779e+15
8.752912e+15
8.090589e+15
7.344491e+15
6.531424e+15
5.673225e+15
4.787841e+15
3.812898e+15
2.802062e+15
2.075965e+15
1.337938e+15
7.385109e+14
9.634072e+14
1.617709e+15
2.387196e+15
3.065348e+15
4.158932e+15
5.058179e+15
5.849929e+15
6.618758e+15
7.339542e+15
7.982048e+15
8.528983e+15
8.972083e+15
9.308049e+15
9.534573e+15
9.650605e+15
9.651267e+15
9.536464e+15
9.31103e+15
8.976075e+15
8.533794e+15
7.987254e+15
7.34479e+15
6.623778e+15
5.854411e+15
5.062007e+15
4.161985e+15
3.067883e+15
2.388081e+15
1.618065e+15
9.634373e+14
7.438629e+14
1.292344e+15
1.86744e+15
2.611326e+15
3.534894e+15
4.36847e+15
5.152601e+15
5.850847e+15
6.528167e+15
7.144247e+15
7.664632e+15
8.087778e+15
8.407675e+15
8.617757e+15
8.717996e+15
8.718437e+15
8.619056e+15
8.40977e+15
8.090632e+15
7.668091e+15
7.1481e+15
6.532188e+15
5.854783e+15
5.156096e+15
4.371203e+15
3.53665e+15
2.612088e+15
1.867757e+15
1.292594e+15
7.443076e+14
8.321834e+14
1.435853e+15
2.151197e+15
2.779721e+15
3.626047e+15
4.368872e+15
5.059644e+15
5.671253e+15
6.244007e+15
6.730752e+15
7.131113e+15
7.427795e+15
7.620601e+15
7.715045e+15
7.715328e+15
7.621547e+15
7.429341e+15
7.133232e+15
6.733465e+15
6.247155e+15
5.674406e+15
5.06257e+15
4.371496e+15
3.628096e+15
2.78116e+15
2.151119e+15
1.435882e+15
8.325735e+14
8.916104e+14
1.552308e+15
2.246377e+15
2.779495e+15
3.535378e+15
4.160281e+15
4.786103e+15
5.308884e+15
5.744037e+15
6.111137e+15
6.381236e+15
6.55407e+15
6.638465e+15
6.638618e+15
6.554883e+15
6.38269e+15
6.113097e+15
5.746442e+15
5.311597e+15
4.78853e+15
4.162205e+15
3.537136e+15
2.780837e+15
2.246988e+15
1.55265e+15
8.91737e+14
9.244189e+14
1.552242e+15
2.151519e+15
2.611852e+15
3.067281e+15
3.812143e+15
4.346695e+15
4.769282e+15
5.070001e+15
5.298409e+15
5.447053e+15
5.519797e+15
5.519737e+15
5.447695e+15
5.299646e+15
5.07169e+15
4.771411e+15
4.348629e+15
3.813466e+15
3.067649e+15
2.612776e+15
2.152276e+15
1.552751e+15
9.245984e+14
8.913279e+14
1.435387e+15
1.868102e+15
2.387952e+15
2.800619e+15
3.370687e+15
3.740924e+15
4.025676e+15
4.263691e+15
4.410099e+15
4.477846e+15
4.477594e+15
4.410091e+15
4.263904e+15
4.026155e+15