/*--------------------------------*- C++ -*----------------------------------*\
  =========                 |
  \\      /  F ield         | OpenFOAM: The Open Source CFD Toolbox
   \\    /   O peration     | Website:  https://openfoam.org
    \\  /    A nd           | Version:  6
     \\/     M anipulation  |
\*---------------------------------------------------------------------------*/
FoamFile
{
    version     2.0;
    format      ascii;
    class       volScalarField;
    location    "50/region0/neutronTransport";
    object      precursor1.dnp;
}
// * * * * * * * * * * * * * * * * * * * * * * * * * * * * * * * * * * * * * //

dimensions      [0 -3 0 0 0 0 0];

internalField   nonuniform List<scalar> 
203709
(
1.236647e+15
1.360511e+15
1.360316e+15
1.236853e+15
1.292527e+15
1.446859e+15
1.791068e+15
1.772191e+15
1.771934e+15
1.790847e+15
1.446521e+15
1.292404e+15
1.262917e+15
1.452082e+15
1.814499e+15
1.8093e+15
1.860717e+15
1.873513e+15
1.873403e+15
1.860494e+15
1.808907e+15
1.814177e+15
1.451766e+15
1.262666e+15
1.263104e+15
1.763887e+15
1.801484e+15
1.87212e+15
1.908802e+15
1.941064e+15
1.95532e+15
1.955328e+15
1.94084e+15
1.908433e+15
1.871802e+15
1.80116e+15
1.76364e+15
1.262906e+15
1.452247e+15
1.801546e+15
1.882893e+15
1.940605e+15
1.984297e+15
2.015858e+15
2.031541e+15
2.03155e+15
2.015633e+15
1.983987e+15
1.940307e+15
1.882524e+15
1.80116e+15
1.451895e+15
1.292876e+15
1.814753e+15
1.872326e+15
1.940685e+15
2.000136e+15
2.047042e+15
2.079565e+15
2.095671e+15
2.095642e+15
2.079443e+15
2.046871e+15
1.999797e+15
1.940267e+15
1.871911e+15
1.814355e+15
1.292493e+15
1.447136e+15
1.809551e+15
1.909062e+15
1.984475e+15
2.04724e+15
2.095985e+15
2.12839e+15
2.143663e+15
2.143606e+15
2.128285e+15
2.0957e+15
2.046846e+15
1.984164e+15
1.90877e+15
1.809213e+15
1.446861e+15
1.237573e+15
1.791777e+15
1.86132e+15
1.941607e+15
2.016416e+15
2.080117e+15
2.128815e+15
2.158963e+15
2.173803e+15
2.173654e+15
2.158604e+15
2.128214e+15
2.07956e+15
2.016003e+15
1.941284e+15
1.861053e+15
1.791671e+15
1.236977e+15
1.361178e+15
1.772859e+15
1.874155e+15
1.956088e+15
2.032273e+15
2.096343e+15
2.144346e+15
2.174216e+15
2.190388e+15
2.189759e+15
2.173701e+15
2.14377e+15
2.095846e+15
2.031812e+15
1.955701e+15
1.873967e+15
1.772631e+15
1.360776e+15
1.361418e+15
1.773333e+15
1.874421e+15
1.956156e+15
2.032334e+15
2.096431e+15
2.144361e+15
2.174274e+15
2.190849e+15
2.190215e+15
2.173853e+15
2.143852e+15
2.095861e+15
2.031884e+15
1.955777e+15
1.874062e+15
1.77294e+15
1.361101e+15
1.237487e+15
1.792447e+15
1.861792e+15
1.94199e+15
2.016738e+15
2.080355e+15
2.129025e+15
2.159285e+15
2.174288e+15
2.174034e+15
2.158949e+15
2.128592e+15
2.079817e+15
2.016219e+15
1.941498e+15
1.861303e+15
1.791792e+15
1.237276e+15
1.447549e+15
1.81018e+15
1.909757e+15
1.985201e+15
2.047821e+15
2.096521e+15
2.128951e+15
2.144385e+15
2.144153e+15
2.128805e+15
2.096186e+15
2.047367e+15
1.984627e+15
1.909151e+15
1.809684e+15
1.447243e+15
1.293367e+15
1.815569e+15
1.873071e+15
1.941463e+15
2.000833e+15
2.047771e+15
2.080214e+15
2.096545e+15
2.09642e+15
2.080255e+15
2.047646e+15
2.000631e+15
1.941141e+15
1.872688e+15
1.815142e+15
1.292971e+15
1.452903e+15
1.802304e+15
1.883702e+15
1.941459e+15
1.985181e+15
2.016872e+15
2.033511e+15
2.033452e+15
2.016831e+15
1.985137e+15
1.941368e+15
1.883583e+15
1.802248e+15
1.452704e+15
1.263817e+15
1.764971e+15
1.802452e+15
1.873217e+15
1.909888e+15
1.942319e+15
1.957449e+15
1.957438e+15
1.942285e+15
1.909852e+15
1.873089e+15
1.802279e+15
1.764814e+15
1.263373e+15
1.263983e+15
1.453161e+15
1.815918e+15
1.810504e+15
1.862287e+15
1.875622e+15
1.875746e+15
1.862249e+15
1.810549e+15
1.815739e+15
1.452779e+15
1.263539e+15
1.293719e+15
1.448006e+15
1.79303e+15
1.774793e+15
1.775021e+15
1.793004e+15
1.447931e+15
1.293446e+15
1.238192e+15
1.362049e+15
1.362142e+15
1.238132e+15
1.036081e+15
1.17764e+15
1.225596e+15
1.258502e+15
1.279063e+15
1.27903e+15
1.258408e+15
1.225407e+15
1.177384e+15
1.035895e+15
1.056914e+15
1.23147e+15
1.568438e+15
1.61963e+15
1.678051e+15
1.742383e+15
1.793278e+15
1.793232e+15
1.742322e+15
1.677636e+15
1.618755e+15
1.56721e+15
1.230345e+15
1.055929e+15
1.081932e+15
1.542814e+15
1.629473e+15
1.754734e+15
1.873584e+15
1.972479e+15
2.100174e+15
2.205477e+15
2.205369e+15
2.099918e+15
1.971607e+15
1.872301e+15
1.753497e+15
1.628165e+15
1.541717e+15
1.081269e+15
1.092754e+15
1.571877e+15
1.713102e+15
1.867283e+15
2.02709e+15
2.254577e+15
2.536275e+15
2.816217e+15
2.916594e+15
2.916355e+15
2.815307e+15
2.535122e+15
2.253452e+15
2.026046e+15
1.866165e+15
1.711967e+15
1.570564e+15
1.092135e+15
1.082107e+15
1.57183e+15
1.730542e+15
1.911149e+15
2.211223e+15
2.572945e+15
2.962084e+15
3.248288e+15
3.4613e+15
3.807161e+15
3.806797e+15
3.460514e+15
3.247075e+15
2.960523e+15
2.571622e+15
2.209844e+15
1.910076e+15
1.729345e+15
1.570604e+15
1.081449e+15
1.057439e+15
1.543648e+15
1.713402e+15
1.911336e+15
2.322007e+15
2.87024e+15
3.246802e+15
3.556585e+15
4.054911e+15
4.27803e+15
4.409604e+15
4.409255e+15
4.27703e+15
4.053448e+15
3.555024e+15
3.245141e+15
2.86852e+15
2.320562e+15
1.910035e+15
1.712264e+15
1.542536e+15
1.056779e+15
1.231862e+15
1.629941e+15
1.867629e+15
2.211437e+15
2.870302e+15
3.396553e+15
3.994958e+15
4.326326e+15
4.585194e+15
4.745027e+15
4.826351e+15
4.826073e+15
4.744175e+15
4.584023e+15
4.324939e+15
3.9934e+15
3.395118e+15
2.869124e+15
2.210394e+15
1.866897e+15
1.629298e+15
1.231261e+15
1.037255e+15
1.569374e+15
1.755211e+15
2.027614e+15
2.573263e+15
3.247447e+15
3.995273e+15
4.445023e+15
4.735285e+15
4.936068e+15
5.063587e+15
5.126485e+15
5.126316e+15
5.063033e+15
4.935302e+15
4.734358e+15
4.443963e+15
3.994254e+15
3.246655e+15
2.572755e+15
2.027161e+15
1.754576e+15
1.568244e+15
1.036251e+15
1.179019e+15
1.621213e+15
1.874377e+15
2.255581e+15
2.963349e+15
3.557731e+15
4.327114e+15
4.735702e+15
4.999168e+15
5.176969e+15
5.289372e+15
5.344132e+15
5.344025e+15
5.28903e+15
5.176437e+15
4.998417e+15
4.734758e+15
4.326056e+15
3.556724e+15
2.962464e+15
2.254536e+15
1.873566e+15
1.619865e+15
1.177798e+15
1.227078e+15
1.680045e+15
1.973713e+15
2.537306e+15
3.250117e+15
4.056523e+15
4.58656e+15
4.937171e+15
5.17779e+15
5.342939e+15
5.447555e+15
5.498556e+15
5.498336e+15
5.446964e+15
5.342048e+15
5.176842e+15
4.936283e+15
4.585685e+15
4.055507e+15
3.24872e+15
2.536771e+15
1.973069e+15
1.678617e+15
1.225861e+15
1.260015e+15
1.74468e+15
2.102413e+15
2.818592e+15
3.463773e+15
4.280364e+15
4.74711e+15
5.0656e+15
5.29145e+15
5.449026e+15
5.548829e+15
5.5974e+15
5.596816e+15
5.547386e+15
5.447102e+15
5.289659e+15
5.064433e+15
4.746392e+15
4.279725e+15
3.462923e+15
2.817929e+15
2.101353e+15
1.743389e+15
1.259054e+15
1.280486e+15
1.795414e+15
2.207806e+15
2.919605e+15
3.810422e+15
4.412649e+15
4.829181e+15
5.129187e+15
5.346845e+15
5.501012e+15
5.598837e+15
5.646701e+15
5.645771e+15
5.596977e+15
5.498752e+15
5.344805e+15
5.127762e+15
4.828381e+15
4.4122e+15
3.809934e+15
2.919042e+15
2.207128e+15
1.794584e+15
1.279788e+15
1.280305e+15
1.795122e+15
2.207559e+15
2.91959e+15
3.810816e+15
4.413177e+15
4.829694e+15
5.129631e+15
5.347201e+15
5.5013e+15
5.599197e+15
5.64732e+15
5.646439e+15
5.59752e+15
5.499222e+15
5.345204e+15
5.128132e+15
4.828774e+15
4.412681e+15
3.810432e+15
2.919123e+15
2.207047e+15
1.794524e+15
1.279759e+15
1.259584e+15
1.744349e+15
2.102722e+15
2.819413e+15
3.464608e+15
4.28172e+15
4.748623e+15
5.06702e+15
5.292581e+15
5.450077e+15
5.550057e+15
5.59893e+15
5.59836e+15
5.548829e+15
5.448464e+15
5.290933e+15
5.065698e+15
4.747765e+15
4.281265e+15
3.464411e+15
2.818968e+15
2.102267e+15
1.743957e+15
1.259176e+15
1.226793e+15
1.680094e+15
1.974685e+15
2.538744e+15
3.251468e+15
4.058525e+15
4.588906e+15
4.939613e+15
5.180098e+15
5.345097e+15
5.449777e+15
5.500986e+15
5.500692e+15
5.44926e+15
5.344329e+15
5.17923e+15
4.938863e+15
4.588427e+15
4.058288e+15
3.251405e+15
2.53814e+15
1.974055e+15
1.679849e+15
1.226495e+15
1.17897e+15
1.621595e+15
1.875593e+15
2.256758e+15
2.965373e+15
3.560126e+15
4.329974e+15
4.738659e+15
5.002047e+15
5.179833e+15
5.292325e+15
5.347333e+15
5.347351e+15
5.292626e+15
5.180211e+15
5.002395e+15
4.738936e+15
4.33014e+15
3.559959e+15
2.964989e+15
2.25658e+15
1.875047e+15
1.62138e+15
1.178696e+15
1.037319e+15
1.570027e+15
1.756466e+15
2.028845e+15
2.575357e+15
3.24989e+15
3.998183e+15
4.448104e+15
4.738544e+15
4.939607e+15
5.067566e+15
5.130803e+15
5.131038e+15
5.068357e+15
4.9408e+15
4.739892e+15
4.449375e+15
3.999087e+15
3.250003e+15
2.575142e+15
2.028808e+15
1.756021e+15
1.569772e+15
1.037112e+15
1.232759e+15
1.631003e+15
1.868749e+15
2.213029e+15
2.872725e+15
3.399353e+15
3.998438e+15
4.330414e+15
4.589886e+15
4.750444e+15
4.832092e+15
4.83237e+15
4.751246e+15
4.591107e+15
4.331832e+15
3.999889e+15
3.400439e+15
2.873076e+15
2.213085e+15
1.868937e+15
1.630689e+15
1.232103e+15
1.058245e+15
1.544446e+15
1.714546e+15
1.912832e+15
2.324136e+15
2.87328e+15
3.250824e+15
3.561434e+15
4.06064e+15
4.284715e+15
4.416771e+15
4.417051e+15
4.285236e+15
4.061312e+15
3.561955e+15
3.251461e+15
2.873832e+15
2.324326e+15
1.912835e+15
1.714688e+15
1.544279e+15
1.05741e+15
1.083104e+15
1.573588e+15
1.732409e+15
1.91305e+15
2.213569e+15
2.576298e+15
2.967056e+15
3.254008e+15
3.467753e+15
3.814458e+15
3.814716e+15
3.468003e+15
3.254034e+15
2.966809e+15
2.576407e+15
2.213681e+15
1.913021e+15
1.732276e+15
1.573473e+15
1.082659e+15
1.093956e+15
1.573605e+15
1.715042e+15
1.869713e+15
2.029952e+15
2.257684e+15
2.540371e+15
2.822035e+15
2.922773e+15
2.922818e+15
2.821726e+15
2.540144e+15
2.25776e+15
2.029675e+15
1.869383e+15
1.714807e+15
1.573456e+15
1.093728e+15
1.082868e+15
1.544982e+15
1.631696e+15
1.757125e+15
1.87627e+15
1.975941e+15
2.104448e+15
2.209944e+15
2.209882e+15
2.104194e+15
1.975415e+15
1.876079e+15
1.757112e+15
1.631552e+15
1.544708e+15
1.082697e+15
1.058391e+15
1.233066e+15
1.570908e+15
1.622694e+15
1.681512e+15
1.746017e+15
1.797009e+15
1.796979e+15
1.745853e+15
1.681129e+15
1.622265e+15
1.570911e+15
1.233092e+15
1.058255e+15
1.037681e+15
1.179536e+15
1.227539e+15
1.260482e+15
1.281188e+15
1.281152e+15
1.260625e+15
1.227663e+15
1.179557e+15
1.037553e+15
8.779158e+14
9.95407e+14
1.024859e+15
1.036175e+15
1.035903e+15
1.024041e+15
9.939521e+14
8.766501e+14
8.770341e+14
1.051886e+15
1.151891e+15
1.450928e+15
1.505191e+15
1.536944e+15
1.551375e+15
1.551066e+15
1.535961e+15
1.503562e+15
1.449666e+15
1.150988e+15
1.05106e+15
8.767189e+14
9.673227e+14
1.407025e+15
1.54169e+15
1.699982e+15
1.873135e+15
1.953546e+15
2.002965e+15
2.026121e+15
2.025803e+15
2.001991e+15
1.951923e+15
1.871129e+15
1.698241e+15
1.540057e+15
1.405512e+15
9.670362e+14
9.065366e+14
1.126739e+15
1.513545e+15
1.799201e+15
2.107474e+15
2.452923e+15
2.628684e+15
2.731094e+15
2.799245e+15
2.834506e+15
2.834057e+15
2.797903e+15
2.728883e+15
2.625739e+15
2.449664e+15
2.104727e+15
1.797204e+15
1.51167e+15
1.125796e+15
9.057344e+14
9.151905e+14
1.379827e+15
1.602098e+15
1.99301e+15
2.498634e+15
2.85695e+15
3.156597e+15
3.629509e+15
3.850356e+15
3.980357e+15
4.044909e+15
4.044351e+15
3.978746e+15
3.847817e+15
3.626346e+15
3.153618e+15
2.853805e+15
2.495344e+15
1.990216e+15
1.600467e+15
1.378118e+15
9.143552e+14
9.066615e+14
1.380231e+15
1.654555e+15
2.074095e+15
2.681829e+15
3.129366e+15
3.738232e+15
4.131995e+15
4.473589e+15
4.727232e+15
4.899148e+15
4.984683e+15
4.984019e+15
4.897303e+15
4.724116e+15
4.46949e+15
4.127439e+15
3.733361e+15
3.124866e+15
2.677831e+15
2.07148e+15
1.652188e+15
1.378276e+15
9.056756e+14
1.127477e+15
1.602873e+15
2.074589e+15
2.725231e+15
3.23554e+15
3.952996e+15
4.479049e+15
4.907768e+15
5.273949e+15
5.56988e+15
5.780779e+15
5.867181e+15
5.866375e+15
5.778384e+15
5.566162e+15
5.269393e+15
4.902757e+15
4.473689e+15
3.94768e+15
3.230793e+15
2.720681e+15
2.071481e+15
1.600691e+15
1.126109e+15
9.686775e+14
1.514354e+15
1.993717e+15
2.683139e+15
3.235934e+15
4.018029e+15
4.64154e+15
5.188925e+15
5.661321e+15
6.060367e+15
6.358147e+15
6.569774e+15
6.691599e+15
6.690734e+15
6.567269e+15
6.354281e+15
6.055571e+15
5.65594e+15
5.183224e+15
4.635998e+15
4.012716e+15
3.23147e+15
2.679026e+15
1.990961e+15
1.51236e+15
9.673005e+14
8.777728e+14
1.408217e+15
1.800537e+15
2.500179e+15
3.131699e+15
3.954819e+15
4.642402e+15
5.289905e+15
5.879182e+15
6.359609e+15
6.755615e+15
7.085831e+15
7.317977e+15
7.443285e+15
7.442493e+15
7.315666e+15
7.082289e+15
6.751219e+15
6.354563e+15
5.873864e+15
5.284645e+15
4.637187e+15
3.949859e+15
3.127419e+15
2.496294e+15
1.798433e+15
1.406368e+15
8.765618e+14
1.053132e+15
1.543372e+15
2.109159e+15
2.860071e+15
3.741332e+15
4.481594e+15
5.19022e+15
5.879611e+15
6.468384e+15
6.988491e+15
7.409219e+15
7.736128e+15
7.955726e+15
8.067685e+15
8.067034e+15
7.953876e+15
7.733402e+15
7.405854e+15
6.984683e+15
6.464443e+15
5.875719e+15
5.186299e+15
4.477669e+15
3.737325e+15
2.856082e+15
2.107e+15
1.541773e+15
1.05185e+15
1.153217e+15
1.701659e+15
2.454817e+15
3.160929e+15
4.135977e+15
4.910851e+15
5.663051e+15
6.36068e+15
6.989053e+15
7.528748e+15
7.948086e+15
8.257452e+15
8.46113e+15
8.562655e+15
8.562263e+15
8.459993e+15
8.255766e+15
7.946024e+15
7.526483e+15
6.986774e+15
6.358438e+15
5.660582e+15
4.90788e+15
4.132416e+15
3.157131e+15
2.452912e+15
1.700277e+15
1.152025e+15
8.789067e+14
1.452897e+15
1.874807e+15
2.631428e+15
3.634689e+15
4.478569e+15
5.277805e+15
6.063213e+15
6.757715e+15
7.410643e+15
7.948844e+15
8.358018e+15
8.653168e+15
8.845059e+15
8.939722e+15
8.939485e+15
8.844371e+15
8.652143e+15
8.356725e+15
7.947321e+15
7.408932e+15
6.755817e+15
6.061024e+15
5.274959e+15
4.474965e+15
3.630727e+15
2.629349e+15
1.873361e+15
1.450955e+15
8.777786e+14
9.960531e+14
1.506717e+15
1.955831e+15
2.734851e+15
3.856382e+15
4.733339e+15
5.574693e+15
6.36207e+15
7.08899e+15
7.73867e+15
8.259399e+15
8.654493e+15
8.938517e+15
9.122319e+15
9.212653e+15
9.212232e+15
9.121177e+15
8.936963e+15
8.653021e+15
8.258098e+15
7.737489e+15
7.087738e+15
6.360495e+15
5.572644e+15
4.730129e+15
3.852752e+15
2.732543e+15
1.954103e+15
1.505245e+15
9.950641e+14
1.025932e+15
1.538824e+15
2.005737e+15
2.803877e+15
3.987335e+15
4.906653e+15
5.787349e+15
6.575207e+15
7.322485e+15
7.959555e+15
8.464598e+15
8.848494e+15
9.124731e+15
9.303256e+15
9.39062e+15
9.389676e+15
9.300795e+15
9.121525e+15
8.845598e+15
8.462867e+15
7.95873e+15
7.321954e+15
6.57438e+15
5.785762e+15
4.903841e+15
3.984217e+15
2.801613e+15
2.004104e+15
1.537427e+15
1.024803e+15
1.037734e+15
1.553897e+15
2.029482e+15
2.839867e+15
4.052701e+15
4.993214e+15
5.875328e+15
6.698766e+15
7.449424e+15
8.072978e+15
8.567403e+15
8.944338e+15
9.216778e+15
9.393036e+15
9.479194e+15
9.477958e+15
9.389971e+15
9.212957e+15
8.940947e+15
8.565242e+15
8.07203e+15
7.449067e+15
6.698251e+15
5.874072e+15
4.991023e+15
4.050136e+15
2.837816e+15
2.0279e+15
1.552432e+15
1.036602e+15
1.037863e+15
1.55404e+15
2.029588e+15
2.84001e+15
4.052799e+15
4.993468e+15
5.875948e+15
6.699681e+15
7.450482e+15
8.074023e+15
8.568312e+15
8.94506e+15
9.217419e+15
9.393741e+15
9.480066e+15
9.478932e+15
9.390949e+15
9.213894e+15
8.941822e+15
8.566085e+15
8.072904e+15
7.45002e+15
6.6992e+15
5.874872e+15
4.991745e+15
4.050753e+15
2.838196e+15
2.028163e+15
1.552688e+15
1.036836e+15
1.026408e+15
1.539415e+15
2.006179e+15
2.804353e+15
3.987676e+15
4.9077e+15
5.7895e+15
6.577884e+15
7.325474e+15
7.962611e+15
8.467431e+15
8.850823e+15
9.126931e+15
9.305672e+15
9.393342e+15
9.392521e+15
9.303601e+15
9.124245e+15
8.848279e+15
8.465636e+15
7.961707e+15
7.325135e+15
6.577546e+15
5.788625e+15
4.906444e+15
3.98611e+15
2.802567e+15
2.004834e+15
1.538163e+15
1.025465e+15
9.969387e+14
1.507672e+15
1.956605e+15
2.735808e+15
3.857047e+15
4.735109e+15
5.578037e+15
6.366188e+15
7.093494e+15
7.743416e+15
8.264199e+15
8.659105e+15
8.942822e+15
9.126616e+15
9.217097e+15
9.216747e+15
9.125776e+15
8.941718e+15
8.658077e+15
8.26358e+15
7.743341e+15
7.093714e+15
6.36626e+15
5.577562e+15
4.734361e+15
3.855934e+15
2.733843e+15
1.955233e+15
1.506494e+15
9.960569e+14
8.799008e+14
1.453698e+15
1.876192e+15
2.633163e+15
3.635647e+15
4.480806e+15
5.281391e+15
6.068039e+15
6.763162e+15
7.416497e+15
7.954779e+15
8.363841e+15
8.658902e+15
8.850869e+15
8.945821e+15
8.946031e+15
8.851557e+15
8.659938e+15
8.365085e+15
7.95612e+15
7.417822e+15
6.764328e+15
6.068933e+15
5.281964e+15
4.480697e+15
3.635123e+15
2.631044e+15
1.874849e+15
1.452862e+15
8.790917e+14
1.154034e+15
1.703055e+15
2.457043e+15
3.161823e+15
4.138417e+15
4.914249e+15
5.667897e+15
6.366376e+15
6.995204e+15
7.535183e+15
7.954864e+15
8.264732e+15
8.469082e+15
8.571284e+15
8.571882e+15
8.470843e+15
8.267401e+15
7.958059e+15
7.53847e+15
6.998143e+15
6.368703e+15
5.669834e+15
4.915687e+15
4.138755e+15
3.162014e+15
2.454988e+15
1.701778e+15
1.153301e+15
1.053576e+15
1.544423e+15
2.111033e+15
2.861595e+15
3.743929e+15
4.484694e+15
5.194562e+15
5.88522e+15
6.474921e+15
6.996047e+15
7.417932e+15
7.746034e+15
7.966856e+15
8.079782e+15
8.080408e+15
7.968658e+15
7.748801e+15
7.421367e+15
6.999824e+15
6.478563e+15
5.888339e+15
5.197183e+15
4.486458e+15
3.744346e+15
2.861871e+15
2.109778e+15
1.543644e+15
1.053267e+15
8.778848e+14
1.409532e+15
1.8023e+15
2.502193e+15
3.134269e+15
3.958095e+15
4.646997e+15
5.296097e+15
5.886909e+15
6.368973e+15
6.766701e+15
7.098428e+15
7.332066e+15
7.458503e+15
7.458949e+15
7.333231e+15
7.100152e+15
6.768872e+15
6.371596e+15
5.88962e+15
5.29859e+15
4.64908e+15
3.959377e+15
3.134128e+15
2.502322e+15
1.801279e+15
1.408651e+15
8.780597e+14
9.687467e+14
1.515595e+15
1.995621e+15
2.685295e+15
3.239594e+15
4.02308e+15
4.648313e+15
5.197419e+15
5.671708e+15
6.072862e+15
6.372321e+15
6.585436e+15
6.708353e+15
6.708584e+15
6.585918e+15
6.372939e+15
6.073732e+15
5.673041e+15
5.198908e+15
4.649754e+15
4.024282e+15
3.240329e+15
2.685681e+15
1.995398e+15
1.515152e+15
9.686273e+14
1.128163e+15
1.604318e+15
2.076696e+15
2.728482e+15
3.239955e+15
3.959994e+15
4.488096e+15
4.918649e+15
5.286459e+15
5.584147e+15
5.796788e+15
5.884198e+15
5.884163e+15
5.79662e+15
5.583992e+15
5.286564e+15
4.918856e+15
4.488475e+15
3.960499e+15
3.240452e+15
2.728691e+15
2.076527e+15
1.603855e+15
1.127806e+15
9.075974e+14
1.381571e+15
1.656375e+15
2.076794e+15
2.686561e+15
3.135987e+15
3.746588e+15
4.14226e+15
4.485569e+15
4.740729e+15
4.91394e+15
5.000138e+15
4.999965e+15
4.91358e+15
4.740115e+15
4.484976e+15
4.141964e+15
3.746724e+15
3.136047e+15
2.686514e+15
2.076701e+15
1.656123e+15
1.381223e+15
9.072585e+14
9.159292e+14
1.381727e+15
1.604787e+15
1.996024e+15
2.502956e+15
2.862964e+15
3.164761e+15
3.639385e+15
3.861217e+15
3.992092e+15
4.057104e+15
4.056879e+15
3.991907e+15
3.860994e+15
3.639034e+15
3.164288e+15
2.863223e+15
2.503348e+15
1.996121e+15
1.604571e+15
1.381458e+15
9.157679e+14
9.076948e+14
1.128691e+15
1.515881e+15
1.802641e+15
2.111418e+15
2.458015e+15
2.634295e+15
2.737108e+15
2.806009e+15
2.842959e+15
2.842538e+15
2.806417e+15
2.737719e+15
2.634806e+15
2.458431e+15
2.111687e+15
1.802584e+15
1.515799e+15
1.128328e+15
9.075826e+14
9.690312e+14
1.409445e+15
1.544787e+15
1.703433e+15
1.876613e+15
1.957107e+15
2.006892e+15
2.030923e+15
2.030489e+15
2.006992e+15
1.957173e+15
1.876584e+15
1.703184e+15
1.544375e+15
1.40965e+15
9.688204e+14
8.780141e+14
1.053862e+15
1.154097e+15
1.454032e+15
1.507793e+15
1.539672e+15
1.555217e+15
1.555028e+15
1.539492e+15
1.507467e+15
1.453873e+15
1.153833e+15
1.053453e+15
8.782081e+14
8.797307e+14
9.96753e+14
1.026279e+15
1.038207e+15
1.038088e+15
1.026072e+15
9.963696e+14
8.78995e+14
7.790585e+14
8.779757e+14
9.000751e+14
8.997831e+14
8.770772e+14
7.783447e+14
7.488705e+14
9.310633e+14
1.041791e+15
1.167875e+15
1.450556e+15
1.511888e+15
1.535453e+15
1.534778e+15
1.510093e+15
1.44829e+15
1.166966e+15
1.041082e+15
9.301956e+14
7.484842e+14
7.549814e+14
9.774099e+14
1.357378e+15
1.588085e+15
1.790746e+15
2.081429e+15
2.242246e+15
2.309042e+15
2.341544e+15
2.3406e+15
2.306527e+15
2.239339e+15
2.079203e+15
1.788441e+15
1.585322e+15
1.355418e+15
9.765814e+14
7.547814e+14
8.446675e+14
1.311424e+15
1.641197e+15
2.106862e+15
2.378094e+15
2.646846e+15
2.887736e+15
3.28825e+15
3.442502e+15
3.503938e+15
3.502916e+15
3.439639e+15
3.284216e+15
2.883482e+15
2.642022e+15
2.373402e+15
2.101779e+15
1.638876e+15
1.309528e+15
8.443951e+14
9.05114e+14
1.456876e+15
1.894544e+15
2.422728e+15
2.841783e+15
3.418604e+15
3.792878e+15
4.080321e+15
4.320758e+15
4.46837e+15
4.536293e+15
4.535224e+15
4.465279e+15
4.316015e+15
4.074559e+15
3.78674e+15
3.412658e+15
2.836516e+15
2.417588e+15
1.891687e+15
1.454681e+15
9.044079e+14
9.387852e+14
1.575626e+15
2.182219e+15
2.649597e+15
3.111414e+15
3.866604e+15
4.408442e+15
4.836328e+15
5.140118e+15
5.370581e+15
5.519979e+15
5.592202e+15
5.591072e+15
5.516671e+15
5.365336e+15
5.133367e+15
4.828654e+15
4.400788e+15
3.859925e+15
3.106109e+15
2.644448e+15
2.178157e+15
1.573151e+15
9.376921e+14
9.054938e+14
1.575947e+15
2.279463e+15
2.821714e+15
3.587648e+15
4.221441e+15
4.855693e+15
5.385165e+15
5.825206e+15
6.19624e+15
6.468866e+15
6.642709e+15
6.726946e+15
6.725738e+15
6.639191e+15
6.463325e+15
6.189153e+15
5.817137e+15
5.376635e+15
4.847348e+15
4.213687e+15
3.580997e+15
2.81654e+15
2.27464e+15
1.573501e+15
9.044171e+14
8.453446e+14
1.457354e+15
2.183362e+15
2.822084e+15
3.681363e+15
4.434771e+15
5.134967e+15
5.754516e+15
6.334629e+15
6.827081e+15
7.231759e+15
7.53117e+15
7.7251e+15
7.819371e+15
7.818054e+15
7.72129e+15
7.525069e+15
7.223863e+15
6.818019e+15
6.324906e+15
5.744722e+15
5.125613e+15
4.426496e+15
3.674448e+15
2.8171e+15
2.179489e+15
1.455386e+15
8.442866e+14
7.556821e+14
1.31212e+15
1.896275e+15
2.650859e+15
3.589142e+15
4.43589e+15
5.231683e+15
5.939681e+15
6.625971e+15
7.249899e+15
7.776594e+15
8.204468e+15
8.527356e+15
8.738632e+15
8.838485e+15
8.837003e+15
8.734333e+15
8.520653e+15
8.195996e+15
7.766943e+15
7.239502e+15
6.61527e+15
5.929116e+15
5.221615e+15
4.427189e+15
3.582184e+15
2.646025e+15
1.893501e+15
1.310285e+15
7.546464e+14
9.784383e+14
1.64313e+15
2.423909e+15
3.11464e+15
4.224342e+15
5.137666e+15
5.941278e+15
6.721136e+15
7.451798e+15
8.102792e+15
8.656622e+15
9.104788e+15
9.444075e+15
9.672111e+15
9.787908e+15
9.786384e+15
9.667693e+15
9.437243e+15
9.09623e+15
8.646887e+15
8.092332e+15
7.440977e+15
6.710217e+15
5.930643e+15
5.127756e+15
4.216012e+15
3.108638e+15
2.419966e+15
1.640742e+15
9.773338e+14
7.500247e+14
1.358526e+15
2.108005e+15
2.844639e+15
3.871336e+15
4.860449e+15
5.759172e+15
6.629464e+15
7.453484e+15
8.209572e+15
8.880914e+15
9.453765e+15
9.92207e+15
1.028673e+16
1.053682e+16
1.066501e+16
1.066363e+16
1.053282e+16
1.028057e+16
9.914391e+15
9.445033e+15
8.87155e+15
8.199766e+15
7.443285e+15
6.619106e+15
5.749149e+15
4.851382e+15
3.864036e+15
2.838862e+15
2.105037e+15
1.356701e+15
7.495483e+14
9.317242e+14
1.589416e+15
2.38018e+15
3.423656e+15
4.414528e+15
5.391979e+15
6.34118e+15
7.254996e+15
8.105647e+15
8.881974e+15
9.570298e+15
1.017017e+16
1.066472e+16
1.104651e+16
1.130542e+16
1.143636e+16
1.143524e+16
1.130229e+16
1.104183e+16
1.065897e+16
1.016372e+16
9.563435e+15
8.874774e+15
8.097981e+15
7.24665e+15
6.33232e+15
5.383295e+15
4.407146e+15
3.417141e+15
2.376166e+15
1.587184e+15
9.308472e+14
1.043234e+15
1.793263e+15
2.650949e+15
3.799786e+15
4.843937e+15
5.834109e+15
6.835503e+15
7.782953e+15
8.660396e+15
9.455738e+15
1.017106e+16
1.079544e+16
1.130514e+16
1.16918e+16
1.195096e+16
1.208086e+16
1.208022e+16
1.194913e+16
1.168904e+16
1.130181e+16
1.079186e+16
1.016736e+16
9.451796e+15
8.655623e+15
7.776684e+15
6.827696e+15
5.825805e+15
4.836536e+15
3.792745e+15
2.64571e+15
1.789736e+15
1.041346e+15
1.169999e+15
2.086217e+15
2.894282e+15
4.088877e+15
5.1497e+15
6.207089e+15
7.242092e+15
8.212352e+15
9.109908e+15
9.925349e+15
1.06668e+16
1.130621e+16
1.18215e+16
1.220734e+16
1.246364e+16
1.259135e+16
1.259098e+16
1.246262e+16
1.220587e+16
1.181976e+16
1.130427e+16
1.066461e+16
9.922717e+15
9.106375e+15
8.206975e+15
7.234732e+15
6.198984e+15
5.142117e+15
4.081427e+15
2.887766e+15
2.080327e+15
1.167147e+15
7.806593e+14
1.453042e+15
2.247858e+15
3.296405e+15
4.330747e+15
5.382032e+15
6.481605e+15
7.543523e+15
8.537219e+15
9.451068e+15
1.029168e+16
1.10502e+16
1.169445e+16
1.220902e+16
1.25917e+16
1.28444e+16
1.296972e+16
1.296913e+16
1.284281e+16
1.258966e+16
1.22072e+16
1.169301e+16
1.104901e+16
1.029037e+16
9.448871e+15
8.533076e+15
7.537156e+15
6.474308e+15
5.374783e+15
4.323318e+15
3.28907e+15
2.241541e+15
1.449258e+15
7.785901e+14
8.791098e+14
1.514839e+15
2.3148e+15
3.451398e+15
4.479463e+15
5.533041e+15
6.657283e+15
7.73962e+15
8.751037e+15
9.681624e+15
1.054397e+16
1.131104e+16
1.195569e+16
1.246812e+16
1.28476e+16
1.309722e+16
1.322047e+16
1.321922e+16
1.309392e+16
1.284331e+16
1.246442e+16
1.195374e+16
1.131042e+16
1.054373e+16
9.680553e+15
8.747985e+15
7.734433e+15
6.651145e+15
5.526699e+15
4.472899e+15
3.444736e+15
2.309118e+15
1.511135e+15
8.775155e+14
9.017207e+14
1.53903e+15
2.347646e+15
3.513718e+15
4.548615e+15
5.606733e+15
6.743204e+15
7.835938e+15
8.853558e+15
9.80037e+15
1.067487e+16
1.144426e+16
1.208746e+16
1.259751e+16
1.297527e+16
1.322377e+16
1.334622e+16
1.334463e+16
1.321965e+16
1.297014e+16
1.259311e+16
1.208495e+16
1.144349e+16
1.067481e+16
9.799692e+15
8.851199e+15
7.831845e+15
6.738241e+15
5.601496e+15
4.543184e+15
3.508301e+15
2.343335e+15
1.536029e+15
9.002558e+14
9.017888e+14
1.539285e+15
2.348233e+15
3.514084e+15
4.54894e+15
5.606996e+15
6.743477e+15
7.836469e+15
8.85463e+15
9.801904e+15
1.067656e+16
1.144588e+16
1.208886e+16
1.259861e+16
1.297627e+16
1.322484e+16
1.334746e+16
1.334602e+16
1.32211e+16
1.297158e+16
1.259451e+16
1.208632e+16
1.144491e+16
1.067632e+16
9.80126e+15
8.852749e+15
7.833343e+15
6.739624e+15
5.602804e+15
4.544582e+15
3.509714e+15
2.344553e+15
1.536825e+15
9.006376e+14
8.796981e+14
1.515373e+15
2.315377e+15
3.452074e+15
4.480302e+15
5.533812e+15
6.658078e+15
7.741198e+15
8.754182e+15
9.686008e+15
1.054879e+16
1.131578e+16
1.196005e+16
1.247179e+16
1.285107e+16
1.310096e+16
1.322452e+16
1.322345e+16
1.309819e+16
1.284755e+16
1.246869e+16
1.19582e+16
1.131518e+16
1.054877e+16
9.685685e+15
8.752953e+15
7.739092e+15
6.655278e+15
5.530483e+15
4.476893e+15
3.448682e+15
2.312494e+15
1.513437e+15
8.7869e+14
7.814865e+14
1.452908e+15
2.247811e+15
3.297072e+15
4.331877e+15
5.383335e+15
6.48292e+15
7.545987e+15
8.541957e+15
9.457622e+15
1.029894e+16
1.105763e+16
1.170188e+16
1.221621e+16
1.259848e+16
1.285103e+16
1.297644e+16
1.297602e+16
1.284996e+16
1.259718e+16
1.221527e+16
1.170174e+16
1.10583e+16
1.029991e+16
9.458244e+15
8.541812e+15
7.545067e+15
6.48117e+15
5.38073e+15
4.329347e+15
3.294667e+15
2.245981e+15
1.451744e+15
7.807311e+14
1.170366e+15
2.085615e+15
2.895096e+15
4.090309e+15
5.151657e+15
6.208952e+15
7.245239e+15
8.217875e+15
9.117588e+15
9.934091e+15
1.067608e+16
1.13156e+16
1.183074e+16
1.221642e+16
1.247278e+16
1.260091e+16
1.260129e+16
1.247392e+16
1.22182e+16
1.183304e+16
1.131827e+16
1.067889e+16
9.936759e+15
9.119764e+15
8.219267e+15
7.245616e+15
6.208311e+15
5.149754e+15
4.088652e+15
2.893577e+15
2.084892e+15
1.169457e+15
1.04361e+15
1.79397e+15
2.652153e+15
3.801196e+15
4.846386e+15
5.836456e+15
6.839138e+15
7.788606e+15
8.668199e+15
9.464959e+15
1.01811e+16
1.080601e+16
1.131627e+16
1.17037e+16
1.196389e+16
1.209502e+16
1.209595e+16
1.196656e+16
1.17078e+16
1.132133e+16
1.081144e+16
1.018629e+16
9.469519e+15
8.671995e+15
7.791346e+15
6.84055e+15
5.83683e+15
4.845191e+15
3.800393e+15
2.65099e+15
1.792885e+15
1.042665e+15
9.327759e+14
1.590924e+15
2.382222e+15
3.425138e+15
4.417039e+15
5.395026e+15
6.345343e+15
7.260625e+15
8.113293e+15
8.891532e+15
9.58151e+15
1.018299e+16
1.067926e+16
1.106288e+16
1.132372e+16
1.145654e+16
1.145744e+16
1.132634e+16
1.106697e+16
1.068446e+16
1.018883e+16
9.587375e+15
8.896919e+15
8.117844e+15
7.26389e+15
6.347125e+15
5.395894e+15
4.41669e+15
3.42504e+15
2.380817e+15
1.589571e+15
9.316763e+14
7.509059e+14
1.359702e+15
2.110738e+15
2.846027e+15
3.873385e+15
4.863912e+15
5.76399e+15
6.635918e+15
7.462151e+15
8.220727e+15
8.894529e+15
9.469817e+15
9.940614e+15
1.03077e+16
1.056014e+16
1.06904e+16
1.069092e+16
1.056166e+16
1.031011e+16
9.943844e+15
9.473686e+15
8.898614e+15
8.224629e+15
7.46547e+15
6.638264e+15
5.765295e+15
4.864903e+15
3.873741e+15
2.84644e+15
2.10865e+15
1.358941e+15
7.501166e+14
9.791725e+14
1.644109e+15
2.426282e+15
3.115805e+15
4.227909e+15
5.142701e+15
5.948339e+15
6.730751e+15
7.464353e+15
8.118366e+15
8.675171e+15
9.126292e+15
9.468289e+15
9.698727e+15
9.81647e+15
9.816579e+15
9.699034e+15
9.468871e+15
9.127356e+15
8.676803e+15
8.120331e+15
7.466384e+15
6.732551e+15
5.949723e+15
5.143719e+15
4.228642e+15
3.116655e+15
2.425845e+15
1.643559e+15
9.786326e+14
7.559516e+14
1.313306e+15
1.89783e+15
2.654072e+15
3.593237e+15
4.44119e+15
5.239099e+15
5.949835e+15
6.63937e+15
7.266618e+15
7.796505e+15
8.22733e+15
8.552885e+15
8.766426e+15
8.867927e+15
8.867689e+15
8.765782e+15
8.552058e+15
8.226682e+15
7.796215e+15
7.266695e+15
6.639644e+15
5.950149e+15
5.239314e+15
4.44118e+15
3.592897e+15
2.653419e+15
1.897216e+15
1.312947e+15
7.560548e+14
8.45687e+14
1.459109e+15
2.186155e+15
2.825302e+15
3.686122e+15
4.442e+15
5.145126e+15
5.767833e+15
6.350991e+15
6.846621e+15
7.254153e+15
7.555929e+15
7.751735e+15
7.847241e+15
7.846828e+15
7.750664e+15
7.55438e+15
7.252492e+15
6.8452e+15
6.349952e+15
5.766853e+15
5.144285e+15
4.441495e+15
3.685795e+15
2.825154e+15
2.184993e+15
1.4585e+15
8.457513e+14
9.060633e+14
1.577483e+15
2.283075e+15
2.825382e+15
3.594406e+15
4.230419e+15
4.867427e+15
5.399595e+15
5.842603e+15
6.216136e+15
6.490724e+15
6.666139e+15
6.751437e+15
6.750972e+15
6.665123e+15
6.48929e+15
6.214456e+15
5.840946e+15
5.398252e+15
4.865968e+15
4.22903e+15
3.593569e+15
2.824944e+15
2.282451e+15
1.577112e+15
9.058883e+14
9.39439e+14
1.577594e+15
2.186955e+15
2.655327e+15
3.118767e+15
3.876601e+15
4.42052e+15
4.85056e+15
5.156431e+15
5.388545e+15
5.539375e+15
5.612914e+15
5.61236e+15
5.538546e+15
5.387431e+15
5.155142e+15
4.849379e+15
4.419267e+15
3.875005e+15
3.116915e+15
2.654532e+15
2.18645e+15
1.577349e+15
9.393157e+14
9.058813e+14
1.458974e+15
1.899074e+15
2.427826e+15
2.847645e+15
3.427495e+15
3.804138e+15
4.09369e+15
4.335569e+15
4.484203e+15
4.552787e+15
4.552188e+15
4.483165e+15
4.334157e+15