/*--------------------------------*- C++ -*----------------------------------*\
  =========                 |
  \\      /  F ield         | OpenFOAM: The Open Source CFD Toolbox
   \\    /   O peration     | Website:  https://openfoam.org
    \\  /    A nd           | Version:  6
     \\/     M anipulation  |
\*---------------------------------------------------------------------------*/
FoamFile
{
    version     2.0;
    format      ascii;
    class       volScalarField;
    location    "50/region0/neutronTransport";
    object      precursor3.dnp;
}
// * * * * * * * * * * * * * * * * * * * * * * * * * * * * * * * * * * * * * //

dimensions      [0 -3 0 0 0 0 0];

internalField   nonuniform List<scalar> 
203709
(
2.471133e+14
2.718747e+14
2.718447e+14
2.471729e+14
2.582453e+14
2.890984e+14
3.578959e+14
3.541329e+14
3.540934e+14
3.57884e+14
2.89076e+14
2.582701e+14
2.523073e+14
2.901231e+14
3.62554e+14
3.615241e+14
3.718074e+14
3.743735e+14
3.743624e+14
3.717921e+14
3.61495e+14
3.625566e+14
2.901302e+14
2.523474e+14
2.523077e+14
3.524023e+14
3.599261e+14
3.740498e+14
3.813971e+14
3.878554e+14
3.907156e+14
3.907294e+14
3.878456e+14
3.813832e+14
3.740764e+14
3.599746e+14
3.52498e+14
2.524087e+14
2.900734e+14
3.598859e+14
3.761566e+14
3.877059e+14
3.964575e+14
4.02781e+14
4.059299e+14
4.059465e+14
4.027836e+14
3.964792e+14
3.877706e+14
3.762464e+14
3.600101e+14
2.90196e+14
2.582031e+14
3.624834e+14
3.739974e+14
3.876735e+14
3.995731e+14
4.089669e+14
4.154886e+14
4.187286e+14
4.187404e+14
4.155213e+14
4.090352e+14
3.996566e+14
3.877902e+14
3.741568e+14
3.62675e+14
2.583268e+14
2.890039e+14
3.614114e+14
3.812968e+14
3.963743e+14
4.089318e+14
4.186955e+14
4.252059e+14
4.282922e+14
4.283062e+14
4.252629e+14
4.18767e+14
4.090207e+14
3.965089e+14
3.814523e+14
3.615651e+14
2.891459e+14
2.471259e+14
3.578482e+14
3.717302e+14
3.877666e+14
4.027128e+14
4.154404e+14
4.251904e+14
4.312487e+14
4.342522e+14
4.342524e+14
4.312597e+14
4.251898e+14
4.154692e+14
4.027776e+14
3.87864e+14
3.718542e+14
3.580175e+14
2.47175e+14
2.718056e+14
3.54052e+14
3.742809e+14
3.906398e+14
4.058549e+14
4.186565e+14
4.282678e+14
4.342726e+14
4.375445e+14
4.374525e+14
4.342649e+14
4.282927e+14
4.187186e+14
4.059255e+14
3.907251e+14
3.744084e+14
3.5418e+14
2.718973e+14
2.718346e+14
3.541238e+14
3.743181e+14
3.906451e+14
4.058487e+14
4.186413e+14
4.2823e+14
4.342494e+14
4.376128e+14
4.375286e+14
4.342845e+14
4.283009e+14
4.187147e+14
4.059327e+14
3.907303e+14
3.744131e+14
3.542245e+14
2.719444e+14
2.470663e+14
3.579187e+14
3.717663e+14
3.877787e+14
4.026993e+14
4.154038e+14
4.251375e+14
4.312135e+14
4.342581e+14
4.342568e+14
4.312793e+14
4.252333e+14
4.15495e+14
4.027908e+14
3.878659e+14
3.718525e+14
3.579829e+14
2.471888e+14
2.890034e+14
3.614307e+14
3.813073e+14
3.963696e+14
4.088821e+14
4.18626e+14
4.2513e+14
4.282462e+14
4.282364e+14
4.252059e+14
4.187181e+14
4.089838e+14
3.964601e+14
3.813885e+14
3.615254e+14
2.891173e+14
2.581962e+14
3.624868e+14
3.739602e+14
3.876196e+14
3.994859e+14
4.088762e+14
4.153755e+14
4.186594e+14
4.186589e+14
4.154567e+14
4.089708e+14
3.99605e+14
3.877419e+14
3.740835e+14
3.626049e+14
2.582843e+14
2.900429e+14
3.598203e+14
3.760769e+14
3.876168e+14
3.963578e+14
4.026987e+14
4.060361e+14
4.060422e+14
4.027441e+14
3.964388e+14
3.877232e+14
3.762065e+14
3.599833e+14
2.901698e+14
2.522779e+14
3.523595e+14
3.598383e+14
3.739676e+14
3.81294e+14
3.877769e+14
3.908096e+14
3.908232e+14
3.87817e+14
3.813628e+14
3.740454e+14
3.599289e+14
3.524755e+14
2.523331e+14
2.522988e+14
2.90071e+14
3.624944e+14
3.614187e+14
3.717631e+14
3.744372e+14
3.744776e+14
3.718005e+14
3.614976e+14
3.62553e+14
2.900943e+14
2.523225e+14
2.582327e+14
2.890386e+14
3.579106e+14
3.542824e+14
3.54341e+14
3.579427e+14
2.890702e+14
2.582386e+14
2.471536e+14
2.718808e+14
2.71905e+14
2.47156e+14
2.070671e+14
2.353678e+14
2.449555e+14
2.515361e+14
2.556519e+14
2.55656e+14
2.515504e+14
2.449766e+14
2.354031e+14
2.071218e+14
2.112002e+14
2.460949e+14
3.13464e+14
3.23699e+14
3.353818e+14
3.482482e+14
3.584336e+14
3.58442e+14
3.482899e+14
3.353917e+14
3.236629e+14
3.134033e+14
2.460283e+14
2.111497e+14
2.161737e+14
3.082899e+14
3.256121e+14
3.50662e+14
3.744247e+14
3.941999e+14
4.19737e+14
4.408057e+14
4.408074e+14
4.197524e+14
3.941299e+14
3.743192e+14
3.506054e+14
3.255842e+14
3.083369e+14
2.162113e+14
2.183109e+14
3.140592e+14
3.422875e+14
3.731013e+14
4.050522e+14
4.50529e+14
5.068485e+14
5.628286e+14
5.829237e+14
5.829128e+14
5.627496e+14
5.06771e+14
4.504862e+14
4.050501e+14
3.731233e+14
3.423251e+14
3.140822e+14
2.183631e+14
2.161641e+14
3.14024e+14
3.457431e+14
3.818426e+14
4.418154e+14
5.141162e+14
5.919082e+14
6.491208e+14
6.91711e+14
7.60871e+14
7.608424e+14
6.91678e+14
6.490582e+14
5.918168e+14
5.141051e+14
4.417965e+14
3.818803e+14
3.457703e+14
3.140513e+14
2.162114e+14
2.112193e+14
3.083763e+14
3.423081e+14
3.818682e+14
4.639567e+14
5.735731e+14
6.488379e+14
7.107446e+14
8.103483e+14
8.549491e+14
8.812653e+14
8.812229e+14
8.548385e+14
8.101993e+14
7.106183e+14
6.487177e+14
5.734507e+14
4.639183e+14
3.818499e+14
3.423306e+14
3.084229e+14
2.112806e+14
2.460543e+14
3.256123e+14
3.731151e+14
4.418316e+14
5.735663e+14
6.787748e+14
7.983994e+14
8.646362e+14
9.163837e+14
9.483295e+14
9.645865e+14
9.645419e+14
9.481995e+14
9.162222e+14
8.644801e+14
7.982584e+14
6.787004e+14
5.735652e+14
4.418637e+14
3.732111e+14
3.257362e+14
2.461557e+14
2.071446e+14
3.134639e+14
3.506169e+14
4.050426e+14
5.140969e+14
6.488846e+14
7.983856e+14
8.883088e+14
9.463528e+14
9.865083e+14
1.01201e+15
1.024588e+15
1.024562e+15
1.011933e+15
9.864361e+14
9.463165e+14
8.883268e+14
7.984937e+14
6.49091e+14
5.143574e+14
4.05275e+14
3.507971e+14
3.135671e+14
2.071725e+14
2.354381e+14
3.237786e+14
3.743816e+14
4.505546e+14
5.9203e+14
7.108413e+14
8.646345e+14
9.463312e+14
9.990305e+14
1.03461e+15
1.05712e+15
1.068102e+15
1.068107e+15
1.057138e+15
1.034672e+15
9.991523e+14
9.465305e+14
8.649151e+14
7.111617e+14
5.923439e+14
4.507439e+14
3.745759e+14
3.238701e+14
2.354736e+14
2.450201e+14
3.354924e+14
3.9418e+14
5.068145e+14
6.493017e+14
8.104626e+14
9.163967e+14
9.864795e+14
1.034598e+15
1.067657e+15
1.088664e+15
1.098956e+15
1.098979e+15
1.088745e+15
1.067801e+15
1.034803e+15
9.867436e+14
9.166765e+14
8.107027e+14
6.494212e+14
5.070669e+14
3.943871e+14
3.355518e+14
2.450497e+14
2.515892e+14
3.483812e+14
4.198571e+14
5.630019e+14
6.919659e+14
8.551526e+14
9.484133e+14
1.012029e+15
1.057128e+15
1.08867e+15
1.10874e+15
1.11859e+15
1.118581e+15
1.108745e+15
1.088691e+15
1.057189e+15
1.012146e+15
9.485742e+14
8.553158e+14
6.920898e+14
5.631867e+14
4.199699e+14
3.484464e+14
2.516524e+14
2.556701e+14
3.585038e+14
4.408837e+14
5.831453e+14
7.611916e+14
8.815646e+14
9.647827e+14
1.024691e+15
1.068146e+15
1.098989e+15
1.118661e+15
1.128392e+15
1.128352e+15
1.118685e+15
1.099069e+15
1.068265e+15
1.02483e+15
9.649481e+14
8.817458e+14
7.613765e+14
5.833428e+14
4.410663e+14
3.586373e+14
2.557675e+14
2.556278e+14
3.584393e+14
4.408187e+14
5.831088e+14
7.612178e+14
8.816262e+14
9.648782e+14
1.024764e+15
1.068161e+15
1.098951e+15
1.118631e+15
1.128435e+15
1.12844e+15
1.118782e+15
1.099177e+15
1.068373e+15
1.024932e+15
9.650407e+14
8.818366e+14
7.614551e+14
5.833318e+14
4.410236e+14
3.586009e+14
2.557423e+14
2.514849e+14
3.482942e+14
4.198675e+14
5.630716e+14
6.919933e+14
8.552872e+14
9.485894e+14
1.012172e+15
1.057194e+15
1.088655e+15
1.108702e+15
1.118615e+15
1.118677e+15
1.108919e+15
1.088934e+15
1.057458e+15
1.012406e+15
9.488124e+14
8.555376e+14
6.922701e+14
5.63293e+14
4.200662e+14
3.484846e+14
2.516197e+14
2.449334e+14
3.354574e+14
3.942818e+14
5.069573e+14
6.49379e+14
8.10629e+14
9.165855e+14
9.866238e+14
1.034653e+15
1.06763e+15
1.088596e+15
1.098913e+15
1.098961e+15
1.088789e+15
1.067902e+15
1.034952e+15
9.86922e+14
9.168705e+14
8.109053e+14
6.496594e+14
5.07117e+14
3.944179e+14
3.35659e+14
2.450803e+14
2.353815e+14
3.237728e+14
3.744857e+14
4.506111e+14
5.921932e+14
7.110043e+14
8.647827e+14
9.464142e+14
9.990314e+14
1.034561e+15
1.057057e+15
1.068079e+15
1.068126e+15
1.057246e+15
1.034847e+15
9.993754e+14
9.467767e+14
8.651176e+14
7.112361e+14
5.923675e+14
4.508108e+14
3.746056e+14
3.239544e+14
2.355177e+14
2.070932e+14
3.134766e+14
3.506913e+14
4.050756e+14
5.142335e+14
6.489958e+14
7.984621e+14
8.883242e+14
9.463264e+14
9.864739e+14
1.012022e+15
1.02465e+15
1.024708e+15
1.012217e+15
9.867847e+14
9.467106e+14
8.887365e+14
7.988344e+14
6.492312e+14
5.14398e+14
4.052666e+14
3.50797e+14
3.136212e+14
2.072134e+14
2.461156e+14
3.256359e+14
3.730992e+14
4.418485e+14
5.736115e+14
6.78784e+14
7.984014e+14
8.646659e+14
9.164529e+14
9.484956e+14
9.647947e+14
9.648627e+14
9.486937e+14
9.16763e+14
8.650441e+14
7.988104e+14
6.791382e+14
5.738483e+14
4.420216e+14
3.732989e+14
3.257337e+14
2.461354e+14
2.112656e+14
3.083433e+14
3.422903e+14
3.818632e+14
4.639752e+14
5.736029e+14
6.489621e+14
7.109574e+14
8.106079e+14
8.553372e+14
8.817103e+14
8.817904e+14
8.555132e+14
8.108554e+14
7.112058e+14
6.492519e+14
5.738882e+14
4.641692e+14
3.820108e+14
3.424574e+14
3.084461e+14
2.112228e+14
2.162203e+14
3.141322e+14
3.458174e+14
3.818626e+14
4.418435e+14
5.142393e+14
5.922318e+14
6.495048e+14
6.92165e+14
7.613835e+14
7.614612e+14
6.922912e+14
6.496143e+14
5.923145e+14
5.144012e+14
4.420089e+14
3.81991e+14
3.459155e+14
3.142226e+14
2.162266e+14
2.183813e+14
3.141223e+14
3.423394e+14
3.732028e+14
4.051775e+14
4.506244e+14
5.07037e+14
5.632529e+14
5.833652e+14
5.833918e+14
5.63242e+14
5.070675e+14
4.507262e+14
4.052126e+14
3.732297e+14
3.423812e+14
3.141776e+14
2.184059e+14
2.161754e+14
3.084076e+14
3.257032e+14
3.507203e+14
3.744887e+14
3.943759e+14
4.200211e+14
4.41081e+14
4.410817e+14
4.200058e+14
3.943201e+14
3.745088e+14
3.507762e+14
3.257285e+14
3.0841e+14
2.161809e+14
2.112838e+14
2.461385e+14
3.135461e+14
3.238701e+14
3.356008e+14
3.484731e+14
3.586556e+14
3.586603e+14
3.484697e+14
3.355667e+14
3.238336e+14
3.136001e+14
2.461763e+14
2.112862e+14
2.071248e+14
2.354238e+14
2.449956e+14
2.515676e+14
2.557025e+14
2.557011e+14
2.516129e+14
2.450455e+14
2.354573e+14
2.071209e+14
1.754931e+14
1.989865e+14
2.048744e+14
2.071406e+14
2.070957e+14
2.047404e+14
1.987461e+14
1.75301e+14
1.75302e+14
2.102648e+14
2.302617e+14
2.900575e+14
3.009051e+14
3.072537e+14
3.10146e+14
3.101023e+14
3.071145e+14
3.006816e+14
2.899556e+14
2.302083e+14
2.102374e+14
1.753623e+14
1.93333e+14
2.812329e+14
3.08162e+14
3.39823e+14
3.744504e+14
3.905303e+14
4.00415e+14
4.050566e+14
4.050197e+14
4.003051e+14
3.903571e+14
3.74269e+14
3.397281e+14
3.080991e+14
2.812069e+14
1.934304e+14
1.811631e+14
2.25172e+14
3.024901e+14
3.595941e+14
4.212429e+14
4.903336e+14
5.254994e+14
5.459885e+14
5.596294e+14
5.667061e+14
5.666652e+14
5.59515e+14
5.4582e+14
5.253111e+14
4.901709e+14
4.211299e+14
3.595882e+14
3.024449e+14
2.252018e+14
1.81171e+14
1.82874e+14
2.757307e+14
3.20143e+14
3.982845e+14
4.993656e+14
5.71023e+14
6.309653e+14
7.255292e+14
7.697076e+14
7.957332e+14
8.086925e+14
8.086615e+14
7.956603e+14
7.696277e+14
7.254967e+14
6.310397e+14
5.711227e+14
4.994038e+14
3.982388e+14
3.202067e+14
2.75722e+14
1.828881e+14
1.811555e+14
2.757861e+14
3.305934e+14
4.144312e+14
5.35906e+14
6.253899e+14
7.471086e+14
8.258592e+14
8.941696e+14
9.44909e+14
9.793283e+14
9.965046e+14
9.964768e+14
9.792766e+14
9.448134e+14
8.940797e+14
8.258362e+14
7.471217e+14
6.254056e+14
5.359496e+14
4.144972e+14
3.305558e+14
2.757526e+14
1.811623e+14
2.252577e+14
3.202386e+14
4.144883e+14
5.445098e+14
6.46526e+14
7.89939e+14
8.950955e+14
9.808169e+14
1.054033e+15
1.113221e+15
1.155438e+15
1.172803e+15
1.172764e+15
1.155325e+15
1.113071e+15
1.053928e+15
9.80804e+14
8.951382e+14
7.900033e+14
6.465802e+14
5.444879e+14
4.144771e+14
3.202335e+14
2.25257e+14
1.935134e+14
3.02535e+14
3.982991e+14
5.360514e+14
6.465391e+14
8.028624e+14
9.275061e+14
1.036924e+15
1.13136e+15
1.211133e+15
1.270677e+15
1.313027e+15
1.337466e+15
1.337414e+15
1.312887e+15
1.270482e+15
1.210947e+15
1.131237e+15
1.036871e+15
9.27539e+14
8.029187e+14
6.466125e+14
5.360423e+14
3.98312e+14
3.025452e+14
1.934669e+14
1.753442e+14
2.813174e+14
3.596806e+14
4.994597e+14
6.256645e+14
7.901866e+14
9.276506e+14
1.057111e+15
1.174918e+15
1.270951e+15
1.350097e+15
1.416101e+15
1.462522e+15
1.487623e+15
1.487552e+15
1.462327e+15
1.415826e+15
1.349811e+15
1.270685e+15
1.174723e+15
1.057022e+15
9.276128e+14
7.901741e+14
6.256519e+14
4.993891e+14
3.59738e+14
2.813135e+14
1.753059e+14
2.10362e+14
3.082882e+14
4.213043e+14
5.713333e+14
7.474676e+14
8.95486e+14
1.03718e+15
1.175031e+15
1.292745e+15
1.396716e+15
1.480806e+15
1.54614e+15
1.590027e+15
1.612419e+15
1.612337e+15
1.589802e+15
1.545834e+15
1.480486e+15
1.396431e+15
1.292559e+15
1.17496e+15
1.037179e+15
8.955336e+14
7.47525e+14
5.712798e+14
4.214226e+14
3.083544e+14
2.103549e+14
2.303365e+14
3.398848e+14
4.903279e+14
6.31417e+14
8.263012e+14
9.812614e+14
1.131663e+15
1.27115e+15
1.396784e+15
1.504684e+15
1.588519e+15
1.650362e+15
1.691071e+15
1.711362e+15
1.7113e+15
1.690908e+15
1.650166e+15
1.588357e+15
1.504613e+15
1.396851e+15
1.271369e+15
1.131972e+15
9.815592e+14
8.265433e+14
6.315067e+14
4.906498e+14
3.400505e+14
2.303769e+14
1.755298e+14
2.901935e+14
3.744508e+14
5.255762e+14
7.260031e+14
8.9467e+14
1.054505e+15
1.211551e+15
1.350402e+15
1.480939e+15
1.588551e+15
1.67038e+15
1.729419e+15
1.767814e+15
1.786773e+15
1.786763e+15
1.767791e+15
1.729438e+15
1.670502e+15
1.588816e+15
1.481364e+15
1.350945e+15
1.212119e+15
1.054978e+15
8.950328e+14
7.26222e+14
5.259375e+14
3.746659e+14
2.901811e+14
1.755206e+14
1.989185e+14
3.009238e+14
3.906161e+14
5.462154e+14
7.70221e+14
9.454571e+14
1.11371e+15
1.271188e+15
1.416514e+15
1.546375e+15
1.650465e+15
1.729469e+15
1.786302e+15
1.823176e+15
1.841375e+15
1.841399e+15
1.82326e+15
1.786492e+15
1.729788e+15
1.650902e+15
1.546869e+15
1.417016e+15
1.271671e+15
1.114187e+15
9.457858e+14
7.704146e+14
5.464526e+14
3.907575e+14
3.010059e+14
1.989722e+14
2.048717e+14
3.0732e+14
4.005703e+14
5.599949e+14
7.963523e+14
9.799878e+14
1.156095e+15
1.313699e+15
1.463118e+15
1.590441e+15
1.691316e+15
1.767966e+15
1.823246e+15
1.859131e+15
1.876833e+15
1.876834e+15
1.85916e+15
1.823326e+15
1.76812e+15
1.691562e+15
1.590762e+15
1.463483e+15
1.314089e+15
1.156494e+15
9.802557e+14
7.964767e+14
5.601064e+14
4.006686e+14
3.073893e+14
2.04899e+14
2.072148e+14
3.103147e+14
4.053018e+14
5.67183e+14
8.094077e+14
9.972486e+14
1.173579e+15
1.338294e+15
1.488436e+15
1.61307e+15
1.711815e+15
1.787058e+15
1.841534e+15
1.876945e+15
1.89444e+15
1.894456e+15
1.877039e+15
1.841705e+15
1.787282e+15
1.712082e+15
1.613392e+15
1.488803e+15
1.33871e+15
1.174e+15
9.975343e+14
8.095079e+14
5.672216e+14
4.053452e+14
3.103324e+14
2.072307e+14
2.072282e+14
3.10328e+14
4.053123e+14
5.67213e+14
8.094404e+14
9.973069e+14
1.173651e+15
1.338364e+15
1.488537e+15
1.613238e+15
1.711982e+15
1.787136e+15
1.841523e+15
1.876909e+15
1.894449e+15
1.894532e+15
1.877175e+15
1.841885e+15
1.787483e+15
1.712281e+15
1.613577e+15
1.488969e+15
1.338848e+15
1.174101e+15
9.976221e+14
8.095737e+14
5.672396e+14
4.053436e+14
3.103299e+14
2.072407e+14
2.049306e+14
3.073923e+14
4.006248e+14
5.600889e+14
7.96446e+14
9.801955e+14
1.156367e+15
1.313949e+15
1.463421e+15
1.590804e+15
1.691664e+15
1.768201e+15
1.823336e+15
1.859128e+15
1.87685e+15
1.876954e+15
1.859422e+15
1.823719e+15
1.768595e+15
1.692061e+15
1.591239e+15
1.463909e+15
1.314444e+15
1.156795e+15
9.805372e+14
7.966478e+14
5.60124e+14
4.006777e+14
3.074185e+14
2.049567e+14
1.990406e+14
3.010411e+14
3.9071e+14
5.46388e+14
7.70356e+14
9.457334e+14
1.114118e+15
1.271607e+15
1.416965e+15
1.546844e+15
1.650873e+15
1.729745e+15
1.786429e+15
1.823199e+15
1.841381e+15
1.841454e+15
1.823428e+15
1.786775e+15
1.730168e+15
1.651347e+15
1.547347e+15
1.417471e+15
1.272071e+15
1.114485e+15
9.460556e+14
7.705887e+14
5.463843e+14
3.907668e+14
3.010931e+14
1.990741e+14
1.756688e+14
2.902574e+14
3.74638e+14
5.258683e+14
7.261175e+14
8.949297e+14
1.054845e+15
1.212e+15
1.350878e+15
1.481393e+15
1.588912e+15
1.670619e+15
1.729557e+15
1.767908e+15
1.786892e+15
1.786968e+15
1.768152e+15
1.729946e+15
1.671121e+15
1.589482e+15
1.481972e+15
1.351413e+15
1.212477e+15
1.055267e+15
8.952406e+14
7.263715e+14
5.257929e+14
3.746798e+14
2.90367e+14
1.75691e+14
2.30413e+14
3.400548e+14
4.906692e+14
6.314428e+14
8.26505e+14
9.814661e+14
1.132001e+15
1.271521e+15
1.397112e+15
1.504943e+15
1.588727e+15
1.650564e+15
1.691323e+15
1.711694e+15
1.711798e+15
1.691639e+15
1.651066e+15
1.589369e+15
1.505659e+15
1.397815e+15
1.272138e+15
1.132556e+15
9.819431e+14
8.268005e+14
6.317457e+14
4.905429e+14
3.400571e+14
2.304703e+14
2.103604e+14
3.083723e+14
4.215199e+14
5.714403e+14
7.476577e+14
8.955969e+14
1.03736e+15
1.175265e+15
1.292979e+15
1.396974e+15
1.481141e+15
1.546581e+15
1.59061e+15
1.613122e+15
1.613247e+15
1.590974e+15
1.547151e+15
1.481871e+15
1.397798e+15
1.293793e+15
1.17598e+15
1.037985e+15
8.960833e+14
7.479196e+14
5.717167e+14
4.215081e+14
3.084296e+14
2.104669e+14
1.752891e+14
2.814486e+14
3.598583e+14
4.996086e+14
6.258159e+14
7.902894e+14
9.277944e+14
1.057335e+15
1.175227e+15
1.271401e+15
1.350742e+15
1.416918e+15
1.463529e+15
1.488769e+15
1.488895e+15
1.463868e+15
1.417432e+15
1.3514e+15
1.272175e+15
1.17602e+15
1.058056e+15
9.28412e+14
7.90738e+14
6.259838e+14
4.998461e+14
3.598489e+14
2.814444e+14
1.754462e+14
1.934369e+14
3.026267e+14
3.984498e+14
5.361162e+14
6.467416e+14
8.031002e+14
9.278558e+14
1.03741e+15
1.132028e+15
1.212051e+15
1.271789e+15
1.314315e+15
1.338872e+15
1.338976e+15
1.314576e+15
1.272159e+15
1.212527e+15
1.132614e+15
1.038019e+15
9.284291e+14
8.036085e+14
6.471222e+14
5.364058e+14
3.985834e+14
3.026836e+14
1.935177e+14
2.25277e+14
3.203352e+14
4.146228e+14
5.447147e+14
6.467715e+14
7.904417e+14
8.957919e+14
9.816681e+14
1.055028e+15
1.11441e+15
1.156849e+15
1.174331e+15
1.17439e+15
1.157001e+15
1.114649e+15
1.055359e+15
9.820189e+14
8.961578e+14
7.908116e+14
6.471077e+14
5.449609e+14
4.147625e+14
3.203795e+14
2.253001e+14
1.812571e+14
2.759006e+14
3.307386e+14
4.146446e+14
5.363353e+14
6.259831e+14
7.477946e+14
8.267031e+14
8.951732e+14
9.460762e+14
9.806581e+14
9.979058e+14
9.979348e+14
9.807668e+14
9.46218e+14
8.953567e+14
8.269416e+14
7.480955e+14
6.262337e+14
5.365237e+14
4.147792e+14
3.308069e+14
2.759296e+14
1.812474e+14
1.829192e+14
2.759204e+14
3.204251e+14
3.984885e+14
4.996346e+14
5.714409e+14
6.316246e+14
7.26314e+14
7.705801e+14
7.967224e+14
8.097409e+14
8.097493e+14
7.968406e+14
7.707716e+14
7.26522e+14
6.317899e+14
5.717304e+14
4.999266e+14
3.986715e+14
3.204921e+14
2.759664e+14
1.82938e+14
1.812678e+14
2.25374e+14
3.026467e+14
3.598538e+14
4.214544e+14
4.905993e+14
5.257607e+14
5.462794e+14
5.600473e+14
5.674496e+14
5.673989e+14
5.602284e+14
5.465606e+14
5.260624e+14
4.90882e+14
4.216784e+14
3.599876e+14
3.027462e+14
2.253692e+14
1.812938e+14
1.934787e+14
2.813807e+14
3.083722e+14
3.400141e+14
3.745681e+14
3.906294e+14
4.005713e+14
4.053797e+14
4.0531e+14
4.00643e+14
3.907276e+14
3.74671e+14
3.400723e+14
3.083867e+14
2.815246e+14
1.934853e+14
1.752962e+14
2.103841e+14
2.303749e+14
2.902411e+14
3.009642e+14
3.073274e+14
3.104358e+14
3.104083e+14
3.073235e+14
3.009521e+14
2.902788e+14
2.30373e+14
2.103503e+14
1.753723e+14
1.756018e+14
1.989565e+14
2.048468e+14
2.072282e+14
2.072091e+14
2.048197e+14
1.989025e+14
1.754762e+14
1.557474e+14
1.755305e+14
1.799525e+14
1.799013e+14
1.753731e+14
1.556379e+14
1.497115e+14
1.861435e+14
2.082821e+14
2.334984e+14
2.900375e+14
3.023029e+14
3.070227e+14
3.06907e+14
3.020041e+14
2.896858e+14
2.334213e+14
2.082524e+14
1.860856e+14
1.49728e+14
1.509275e+14
1.95397e+14
2.713672e+14
3.175087e+14
3.580502e+14
4.161972e+14
4.483779e+14
4.617433e+14
4.682615e+14
4.681144e+14
4.613708e+14
4.480247e+14
4.160785e+14
3.578951e+14
3.172689e+14
2.712675e+14
1.954055e+14
1.510168e+14
1.688419e+14
2.621567e+14
3.280917e+14
4.211875e+14
4.754583e+14
5.292316e+14
5.774274e+14
6.57551e+14
6.884218e+14
7.00748e+14
7.006205e+14
6.880861e+14
6.571439e+14
5.770865e+14
5.288513e+14
4.751331e+14
4.207754e+14
3.280404e+14
2.620912e+14
1.689518e+14
1.809092e+14
2.912101e+14
3.787005e+14
4.842877e+14
5.680821e+14
6.834491e+14
7.583325e+14
8.158582e+14
8.639874e+14
8.935532e+14
9.072043e+14
9.071043e+14
8.932828e+14
8.636263e+14
8.155078e+14
7.580462e+14
6.832353e+14
5.678975e+14
4.839971e+14
3.786388e+14
2.911233e+14
1.809443e+14
1.876268e+14
3.149296e+14
4.361664e+14
5.295838e+14
6.219112e+14
7.72889e+14
8.812607e+14
9.668647e+14
1.027674e+15
1.073831e+15
1.103789e+15
1.118341e+15
1.118274e+15
1.103609e+15
1.073589e+15
1.02742e+15
9.666224e+14
8.810672e+14
7.728097e+14
6.218575e+14
5.29387e+14
4.359872e+14
3.14814e+14
1.875942e+14
1.809608e+14
3.149753e+14
4.555769e+14
5.639363e+14
7.170141e+14
8.437114e+14
9.705109e+14
1.076402e+15
1.164428e+15
1.238677e+15
1.29328e+15
1.328164e+15
1.345169e+15
1.345139e+15
1.328097e+15
1.29322e+15
1.238662e+15
1.164457e+15
1.076435e+15
9.70533e+14
8.436573e+14
7.169412e+14
5.638189e+14
4.552596e+14
3.148502e+14
1.809162e+14
1.689308e+14
2.912539e+14
4.363494e+14
5.639717e+14
7.356738e+14
8.862386e+14
1.026202e+15
1.150058e+15
1.266054e+15
1.364537e+15
1.445493e+15
1.505449e+15
1.544373e+15
1.563428e+15
1.563425e+15
1.544387e+15
1.505497e+15
1.4456e+15
1.364699e+15
1.266225e+15
1.150199e+15
1.026279e+15
8.862634e+14
7.356007e+14
5.638478e+14
4.361381e+14
2.911616e+14
1.688755e+14
1.510005e+14
2.622156e+14
3.789468e+14
5.297321e+14
7.171963e+14
8.863758e+14
1.045405e+15
1.186926e+15
1.324115e+15
1.448851e+15
1.554156e+15
1.639726e+15
1.704359e+15
1.74675e+15
1.766936e+15
1.766921e+15
1.746735e+15
1.70439e+15
1.639849e+15
1.554373e+15
1.449112e+15
1.324358e+15
1.187089e+15
1.045447e+15
8.863196e+14
7.170519e+14
5.29572e+14
3.788437e+14
2.62123e+14
1.50945e+14
1.955008e+14
3.283462e+14
4.843715e+14
6.223548e+14
8.440501e+14
1.026521e+15
1.187117e+15
1.34301e+15
1.489076e+15
1.61921e+15
1.729914e+15
1.819505e+15
1.887377e+15
1.93308e+15
1.956425e+15
1.956391e+15
1.932998e+15
1.887301e+15
1.819505e+15
1.730015e+15
1.619396e+15
1.489299e+15
1.343191e+15
1.187205e+15
1.026463e+15
8.439264e+14
6.22189e+14
4.842718e+14
3.282504e+14
1.954902e+14
1.498345e+14
2.714476e+14
4.212383e+14
5.684023e+14
7.734919e+14
9.710692e+14
1.150625e+15
1.324578e+15
1.489343e+15
1.640525e+15
1.774736e+15
1.889225e+15
1.982809e+15
2.055703e+15
2.105755e+15
2.131511e+15
2.131442e+15
2.105573e+15
2.055473e+15
1.982615e+15
1.889111e+15
1.774725e+15
1.640595e+15
1.489422e+15
1.324612e+15
1.150577e+15
9.709431e+14
7.733262e+14
5.680749e+14
4.211713e+14
2.713958e+14
1.499156e+14
1.861259e+14
3.17559e+14
4.755911e+14
6.840507e+14
8.819549e+14
1.077185e+15
1.266852e+15
1.449584e+15
1.619752e+15
1.775019e+15
1.912644e+15
2.032545e+15
2.131367e+15
2.207649e+15
2.259396e+15
2.285614e+15
2.285516e+15
2.259131e+15
2.2073e+15
2.131033e+15
2.032299e+15
1.912534e+15
1.775038e+15
1.619836e+15
1.449684e+15
1.266902e+15
1.077126e+15
8.818534e+14
6.837263e+14
4.753695e+14
3.174828e+14
1.861738e+14
2.083826e+14
3.582632e+14
5.296587e+14
7.591534e+14
9.676811e+14
1.165439e+15
1.365559e+15
1.555101e+15
1.730665e+15
1.889735e+15
2.032763e+15
2.157582e+15
2.259455e+15
2.336716e+15
2.388489e+15
2.414443e+15
2.414356e+15
2.388263e+15
2.336443e+15
2.259245e+15
2.15752e+15
2.032892e+15
1.890048e+15
1.731085e+15
1.555507e+15
1.36585e+15
1.165547e+15
9.676936e+14
7.588425e+14
5.292864e+14
3.57997e+14
2.082663e+14
2.336889e+14
4.167861e+14
5.782417e+14
8.16866e+14
1.028707e+15
1.239866e+15
1.446679e+15
1.640806e+15
1.820417e+15
1.983492e+15
2.131743e+15
2.259588e+15
2.362623e+15
2.439777e+15
2.491022e+15
2.516578e+15
2.516555e+15
2.490971e+15
2.439777e+15
2.362787e+15
2.25999e+15
2.132395e+15
1.984308e+15
1.821256e+15
1.641525e+15
1.44719e+15
1.240124e+15
1.02878e+15
8.165787e+14
5.777317e+14
4.161683e+14
2.33431e+14
1.558882e+14
2.902117e+14
4.490423e+14
6.585448e+14
8.651499e+14
1.075079e+15
1.294627e+15
1.506741e+15
1.705533e+15
1.888444e+15
2.056586e+15
2.208229e+15
2.337019e+15
2.439912e+15
2.51648e+15
2.567144e+15
2.592369e+15
2.592397e+15
2.56725e+15
2.516748e+15
2.440403e+15
2.337711e+15
2.209034e+15
2.057437e+15
1.889279e+15
1.706258e+15
1.507228e+15
1.294823e+15
1.07506e+15
8.648186e+14
6.57963e+14
4.484161e+14
2.89883e+14
1.557026e+14
1.755405e+14
3.025308e+14
4.62376e+14
6.894674e+14
8.948291e+14
1.105224e+15
1.329683e+15
1.545804e+15
1.748076e+15
1.934373e+15
2.106922e+15
2.26028e+15
2.389062e+15
2.491379e+15
2.567312e+15
2.617483e+15
2.642443e+15
2.642464e+15
2.617566e+15
2.567494e+15
2.491695e+15
2.389531e+15
2.260876e+15
2.107602e+15
1.93509e+15
1.748734e+15
1.546206e+15
1.329744e+15
1.105057e+15
8.944516e+14
6.889305e+14
4.618638e+14
3.022333e+14
1.754837e+14
1.800465e+14
3.073423e+14
4.689007e+14
7.018733e+14
9.086144e+14
1.119939e+15
1.346847e+15
1.565017e+15
1.768427e+15
1.95794e+15
2.132996e+15
2.286867e+15
2.41536e+15
2.517187e+15
2.5927e+15
2.642593e+15
2.667436e+15
2.66749e+15
2.642766e+15
2.592983e+15
2.51756e+15
2.415833e+15
2.287444e+15
2.133666e+15
1.958689e+15
1.76912e+15
1.565416e+15
1.34687e+15
1.119705e+15
9.082219e+14
7.014218e+14
4.685791e+14
3.071532e+14
1.800025e+14
1.800535e+14
3.073773e+14
4.689852e+14
7.019003e+14
9.08644e+14
1.119986e+15
1.346925e+15
1.565149e+15
1.768579e+15
1.958072e+15
2.133145e+15
2.2871e+15
2.415632e+15
2.51734e+15
2.592724e+15
2.642551e+15
2.667409e+15
2.667536e+15
2.642902e+15
2.593195e+15
2.51782e+15
2.416108e+15
2.287705e+15
2.1339e+15
1.958899e+15
1.769322e+15
1.565624e+15
1.347064e+15
1.11987e+15
9.083784e+14
7.015651e+14
4.687047e+14
3.07246e+14
1.800636e+14
1.756401e+14
3.025942e+14
4.623983e+14
6.894694e+14
8.948886e+14
1.105346e+15
1.329885e+15
1.546167e+15
1.748512e+15
1.934796e+15
2.10739e+15
2.260832e+15
2.389629e+15
2.491816e+15
2.567538e+15
2.617527e+15
2.642436e+15
2.642547e+15
2.617828e+15
2.567947e+15
2.492298e+15
2.390209e+15
2.26155e+15
2.108212e+15
1.935623e+15
1.749236e+15
1.546707e+15
1.330192e+15
1.105443e+15
8.948838e+14
6.893864e+14
4.622932e+14
3.025605e+14
1.756652e+14
1.560282e+14
2.901236e+14
4.488957e+14
6.584773e+14
8.651933e+14
1.075248e+15
1.294887e+15
1.507201e+15
1.706137e+15
1.88911e+15
2.057298e+15
2.208983e+15
2.33773e+15
2.440469e+15
2.516826e+15
2.567311e+15
2.592459e+15
2.592521e+15
2.567507e+15
2.517159e+15
2.440955e+15
2.338377e+15
2.209766e+15
2.058139e+15
1.889896e+15
1.706806e+15
1.50775e+15
1.295289e+15
1.075478e+15
8.654014e+14
6.586266e+14
4.490095e+14
2.902235e+14
1.560654e+14
2.336956e+14
4.165033e+14
5.781749e+14
8.169042e+14
1.028918e+15
1.240118e+15
1.447107e+15
1.641385e+15
1.821129e+15
1.984279e+15
2.13254e+15
2.260298e+15
2.363186e+15
2.440197e+15
2.491369e+15
2.516937e+15
2.517018e+15
2.49162e+15
2.440626e+15
2.363798e+15
2.261069e+15
2.133408e+15
1.985164e+15
1.821949e+15
1.642095e+15
1.447688e+15
1.240583e+15
1.029195e+15
8.172218e+14
5.784134e+14
4.167871e+14
2.337668e+14
2.083908e+14
3.582578e+14
5.296583e+14
7.591422e+14
9.678944e+14
1.165645e+15
1.365917e+15
1.555561e+15
1.731256e+15
1.890412e+15
2.033441e+15
2.158209e+15
2.260039e+15
2.337306e+15
2.389156e+15
2.415252e+15
2.415389e+15
2.389565e+15
2.33797e+15
2.260922e+15
2.159241e+15
2.034517e+15
1.891441e+15
1.732202e+15
1.556375e+15
1.366569e+15
1.166198e+15
9.682053e+14
7.595233e+14
5.29874e+14
3.583714e+14
2.08408e+14
1.862731e+14
3.177248e+14
4.75765e+14
6.840347e+14
8.821018e+14
1.077398e+15
1.267173e+15
1.449953e+15
1.620214e+15
1.775574e+15
1.913261e+15
2.033249e+15
2.132209e+15
2.208675e+15
2.260647e+15
2.2871e+15
2.287278e+15
2.261168e+15
2.209509e+15
2.133301e+15
2.03451e+15
1.914562e+15
1.776792e+15
1.621304e+15
1.450868e+15
1.267892e+15
1.078017e+15
8.825099e+14
6.844563e+14
4.758356e+14
3.177091e+14
1.862153e+14
1.499653e+14
2.715743e+14
4.215735e+14
5.683994e+14
7.735199e+14
9.712543e+14
1.150908e+15
1.324922e+15
1.48979e+15
1.641134e+15
1.775543e+15
1.890281e+15
1.984162e+15
2.057357e+15
2.107699e+15
2.133704e+15
2.133875e+15
2.108196e+15
2.058147e+15
1.985209e+15
1.891515e+15
1.776846e+15
1.642394e+15
1.490936e+15
1.325883e+15
1.151668e+15
9.719345e+14
7.740205e+14
5.688202e+14
4.214221e+14
2.716023e+14
1.499182e+14
1.955722e+14
3.283958e+14
4.846021e+14
6.222674e+14
8.442657e+14
1.026813e+15
1.187539e+15
1.343612e+15
1.489931e+15
1.620361e+15
1.731389e+15
1.821338e+15
1.889539e+15
1.935524e+15
1.959079e+15
1.959213e+15
1.935908e+15
1.890145e+15
1.822149e+15
1.732365e+15
1.621417e+15
1.490997e+15
1.344631e+15
1.188449e+15
1.02759e+15
8.448854e+14
6.227821e+14
4.84782e+14
3.284681e+14
1.955783e+14
1.510046e+14
2.623465e+14
3.790915e+14
5.301008e+14
7.175855e+14
8.86802e+14
1.045981e+15
1.187725e+15
1.325222e+15
1.450286e+15
1.555925e+15
1.641824e+15
1.706763e+15
1.74941e+15
1.769758e+15
1.769848e+15
1.749673e+15
1.707188e+15
1.642403e+15
1.556627e+15
1.451069e+15
1.326038e+15
1.188524e+15
1.04669e+15
8.873569e+14
7.179421e+14
5.302554e+14
3.791558e+14
2.623972e+14
1.510949e+14
1.689337e+14
2.914791e+14
4.366943e+14
5.64285e+14
7.360897e+14
8.868836e+14
1.027111e+15
1.151268e+15
1.267537e+15
1.366347e+15
1.44762e+15
1.507847e+15
1.546987e+15
1.566159e+15
1.566216e+15
1.547179e+15
1.508161e+15
1.44805e+15
1.366897e+15
1.268176e+15
1.151908e+15
1.027705e+15
8.874162e+14
7.365056e+14
5.645771e+14
4.366785e+14
2.914849e+14
1.690129e+14
1.809974e+14
3.151195e+14
4.560159e+14
5.642391e+14
7.176838e+14
8.445395e+14
9.715818e+14
1.077707e+15
1.166043e+15
1.240564e+15
1.295395e+15
1.33048e+15
1.347612e+15
1.347643e+15
1.330645e+15
1.29569e+15
1.240962e+15
1.166531e+15
1.078257e+15
9.720744e+14
8.449302e+14
7.180407e+14
5.645116e+14
4.561398e+14
3.151889e+14
1.810231e+14
1.876576e+14
3.151061e+14
4.367595e+14
5.302075e+14
6.2266e+14
7.738673e+14
8.823817e+14
9.681671e+14
1.029213e+15
1.07558e+15
1.105755e+15
1.120522e+15
1.12051e+15
1.105885e+15
1.075831e+15
1.029556e+15
9.685992e+14
8.827744e+14
7.741359e+14
6.227346e+14
5.303951e+14
4.369133e+14
3.152094e+14
1.87694e+14
1.809401e+14
2.913844e+14
3.792258e+14
4.847556e+14
5.685273e+14
6.842514e+14
7.594098e+14
8.172146e+14
8.655318e+14
8.952528e+14
9.090055e+14
9.089543e+14
8.952511e+14
8.655751e+14
8.173118e+14