/*--------------------------------*- C++ -*----------------------------------*\
  =========                 |
  \\      /  F ield         | OpenFOAM: The Open Source CFD Toolbox
   \\    /   O peration     | Website:  https://openfoam.org
    \\  /    A nd           | Version:  6
     \\/     M anipulation  |
\*---------------------------------------------------------------------------*/
FoamFile
{
    version     2.0;
    format      ascii;
    class       volScalarField;
    location    "50/region0/neutronTransport";
    object      precursor3.dnp;
}
// * * * * * * * * * * * * * * * * * * * * * * * * * * * * * * * * * * * * * //

dimensions      [0 -3 0 0 0 0 0];

internalField   nonuniform List<scalar> 
203709
(
8.738533e+14
8.912128e+14
8.599664e+14
7.679087e+14
7.607104e+14
8.11458e+14
8.92235e+14
8.742303e+14
8.380199e+14
8.030503e+14
7.746429e+14
6.603129e+14
6.531503e+14
7.14061e+14
7.328233e+14
7.424712e+14
7.935677e+14
7.97677e+14
7.754469e+14
7.159325e+14
6.928641e+14
6.453917e+14
5.900526e+14
5.119173e+14
6.862552e+14
6.820983e+14
7.174691e+14
7.164986e+14
7.202013e+14
7.385819e+14
7.298529e+14
6.862787e+14
6.671425e+14
6.889152e+14
6.260989e+14
5.848273e+14
5.61343e+14
5.170745e+14
6.799394e+14
6.576797e+14
6.496537e+14
6.279681e+14
6.13036e+14
6.150566e+14
6.225054e+14
6.240327e+14
6.263352e+14
6.024306e+14
5.768134e+14
5.957196e+14
5.677189e+14
5.620577e+14
6.80799e+14
6.255159e+14
5.812628e+14
5.516727e+14
5.370458e+14
5.460772e+14
5.814927e+14
6.004947e+14
6.106618e+14
6.180521e+14
6.193111e+14
6.130407e+14
6.095245e+14
6.006521e+14
6.434272e+14
6.313218e+14
6.915786e+14
6.088516e+14
5.240399e+14
4.279543e+14
3.614024e+14
5.225659e+14
5.886366e+14
6.275024e+14
6.466835e+14
6.511781e+14
6.541466e+14
6.5398e+14
6.601305e+14
6.63859e+14
6.742926e+14
6.794764e+14
7.551673e+14
7.292296e+14
6.504529e+14
5.66624e+14
4.867807e+14
4.792434e+14
5.415533e+14
6.01901e+14
6.37413e+14
6.613792e+14
6.775233e+14
6.924282e+14
7.011968e+14
7.13797e+14
7.227078e+14
7.323181e+14
7.343592e+14
7.703209e+14
7.427427e+14
7.303473e+14
6.880244e+14
6.361903e+14
6.031901e+14
6.213957e+14
6.407738e+14
6.622347e+14
6.739388e+14
6.882346e+14
6.971092e+14
7.158208e+14
7.29401e+14
7.498509e+14
7.673119e+14
7.806385e+14
7.937363e+14
8.030888e+14
7.44041e+14
7.339627e+14
7.128422e+14
6.872662e+14
6.75152e+14
6.816165e+14
6.836972e+14
6.926871e+14
6.961676e+14
7.070834e+14
7.193614e+14
7.419178e+14
7.626868e+14
7.900127e+14
8.141082e+14
8.316339e+14
8.489572e+14
8.609181e+14
7.600312e+14
7.43362e+14
7.313604e+14
7.173515e+14
7.106425e+14
7.108675e+14
7.097634e+14
7.103108e+14
7.16592e+14
7.299322e+14
7.493192e+14
7.766996e+14
8.077755e+14
8.418553e+14
8.712971e+14
8.904637e+14
9.197569e+14
9.27883e+14
7.630417e+14
7.521531e+14
7.425346e+14
7.346851e+14
7.277952e+14
7.244035e+14
7.248696e+14
7.338663e+14
7.555993e+14
7.880222e+14
8.25967e+14
8.6683e+14
9.083566e+14
9.412513e+14
9.621648e+14
9.959169e+14
7.60581e+14
7.621636e+14
7.534003e+14
7.419688e+14
7.334649e+14
7.332438e+14
7.449269e+14
7.707067e+14
8.063277e+14
8.495021e+14
8.955527e+14
9.433437e+14
9.903992e+14
1.019546e+15
1.049818e+15
1.077022e+15
7.603174e+14
7.54243e+14
7.431801e+14
7.434606e+14
7.581288e+14
7.86932e+14
8.308789e+14
8.771338e+14
9.319742e+14
9.837157e+14
1.036224e+15
1.089319e+15
1.11051e+15
1.140576e+15
7.204893e+14
7.460951e+14
7.551426e+14
7.853242e+14
8.235978e+14
8.749935e+14
9.325709e+14
9.826806e+14
1.036575e+15
1.088771e+15
1.145064e+15
1.20695e+15
1.214153e+15
1.212964e+15
7.998329e+14
8.061679e+14
8.982338e+14
9.394894e+14
1.004161e+15
1.054057e+15
1.096446e+15
1.148981e+15
1.208529e+15
1.266452e+15
1.322731e+15
1.268793e+15
9.960143e+14
1.020214e+15
1.13418e+15
1.170637e+15
1.213463e+15
1.255148e+15
1.307433e+15
1.276561e+15
1.145351e+15
1.215832e+15
1.271155e+15
1.240573e+15
1.138032e+15
1.140236e+15
1.092197e+15
1.050256e+15
1.003947e+15
9.495019e+14
8.98362e+14
8.618534e+14
8.428742e+14
7.678437e+14
9.989915e+14
1.07547e+15
1.125606e+15
1.110487e+15
1.067754e+15
1.030377e+15
9.878581e+14
9.368303e+14
8.876692e+14
8.474923e+14
8.246304e+14
7.925659e+14
7.494273e+14
6.462536e+14
9.092306e+14
9.977028e+14
1.033857e+15
1.069237e+15
1.06406e+15
1.032013e+15
1.003562e+15
9.676411e+14
9.193737e+14
8.729391e+14
8.300891e+14
8.030579e+14
7.678901e+14
7.348288e+14
6.840586e+14
5.826594e+14
8.167194e+14
9.220945e+14
9.529586e+14
9.684258e+14
9.98877e+14
1.020027e+15
9.998945e+14
1.00132e+15
9.857712e+14
9.428204e+14
8.930181e+14
8.108383e+14
7.793192e+14
7.416556e+14
7.095714e+14
6.609423e+14
6.064022e+14
5.559409e+14
7.704402e+14
8.43601e+14
8.771668e+14
8.786648e+14
8.939312e+14
9.358018e+14
1.00508e+15
1.010139e+15
9.928269e+14
9.778911e+14
9.396721e+14
8.983076e+14
8.543166e+14
8.135532e+14
7.310906e+14
6.955597e+14
6.517944e+14
6.053048e+14
5.730127e+14
5.411323e+14
7.732824e+14
8.032485e+14
8.083655e+14
8.114008e+14
8.513184e+14
8.91603e+14
9.226059e+14
9.702548e+14
9.665518e+14
9.497649e+14
9.476091e+14
9.213256e+14
8.708049e+14
8.347074e+14
8.041211e+14
7.803419e+14
7.209472e+14
6.650231e+14
6.196029e+14
5.831474e+14
5.60093e+14
5.434558e+14
7.398925e+14
7.737191e+14
7.761975e+14
8.020484e+14
8.462939e+14
8.623571e+14
9.137208e+14
9.335227e+14
9.454724e+14
9.487992e+14
9.478307e+14
9.016345e+14
8.681657e+14
8.6172e+14
8.030305e+14
7.578204e+14
6.91993e+14
6.534373e+14
6.366702e+14
6.274877e+14
6.158469e+14
5.992536e+14
7.79005e+14
7.776175e+14
7.540941e+14
7.655664e+14
7.938095e+14
8.250932e+14
8.649327e+14
8.939414e+14
8.881884e+14
8.744273e+14
8.580005e+14
8.549712e+14
8.497709e+14
8.561415e+14
8.259356e+14
8.075488e+14
8.322713e+14
7.902787e+14
7.45878e+14
7.307438e+14
7.130011e+14
6.97305e+14
6.994735e+14
6.881829e+14
7.70881e+14
7.641183e+14
7.327547e+14
7.611624e+14
7.885894e+14
8.177892e+14
8.17724e+14
8.038662e+14
7.627565e+14
7.41972e+14
7.632986e+14
7.790838e+14
7.96519e+14
8.179398e+14
8.315416e+14
8.432411e+14
8.360192e+14
8.069637e+14
7.863176e+14
7.337157e+14
7.49127e+14
7.427383e+14
7.366039e+14
7.460229e+14
7.680887e+14
7.506393e+14
7.30919e+14
7.543916e+14
7.754627e+14
7.975405e+14
7.550046e+14
6.870887e+14
6.278635e+14
7.034582e+14
7.507945e+14
7.741871e+14
7.889455e+14
8.001611e+14
8.098373e+14
8.214874e+14
8.361128e+14
8.402887e+14
8.347025e+14
7.966272e+14
8.065427e+14
7.973282e+14
7.95906e+14
8.08539e+14
7.726772e+14
7.514635e+14
7.365333e+14
7.442781e+14
7.899079e+14
7.985557e+14
7.549341e+14
6.778756e+14
6.469208e+14
7.035392e+14
7.492879e+14
7.776442e+14
7.984368e+14
8.181746e+14
8.38848e+14
8.597409e+14
8.789829e+14
8.912609e+14
8.962758e+14
8.530905e+14
8.44932e+14
8.529632e+14
8.536323e+14
8.689035e+14
7.80227e+14
7.594821e+14
7.490557e+14
7.484582e+14
7.925077e+14
8.074628e+14
7.842563e+14
7.518765e+14
7.577016e+14
7.730396e+14
7.864263e+14
7.989132e+14
8.136276e+14
8.321103e+14
8.559929e+14
8.830877e+14
9.108977e+14
9.332657e+14
9.418793e+14
9.343134e+14
9.051101e+14
9.189308e+14
9.179544e+14
9.285856e+14
7.86681e+14
7.69436e+14
7.605361e+14
7.567501e+14
7.901668e+14
8.094421e+14
8.008015e+14
7.907264e+14
7.914258e+14
7.97426e+14
8.051209e+14
8.149859e+14
8.303191e+14
8.529007e+14
8.835046e+14
9.191518e+14
9.55752e+14
9.858693e+14
9.986549e+14
9.926146e+14
9.678359e+14
9.833891e+14
9.810526e+14
9.880169e+14
7.876312e+14
7.753375e+14
7.656745e+14
7.633583e+14
7.793592e+14
8.035762e+14
8.059825e+14
8.040473e+14
8.057977e+14
8.093874e+14
8.15863e+14
8.282606e+14
8.497068e+14
8.818239e+14
9.236077e+14
9.710768e+14
1.017652e+15
1.053638e+15
1.064649e+15
1.059864e+15
1.047562e+15
1.056377e+15
1.047424e+15
1.05103e+15
7.869844e+14
7.770163e+14
7.658346e+14
7.703946e+14
7.834482e+14
8.017023e+14
8.085349e+14
8.076966e+14
8.088289e+14
8.131663e+14
8.241774e+14
8.455786e+14
8.797661e+14
9.270425e+14
9.834445e+14
1.044053e+15
1.099862e+15
1.137221e+15
1.142137e+15
1.127471e+15
1.140939e+15
1.136951e+15
1.115868e+15
1.113218e+15
7.846095e+14
7.747334e+14
7.623216e+14
7.636645e+14
7.752778e+14
7.91306e+14
8.034565e+14
8.054419e+14
8.089107e+14
8.200494e+14
8.434366e+14
8.81426e+14
9.337502e+14
9.988941e+14
1.069102e+15
1.141031e+15
1.201458e+15
1.23328e+15
1.238265e+15
1.233484e+15
1.228572e+15
1.209464e+15
1.177855e+15
1.169652e+15
7.408344e+14
7.653656e+14
7.495765e+14
7.5062e+14
7.517891e+14
7.772174e+14
7.902397e+14
7.987515e+14
8.140491e+14
8.440235e+14
8.895578e+14
9.487567e+14
1.019385e+15
1.100554e+15
1.178398e+15
1.257454e+15
1.313486e+15
1.33491e+15
1.330428e+15
1.332646e+15
1.312884e+15
1.271896e+15
1.240904e+15
1.231534e+15
7.676894e+14
7.496298e+14
7.376501e+14
7.400034e+14
7.573121e+14
7.825829e+14
8.149915e+14
8.593065e+14
9.14234e+14
9.803078e+14
1.054168e+15
1.134973e+15
1.225354e+15
1.29916e+15
1.382878e+15
1.424225e+15
1.45677e+15
1.458584e+15
1.410129e+15
1.381727e+15
1.318532e+15
1.274838e+15
7.622504e+14
8.037017e+14
7.889444e+14
7.912255e+14
8.036627e+14
8.563011e+14
9.066293e+14
9.733223e+14
1.036179e+15
1.103093e+15
1.177741e+15
1.259339e+15
1.354649e+15
1.411552e+15
1.508812e+15
1.524155e+15
1.54102e+15
1.512261e+15
1.481375e+15
1.449249e+15
1.376317e+15
1.310672e+15
7.791076e+14
8.671294e+14
8.788373e+14
9.144999e+14
9.460534e+14
1.009951e+15
1.087434e+15
1.154923e+15
1.226568e+15
1.294446e+15
1.37027e+15
1.475412e+15
1.50846e+15
1.593706e+15
1.578618e+15
1.560124e+15
1.581257e+15
1.566481e+15
1.515909e+15
1.362343e+15
8.628319e+14
9.966724e+14
1.046612e+15
1.062975e+15
1.126512e+15
1.172755e+15
1.22414e+15
1.295218e+15
1.384864e+15
1.456614e+15
1.549499e+15
1.555621e+15
1.616253e+15
1.651299e+15
1.636882e+15
1.666187e+15
1.627322e+15
1.491826e+15
9.606844e+14
1.159156e+15
1.161839e+15
1.236825e+15
1.269118e+15
1.303024e+15
1.349709e+15
1.420101e+15
1.485053e+15
1.5655e+15
1.623851e+15
1.701093e+15
1.733946e+15
1.695554e+15
1.714451e+15
1.612497e+15
1.120432e+15
1.205425e+15
1.336293e+15
1.356328e+15
1.37521e+15
1.4226e+15
1.492161e+15
1.564228e+15
1.639038e+15
1.702729e+15
1.75676e+15
1.786845e+15
1.734024e+15
1.729079e+15
1.268745e+15
1.387435e+15
1.402763e+15
1.446458e+15
1.508914e+15
1.577847e+15
1.654445e+15
1.726184e+15
1.785654e+15
1.796756e+15
1.28412e+15
1.178465e+15
1.117762e+15
1.052262e+15
9.843021e+14
9.316546e+14
9.104893e+14
9.265494e+14
1.169153e+15
1.219332e+15
1.249959e+15
1.228069e+15
1.151164e+15
1.091665e+15
1.028984e+15
9.656567e+14
9.1714e+14
8.976544e+14
9.045127e+14
8.88916e+14
8.776585e+14
8.634587e+14
1.101584e+15
1.117979e+15
1.184852e+15
1.224611e+15
1.205403e+15
1.138151e+15
1.082306e+15
1.023854e+15
9.632167e+14
9.140738e+14
8.899839e+14
8.874441e+14
8.704252e+14
8.458721e+14
8.290885e+14
7.320839e+14
9.979181e+14
1.021177e+15
1.075132e+15
1.094704e+15
1.157855e+15
1.203322e+15
1.207491e+15
1.150568e+15
1.096704e+15
1.04115e+15
9.820477e+14
9.317837e+14
9.031875e+14
8.919788e+14
8.595954e+14
8.060178e+14
7.868401e+14
7.108907e+14
5.95795e+14
5.361229e+14
9.560442e+14
9.702491e+14
9.903168e+14
1.039174e+15
1.077134e+15
1.162767e+15
1.197347e+15
1.20028e+15
1.1556e+15
1.109152e+15
1.060607e+15
1.004285e+15
9.508359e+14
9.132624e+14
8.928907e+14
8.62334e+14
8.203748e+14
7.775693e+14
6.606678e+14
5.671837e+14
5.279735e+14
3.963913e+14
9.544538e+14
9.490193e+14
9.385138e+14
9.578361e+14
1.023439e+15
1.070921e+15
1.142532e+15
1.175563e+15
1.187239e+15
1.15842e+15
1.12129e+15
1.080566e+15
1.028543e+15
9.733591e+14
9.283481e+14
8.976236e+14
8.594531e+14
8.206669e+14
7.798885e+14
7.01563e+14
5.32769e+14
4.858077e+14
3.925484e+14
2.859635e+14
9.136725e+14
9.164835e+14
9.076047e+14
9.504201e+14
1.017967e+15
1.048267e+15
1.119159e+15
1.155366e+15
1.172692e+15
1.153863e+15
1.120199e+15
1.08769e+15
1.041256e+15
9.889506e+14
9.481087e+14
9.178359e+14
8.794082e+14
8.378351e+14
7.916974e+14
7.208284e+14
6.312357e+14
5.269191e+14
4.448385e+14
3.662223e+14
9.141164e+14
9.226684e+14
8.907239e+14
9.066429e+14
9.474271e+14
9.935212e+14
1.039968e+15
1.11113e+15
1.146809e+15
1.153048e+15
1.147545e+15
1.124681e+15
1.101215e+15
1.065518e+15
1.020023e+15
9.82608e+14
9.506807e+14
9.107721e+14
8.67774e+14
8.180777e+14
7.512599e+14
6.647418e+14
6.213425e+14
5.722287e+14
5.136305e+14
4.422587e+14
9.385744e+14
9.2484e+14
8.963936e+14
8.971649e+14
9.016284e+14
9.247633e+14
9.948355e+14
1.046911e+15
1.102499e+15
1.140496e+15
1.146709e+15
1.140359e+15
1.119072e+15
1.107096e+15
1.079707e+15
1.032056e+15
9.99529e+14
9.679622e+14
9.362328e+14
8.943847e+14
8.456794e+14
7.892307e+14
7.238818e+14
6.481862e+14
6.184878e+14
6.057656e+14
5.863566e+14
5.749816e+14
9.205872e+14
9.025863e+14
8.736103e+14
8.873584e+14
8.807404e+14
9.349752e+14
1.015714e+15
1.070919e+15
1.11774e+15
1.151056e+15
1.157587e+15
1.157965e+15
1.152147e+15
1.14519e+15
1.099833e+15
1.059665e+15
1.042068e+15
9.87356e+14
9.399165e+14
8.829763e+14
8.384293e+14
8.075624e+14
7.906704e+14
7.643167e+14
7.155903e+14
7.185133e+14
6.985732e+14
6.843733e+14
9.047466e+14
8.789072e+14
8.721429e+14
8.790696e+14
8.726575e+14
9.646563e+14
1.047531e+15
1.10058e+15
1.146528e+15
1.166749e+15
1.160803e+15
1.147153e+15
1.127519e+15
1.114299e+15
1.097902e+15
1.091382e+15
1.055743e+15
1.032445e+15
1.040844e+15
1.007384e+15
9.785288e+14
9.630887e+14
9.363637e+14
8.968084e+14
8.316227e+14
7.842733e+14
7.652056e+14
7.488824e+14
9.29005e+14
9.266325e+14
8.78053e+14
8.675782e+14
8.620261e+14
8.6765e+14
9.813677e+14
1.067628e+15
1.110207e+15
1.11765e+15
1.090635e+15
1.042247e+15
1.013583e+15
1.028325e+15
1.048662e+15
1.06962e+15
1.093442e+15
1.106657e+15
1.111579e+15
1.089246e+15
1.058263e+15
1.035206e+15
9.999577e+14
9.82764e+14
9.575553e+14
9.177462e+14
8.479427e+14
8.263935e+14
7.994418e+14
7.56677e+14
9.099126e+14
9.006035e+14
8.667043e+14
8.605909e+14
8.557522e+14
8.662169e+14
9.653381e+14
1.068833e+15
1.109792e+15
1.066622e+15
9.846625e+14
9.192957e+14
9.702089e+14
1.032524e+15
1.056554e+15
1.072238e+15
1.083204e+15
1.090246e+15
1.098022e+15
1.107713e+15
1.103239e+15
1.08888e+15
1.055304e+15
1.040654e+15
1.017861e+15
9.826629e+14
9.057061e+14
8.784864e+14
8.282669e+14
7.906576e+14
8.982064e+14
8.839279e+14
8.560563e+14
8.54181e+14
8.550902e+14
8.711142e+14
9.517211e+14
1.055735e+15
1.114297e+15
1.07951e+15
9.689355e+14
8.99504e+14
9.900296e+14
1.054654e+15
1.087688e+15
1.110509e+15
1.13093e+15
1.149845e+15
1.166035e+15
1.176792e+15
1.176676e+15
1.164338e+15
1.126625e+15
1.101514e+15
1.082645e+15
1.04388e+15
9.650416e+14
9.331257e+14
8.760187e+14
8.313224e+14
8.909493e+14
8.734016e+14
8.490366e+14
8.499494e+14
8.565627e+14
8.772439e+14
9.432653e+14
1.034719e+15
1.102846e+15
1.112294e+15
1.069873e+15
1.078914e+15
1.101843e+15
1.118784e+15
1.131811e+15
1.146335e+15
1.16413e+15
1.185673e+15
1.207475e+15
1.226238e+15
1.235422e+15
1.228283e+15
1.204244e+15
1.171997e+15
1.148626e+15
1.10375e+15
1.02363e+15
9.851385e+14
9.241788e+14
8.762299e+14
8.807973e+14
8.642854e+14
8.435049e+14
8.46939e+14
8.577622e+14
8.810645e+14
9.360821e+14
1.012115e+15
1.079587e+15
1.117507e+15
1.124689e+15
1.137082e+15
1.146986e+15
1.152953e+15
1.159874e+15
1.173257e+15
1.194422e+15
1.222604e+15
1.253158e+15
1.280979e+15
1.298029e+15
1.295949e+15
1.274153e+15
1.244969e+15
1.216136e+15
1.162153e+15
1.079603e+15
1.032456e+15
9.688601e+14
9.180104e+14
8.700846e+14
8.54051e+14
8.361972e+14
8.422214e+14
8.555948e+14
8.795409e+14
9.258461e+14
9.888786e+14
1.050105e+15
1.092747e+15
1.11967e+15
1.135247e+15
1.14437e+15
1.151631e+15
1.164088e+15
1.186393e+15
1.218955e+15
1.259205e+15
1.301913e+15
1.340156e+15
1.363874e+15
1.363702e+15
1.344796e+15
1.323715e+15
1.286246e+15
1.217609e+15
1.131273e+15
1.071688e+15
1.003534e+15
9.534433e+14
8.780902e+14
8.564502e+14
8.358362e+14
8.402868e+14
8.513928e+14
8.727206e+14
9.107269e+14
9.646115e+14
1.018045e+15
1.05837e+15
1.087336e+15
1.104674e+15
1.117819e+15
1.13464e+15
1.161456e+15
1.200543e+15
1.249958e+15
1.305101e+15
1.360386e+15
1.407545e+15
1.433496e+15
1.430849e+15
1.412476e+15
1.390611e+15
1.346501e+15
1.261337e+15
1.174977e+15
1.098282e+15
1.025803e+15
9.808976e+14
8.706359e+14
8.641221e+14
8.399254e+14
8.38626e+14
8.44199e+14
8.61345e+14
8.921189e+14
9.360455e+14
9.81433e+14
1.018485e+15
1.041974e+15
1.062494e+15
1.088032e+15
1.125282e+15
1.175409e+15
1.235369e+15
1.301226e+15
1.368517e+15
1.432798e+15
1.483814e+15
1.504991e+15
1.500111e+15
1.487855e+15
1.456661e+15
1.391006e+15
1.289558e+15
1.209613e+15
1.107633e+15
1.03986e+15
1.002456e+15
8.573222e+14
8.36956e+14
8.394457e+14
8.389858e+14
8.447633e+14
8.643666e+14
8.950411e+14
9.330623e+14
9.605259e+14
9.88169e+14
1.030558e+15
1.086512e+15
1.153971e+15
1.227053e+15
1.301078e+15
1.37509e+15
1.447295e+15
1.514495e+15
1.561418e+15
1.570989e+15
1.562046e+15
1.543704e+15
1.50719e+15
1.415099e+15
1.317805e+15
1.237967e+15
1.104731e+15
1.039258e+15
8.7815e+14
8.526514e+14
8.231219e+14
8.298869e+14
8.298019e+14
8.407882e+14
8.638239e+14
8.945089e+14
9.350605e+14
9.929513e+14
1.069328e+15
1.155308e+15
1.239408e+15
1.316079e+15
1.387917e+15
1.458751e+15
1.529207e+15
1.593663e+15
1.629771e+15
1.632326e+15
1.621808e+15
1.594502e+15
1.542753e+15
1.429608e+15
1.339035e+15
1.203661e+15
1.110539e+15
1.05544e+15
8.828675e+14
9.011215e+14
8.788503e+14
8.897239e+14
8.976568e+14
9.039732e+14
9.295546e+14
9.721758e+14
1.032127e+15
1.108428e+15
1.19146e+15
1.270173e+15
1.341503e+15
1.403638e+15
1.466912e+15
1.532038e+15
1.601009e+15
1.661113e+15
1.685418e+15
1.683671e+15
1.658597e+15
1.632543e+15
1.573687e+15
1.470508e+15
1.367791e+15
1.207647e+15
1.130012e+15
1.055384e+15
8.771971e+14
9.456235e+14
9.297052e+14
9.643461e+14
9.933807e+14
1.029646e+15
1.094582e+15
1.168555e+15
1.243385e+15
1.308251e+15
1.365189e+15
1.412504e+15
1.465575e+15
1.527669e+15
1.591287e+15
1.664216e+15
1.71771e+15
1.731889e+15
1.730945e+15
1.692451e+15
1.669152e+15
1.619048e+15
1.487332e+15
1.32466e+15
1.254942e+15
1.133022e+15
9.668718e+14
1.007299e+15
1.028072e+15
1.083198e+15
1.154951e+15
1.216062e+15
1.279367e+15
1.342034e+15
1.394617e+15
1.431788e+15
1.462297e+15
1.5177e+15
1.582033e+15
1.648135e+15
1.726678e+15
1.777877e+15
1.777983e+15
1.771276e+15
1.729596e+15
1.724233e+15
1.642059e+15
1.460025e+15
1.381529e+15
1.284283e+15
1.001226e+15
1.101081e+15
1.142292e+15
1.14779e+15
1.236776e+15
1.315122e+15
1.358334e+15
1.407263e+15
1.448071e+15
1.475018e+15
1.514583e+15
1.57725e+15
1.645606e+15
1.714729e+15
1.779117e+15
1.821449e+15
1.823435e+15
1.813126e+15
1.773911e+15
1.750603e+15
1.644556e+15
1.517807e+15
1.432374e+15
1.322263e+15
1.068783e+15
1.230937e+15
1.241117e+15
1.285594e+15
1.361741e+15
1.4285e+15
1.470928e+15
1.495968e+15
1.512659e+15
1.554055e+15
1.620711e+15
1.689146e+15
1.756724e+15
1.817541e+15
1.861415e+15
1.86992e+15
1.846371e+15
1.796397e+15
1.768822e+15
1.692935e+15
1.562869e+15
1.479546e+15
1.206578e+15
1.278998e+15
1.357802e+15
1.391307e+15
1.419202e+15
1.493257e+15
1.537659e+15
1.549615e+15
1.591686e+15
1.655689e+15
1.720348e+15
1.786417e+15
1.847209e+15
1.891126e+15
1.885588e+15
1.837646e+15
1.81042e+15
1.815248e+15
1.748587e+15
1.635315e+15
1.340095e+15
1.453923e+15
1.484588e+15
1.514506e+15
1.527812e+15
1.534593e+15
1.573838e+15
1.633486e+15
1.696981e+15
1.763303e+15
1.827142e+15
1.885581e+15
1.904513e+15
1.865488e+15
1.832009e+15
1.898405e+15
1.459988e+15
1.531808e+15
1.550085e+15
1.577752e+15
1.577667e+15
1.613559e+15
1.673146e+15
1.731964e+15
1.790379e+15
1.846296e+15
1.905752e+15
1.93761e+15
1.901333e+15
1.946286e+15
1.618805e+15
1.605579e+15
1.63622e+15
1.694198e+15
1.749683e+15
1.808094e+15
1.865411e+15
2.00595e+15
1.266385e+15
1.122662e+15
1.052654e+15
9.709273e+14
9.035734e+14
9.214724e+14
1.236161e+15
1.255295e+15
1.265585e+15
1.268373e+15
1.197925e+15
1.111367e+15
1.042983e+15
9.686623e+14
9.094962e+14
9.002518e+14
9.217164e+14
9.255427e+14
9.423723e+14
9.801411e+14
1.138888e+15
1.144327e+15
1.164432e+15
1.235691e+15
1.261242e+15
1.251508e+15
1.20139e+15
1.122644e+15
1.055881e+15
9.872925e+14
9.352762e+14
9.232095e+14
9.216161e+14
9.198447e+14
9.26656e+14
9.355567e+14
9.368191e+14
9.547099e+14
1.090787e+15
1.079346e+15
1.12058e+15
1.146152e+15
1.240693e+15
1.285657e+15
1.277902e+15
1.24318e+15
1.1724e+15
1.107856e+15
1.0418e+15
9.898598e+14
9.65058e+14
9.46496e+14
9.372051e+14
9.24454e+14
9.099338e+14
8.755309e+14
8.425822e+14
8.202499e+14
1.057628e+15
1.04406e+15
1.060244e+15
1.108689e+15
1.171937e+15
1.275511e+15
1.328136e+15
1.323683e+15
1.285351e+15
1.220369e+15
1.159393e+15
1.093592e+15
1.037445e+15
1.00118e+15
9.721341e+14
9.499921e+14
9.214333e+14
8.85628e+14
8.205185e+14
7.450118e+14
6.793687e+14
6.200902e+14
1.048898e+15
1.030345e+15
1.024022e+15
1.066256e+15
1.125756e+15
1.201804e+15
1.302347e+15
1.3579e+15
1.359205e+15
1.324338e+15
1.267706e+15
1.212e+15
1.145432e+15
1.08197e+15
1.031934e+15
9.884359e+14
9.524114e+14
9.116019e+14
8.556794e+14
7.862884e+14
7.045733e+14
6.204066e+14
5.504748e+14
5.052815e+14
1.047887e+15
1.027552e+15
1.021127e+15
1.03025e+15
1.07646e+15
1.140311e+15
1.217542e+15
1.315033e+15
1.37252e+15
1.381492e+15
1.354449e+15
1.308679e+15
1.261147e+15
1.196114e+15
1.126285e+15
1.062858e+15
1.004517e+15
9.516064e+14
9.008094e+14
8.344969e+14
7.632757e+14
6.839526e+14
6.096102e+14
5.445032e+14
4.960423e+14
4.654747e+14
1.060579e+15
1.022445e+15
1.017006e+15
1.019481e+15
1.033693e+15
1.080858e+15
1.142191e+15
1.218766e+15
1.310808e+15
1.367609e+15
1.384785e+15
1.368979e+15
1.336266e+15
1.298823e+15
1.239645e+15
1.167942e+15
1.102607e+15
1.044568e+15
9.839622e+14
9.268695e+14
8.479597e+14
7.780314e+14
6.944231e+14
6.077103e+14
5.254728e+14
4.609415e+14
4.64771e+14
4.447122e+14
1.091357e+15
1.050687e+15
1.013391e+15
1.009025e+15
1.015009e+15
1.033621e+15
1.073203e+15
1.132537e+15
1.204175e+15
1.299209e+15
1.362266e+15
1.391659e+15
1.387957e+15
1.366383e+15
1.338751e+15
1.290448e+15
1.227255e+15
1.15936e+15
1.09784e+15
1.033283e+15
9.724094e+14
8.962628e+14
8.180523e+14
7.4469e+14
6.606808e+14
5.555603e+14
4.529668e+14
5.088311e+14
4.717025e+14
4.381367e+14
1.044339e+15
1.020902e+15
1.00876e+15
1.009629e+15
1.009629e+15
1.024491e+15
1.058618e+15
1.126522e+15
1.205135e+15
1.295224e+15
1.35838e+15
1.393977e+15
1.403685e+15
1.393018e+15
1.372914e+15
1.335142e+15
1.280903e+15
1.220108e+15
1.158811e+15
1.093106e+15
1.030436e+15
9.606912e+14
8.860069e+14
8.053349e+14
7.435013e+14
6.812162e+14
6.210309e+14
5.654043e+14
5.810249e+14
5.017716e+14
1.060259e+15
1.027046e+15
1.016311e+15
1.007421e+15
1.001654e+15
9.980459e+14
1.014906e+15
1.060486e+15
1.135975e+15
1.220568e+15
1.300195e+15
1.358895e+15
1.388245e+15
1.392888e+15
1.381574e+15
1.370444e+15
1.341765e+15
1.292137e+15
1.246127e+15
1.196183e+15
1.143974e+15
1.086599e+15
1.022333e+15
9.561334e+14
8.885232e+14
8.15254e+14
7.655743e+14
7.329269e+14
6.826283e+14
6.654416e+14
6.243385e+14
6.373205e+14
1.045369e+15
1.019219e+15
1.012236e+15
1.001344e+15
9.970654e+14
9.892565e+14
1.019284e+15
1.08136e+15
1.173526e+15
1.26256e+15
1.332295e+15
1.375718e+15
1.393085e+15
1.397183e+15
1.394692e+15
1.390254e+15
1.34875e+15
1.309603e+15
1.279911e+15
1.217752e+15
1.159675e+15
1.096487e+15
1.039107e+15
9.950928e+14
9.702706e+14
9.458885e+14
9.040874e+14
8.732985e+14
8.258413e+14
7.629587e+14
7.434188e+14
7.333212e+14
1.027045e+15
1.010164e+15
1.011731e+15
9.991007e+14
9.911495e+14
9.943738e+14
1.034688e+15
1.12085e+15
1.23134e+15
1.323087e+15
1.381636e+15
1.408621e+15
1.411536e+15
1.404526e+15
1.390771e+15
1.371916e+15
1.350121e+15
1.337106e+15
1.295724e+15
1.268921e+15
1.266933e+15
1.234355e+15
1.208841e+15
1.186758e+15
1.155096e+15
1.111613e+15
1.051018e+15
9.896773e+14
9.219602e+14
8.474353e+14
8.038945e+14
7.845197e+14
1.007515e+15
1.007506e+15
1.004573e+15
9.949531e+14
9.896744e+14
1.001754e+15
1.048416e+15
1.151227e+15
1.276646e+15
1.355428e+15
1.376033e+15
1.35667e+15
1.315275e+15
1.286e+15
1.292603e+15
1.316871e+15
1.338337e+15
1.360458e+15
1.369583e+15
1.365978e+15
1.332708e+15
1.30274e+15
1.281751e+15
1.247019e+15
1.221222e+15
1.18882e+15
1.140778e+15
1.06724e+15
9.908937e+14
8.960125e+14
8.019961e+14
7.776244e+14
1.013031e+15
9.925554e+14
1.003697e+15
9.99472e+14
9.938697e+14
9.921106e+14
1.010074e+15
1.059901e+15
1.160768e+15
1.292795e+15
1.369702e+15
1.340283e+15
1.27081e+15
1.207272e+15
1.243067e+15
1.315985e+15
1.340396e+15
1.355035e+15
1.362977e+15
1.364663e+15
1.36575e+15
1.369272e+15
1.359302e+15
1.341836e+15
1.313003e+15
1.290473e+15
1.259493e+15
1.212559e+15
1.132081e+15
1.055333e+15
9.538554e+14
8.301247e+14
7.677626e+14
6.658935e+14
9.810296e+14
9.650261e+14
9.825321e+14
9.865542e+14
9.890468e+14
9.951097e+14
1.017484e+15
1.06814e+15
1.160134e+15
1.293163e+15
1.377744e+15
1.357646e+15
1.254234e+15
1.152386e+15
1.26121e+15
1.352716e+15
1.390825e+15
1.413836e+15
1.431281e+15
1.444198e+15
1.452403e+15
1.453674e+15
1.444859e+15
1.426077e+15
1.392837e+15
1.360551e+15
1.32536e+15
1.273065e+15
1.187367e+15
1.10383e+15
9.857122e+14
8.565623e+14
7.532086e+14
6.617068e+14
9.695238e+14
9.551776e+14
9.699564e+14
9.754497e+14
9.830304e+14
9.970947e+14
1.023283e+15
1.073863e+15
1.155596e+15
1.275136e+15
1.373252e+15
1.395179e+15
1.351679e+15
1.349857e+15
1.394201e+15
1.426926e+15
1.445529e+15
1.459095e+15
1.472045e+15
1.485431e+15
1.497549e+15
1.505589e+15
1.504587e+15
1.490066e+15
1.461662e+15
1.42515e+15
1.383587e+15
1.323147e+15
1.23176e+15
1.142137e+15
1.017695e+15
8.89862e+14
7.737865e+14
6.787569e+14
9.544343e+14
9.419066e+14
9.578175e+14
9.662173e+14
9.767989e+14
9.967302e+14
1.027369e+15
1.076928e+15
1.148791e+15
1.249014e+15
1.346771e+15
1.402338e+15
1.416991e+15
1.443061e+15
1.46541e+15
1.476437e+15
1.482635e+15
1.490727e+15
1.503384e+15
1.520397e+15
1.538927e+15
1.55451e+15
1.560518e+15
1.550659e+15
1.523719e+15
1.485884e+15
1.43684e+15
1.364932e+15
1.266156e+15
1.169464e+15
1.043324e+15
9.214682e+14
8.040477e+14
7.14544e+14
9.426529e+14
9.284771e+14
9.459593e+14
9.582424e+14
9.700673e+14
9.924652e+14
1.025707e+15
1.074561e+15
1.1389e+15
1.222706e+15
1.309492e+15
1.377653e+15
1.417996e+15
1.445296e+15
1.46299e+15
1.473254e+15
1.483183e+15
1.497987e+15
1.519358e+15
1.546225e+15
1.575292e+15
1.60067e+15
1.61374e+15
1.607038e+15
1.580872e+15
1.541394e+15
1.482649e+15
1.395858e+15
1.289337e+15
1.18341e+15
1.055602e+15
9.423779e+14
8.281392e+14
7.458839e+14
9.664158e+14
9.357304e+14
9.516475e+14
9.615863e+14
9.710676e+14
9.898818e+14
1.020175e+15
1.066739e+15
1.126021e+15
1.196356e+15
1.269341e+15
1.332444e+15
1.379206e+15
1.40895e+15
1.430269e+15
1.448976e+15
1.470886e+15
1.499231e+15
1.534412e+15
1.574589e+15
1.616079e+15
1.651013e+15
1.668256e+15
1.660819e+15
1.631557e+15
1.58413e+15
1.512303e+15
1.409214e+15
1.298397e+15
1.181487e+15
1.052642e+15
9.483666e+14
8.370833e+14
7.563655e+14
9.504242e+14
9.463978e+14
9.576373e+14
9.678593e+14
9.806353e+14
1.004732e+15
1.048952e+15
1.104658e+15
1.166157e+15
1.228483e+15
1.287433e+15
1.330929e+15
1.364357e+15
1.395597e+15
1.42957e+15
1.468576e+15
1.51301e+15
1.562643e+15
1.61581e+15
1.668561e+15
1.70935e+15
1.725143e+15
1.712909e+15
1.675754e+15
1.615466e+15
1.521484e+15
1.403783e+15
1.294306e+15
1.164992e+15
1.043392e+15
9.394271e+14
8.130528e+14
9.471097e+14
9.266539e+14
9.429437e+14
9.54803e+14
9.625333e+14
9.809442e+14
1.019038e+15
1.070119e+15
1.12557e+15
1.184532e+15
1.241089e+15
1.290506e+15
1.33814e+15
1.387794e+15
1.439913e+15
1.493757e+15
1.54953e+15
1.609259e+15
1.672021e+15
1.732381e+15
1.772038e+15
1.780398e+15
1.758724e+15
1.705525e+15
1.630833e+15
1.511039e+15
1.390265e+15
1.281297e+15
1.141714e+15
1.031185e+15
8.966688e+14
8.177214e+14
9.606141e+14
9.328218e+14
9.473693e+14
9.631652e+14
9.757879e+14
9.861699e+14
1.01639e+15
1.064662e+15
1.123766e+15
1.186846e+15
1.247501e+15
1.306165e+15
1.366833e+15
1.427515e+15
1.486224e+15
1.543073e+15
1.601565e+15
1.666796e+15
1.736049e+15
1.799571e+15
1.830616e+15
1.831145e+15
1.797298e+15
1.727553e+15
1.636016e+15
1.495112e+15
1.380107e+15
1.257058e+15
1.12497e+15
1.016629e+15
8.77692e+14
8.134348e+14
9.949853e+14
9.757761e+14
9.81403e+14
1.00176e+15
1.014071e+15
1.030626e+15
1.067557e+15
1.121556e+15
1.179919e+15
1.235155e+15
1.294842e+15
1.359486e+15
1.423419e+15
1.482646e+15
1.536827e+15
1.590898e+15
1.651043e+15
1.722768e+15
1.797318e+15
1.859424e+15
1.877352e+15
1.872427e+15
1.82469e+15
1.744713e+15
1.642687e+15
1.496644e+15
1.38071e+15
1.252166e+15
1.133232e+15
1.005106e+15
8.702728e+14
8.2406e+14
1.021175e+15
1.014364e+15
1.041269e+15
1.082931e+15
1.11061e+15
1.147928e+15
1.202803e+15
1.255119e+15
1.301495e+15
1.356011e+15
1.415605e+15
1.468543e+15
1.521663e+15
1.56897e+15
1.624685e+15
1.690277e+15
1.770362e+15
1.848002e+15
1.903883e+15
1.911197e+15
1.906392e+15
1.851173e+15
1.766836e+15
1.665912e+15
1.520579e+15
1.3927e+15
1.268951e+15
1.138728e+15
9.72453e+14
8.983634e+14
1.056062e+15
1.079983e+15
1.079506e+15
1.146623e+15
1.19535e+15
1.24013e+15
1.291332e+15
1.323882e+15
1.348762e+15
1.401014e+15
1.455124e+15
1.497102e+15
1.545031e+15
1.58596e+15
1.648298e+15
1.71908e+15
1.806088e+15
1.885653e+15
1.937041e+15
1.944382e+15
1.939415e+15
1.881327e+15
1.805943e+15
1.716287e+15
1.558251e+15
1.419367e+15
1.281829e+15
1.123896e+15
1.029484e+15
9.314994e+14
1.09872e+15
1.1542e+15
1.218722e+15
1.281479e+15
1.310422e+15
1.361269e+15
1.37066e+15
1.383562e+15
1.440017e+15
1.485685e+15
1.518008e+15
1.565027e+15
1.602658e+15
1.670053e+15
1.743953e+15
1.835767e+15
1.91809e+15
1.96748e+15
1.981204e+15
1.978942e+15
1.92695e+15
1.845372e+15
1.747272e+15
1.58223e+15
1.442397e+15
1.306223e+15
1.175422e+15
1.055118e+15
1.166757e+15
1.265859e+15
1.327952e+15
1.374213e+15
1.413945e+15
1.42117e+15
1.430227e+15
1.490661e+15
1.523136e+15
1.545558e+15
1.591196e+15
1.626203e+15
1.697256e+15
1.773119e+15
1.86468e+15
1.95265e+15
2.008507e+15
2.02585e+15
2.005611e+15
1.945073e+15
1.853238e+15
1.755029e+15
1.583366e+15
1.452114e+15
1.332072e+15
1.237435e+15
1.262535e+15
1.351403e+15
1.410663e+15
1.458966e+15
1.470992e+15
1.490647e+15
1.550131e+15
1.57452e+15
1.591308e+15
1.635104e+15
1.670022e+15
1.740272e+15
1.815697e+15
1.901174e+15
1.9822e+15
2.026961e+15
2.035404e+15
1.998943e+15
1.926235e+15
1.83054e+15
1.738773e+15
1.577801e+15
1.481996e+15
1.407976e+15
1.358152e+15
1.440754e+15
1.44505e+15
1.486803e+15
1.522672e+15
1.580101e+15
1.61242e+15
1.626155e+15
1.664398e+15
1.695508e+15
1.760683e+15
1.829189e+15
1.90614e+15
1.978887e+15
2.011653e+15
2.007681e+15