/*--------------------------------*- C++ -*----------------------------------*\
  =========                 |
  \\      /  F ield         | OpenFOAM: The Open Source CFD Toolbox
   \\    /   O peration     | Website:  https://openfoam.org
    \\  /    A nd           | Version:  6
     \\/     M anipulation  |
\*---------------------------------------------------------------------------*/
FoamFile
{
    version     2.0;
    format      ascii;
    class       volScalarField;
    location    "50/region0/neutronTransport";
    object      precursor4.dnp;
}
// * * * * * * * * * * * * * * * * * * * * * * * * * * * * * * * * * * * * * //

dimensions      [0 -3 0 0 0 0 0];

internalField   nonuniform List<scalar> 
203709
(
2.77344e+13
3.051231e+13
3.050792e+13
2.773901e+13
2.898762e+13
3.244884e+13
4.016845e+13
3.97451e+13
3.973932e+13
4.01635e+13
3.244125e+13
2.898487e+13
2.832356e+13
3.256598e+13
4.069393e+13
4.057733e+13
4.173046e+13
4.201745e+13
4.201499e+13
4.172546e+13
4.056852e+13
4.068672e+13
3.25589e+13
2.831792e+13
2.832776e+13
3.955886e+13
4.040206e+13
4.19862e+13
4.280889e+13
4.353242e+13
4.385215e+13
4.385232e+13
4.35274e+13
4.28006e+13
4.197908e+13
4.039478e+13
3.955332e+13
2.832331e+13
3.256968e+13
4.040345e+13
4.222782e+13
4.352212e+13
4.450201e+13
4.520984e+13
4.556157e+13
4.556176e+13
4.520479e+13
4.449507e+13
4.351545e+13
4.221954e+13
4.039479e+13
3.256179e+13
2.899545e+13
4.069963e+13
4.199084e+13
4.352393e+13
4.485723e+13
4.59092e+13
4.66386e+13
4.699981e+13
4.699916e+13
4.663586e+13
4.590537e+13
4.484963e+13
4.351455e+13
4.198152e+13
4.06907e+13
2.898687e+13
3.245506e+13
4.058298e+13
4.281472e+13
4.450601e+13
4.591364e+13
4.700685e+13
4.773361e+13
4.807612e+13
4.807484e+13
4.773125e+13
4.700045e+13
4.590481e+13
4.449903e+13
4.280817e+13
4.057538e+13
3.244889e+13
2.775516e+13
4.018435e+13
4.174399e+13
4.35446e+13
4.522235e+13
4.665099e+13
4.774314e+13
4.841926e+13
4.875207e+13
4.874875e+13
4.841122e+13
4.772965e+13
4.663849e+13
4.521309e+13
4.353737e+13
4.173802e+13
4.018197e+13
2.774179e+13
3.052726e+13
3.976007e+13
4.203186e+13
4.386936e+13
4.557798e+13
4.701488e+13
4.809144e+13
4.876135e+13
4.912404e+13
4.910992e+13
4.87498e+13
4.807852e+13
4.700373e+13
4.556763e+13
4.38607e+13
4.202764e+13
3.975497e+13
3.051824e+13
3.053265e+13
3.977071e+13
4.203781e+13
4.38709e+13
4.557934e+13
4.701685e+13
4.809178e+13
4.876265e+13
4.913437e+13
4.912016e+13
4.875321e+13
4.808037e+13
4.700407e+13
4.556925e+13
4.38624e+13
4.202975e+13
3.976189e+13
3.052554e+13
2.775323e+13
4.019937e+13
4.175457e+13
4.355319e+13
4.522958e+13
4.665631e+13
4.774784e+13
4.84265e+13
4.876296e+13
4.875727e+13
4.841896e+13
4.773814e+13
4.664425e+13
4.521794e+13
4.354216e+13
4.174361e+13
4.01847e+13
2.774851e+13
3.246432e+13
4.059708e+13
4.28303e+13
4.452228e+13
4.592668e+13
4.701887e+13
4.774618e+13
4.809233e+13
4.808711e+13
4.77429e+13
4.701136e+13
4.591648e+13
4.450942e+13
4.281671e+13
4.058594e+13
3.245746e+13
2.900647e+13
4.071794e+13
4.200753e+13
4.354136e+13
4.487286e+13
4.592555e+13
4.665315e+13
4.70194e+13
4.70166e+13
4.665407e+13
4.592274e+13
4.486833e+13
4.353414e+13
4.199895e+13
4.070837e+13
2.899759e+13
3.25844e+13
4.042043e+13
4.224596e+13
4.354127e+13
4.452183e+13
4.523259e+13
4.560573e+13
4.560442e+13
4.523165e+13
4.452085e+13
4.353925e+13
4.224329e+13
4.041918e+13
3.257994e+13
2.834374e+13
3.958318e+13
4.042376e+13
4.201081e+13
4.283324e+13
4.356056e+13
4.389989e+13
4.389964e+13
4.355981e+13
4.283243e+13
4.200794e+13
4.041989e+13
3.957964e+13
2.833378e+13
2.834747e+13
3.259018e+13
4.072576e+13
4.060435e+13
4.176568e+13
4.206474e+13
4.206754e+13
4.176484e+13
4.060536e+13
4.072174e+13
3.258162e+13
2.83375e+13
2.901436e+13
3.247456e+13
4.021244e+13
3.980344e+13
3.980857e+13
4.021188e+13
3.247288e+13
2.900824e+13
2.776904e+13
3.05468e+13
3.054888e+13
2.77677e+13
2.323629e+13
2.641105e+13
2.748656e+13
2.822455e+13
2.868566e+13
2.868493e+13
2.822243e+13
2.748233e+13
2.640529e+13
2.323212e+13
2.370351e+13
2.76183e+13
3.517551e+13
3.632359e+13
3.763382e+13
3.907659e+13
4.0218e+13
4.021697e+13
3.907523e+13
3.762449e+13
3.630397e+13
3.514798e+13
2.759307e+13
2.368143e+13
2.42646e+13
3.460084e+13
3.654435e+13
3.935359e+13
4.201904e+13
4.423696e+13
4.710079e+13
4.946243e+13
4.946001e+13
4.709505e+13
4.421741e+13
4.199027e+13
3.932583e+13
3.6515e+13
3.457623e+13
2.424972e+13
2.45073e+13
3.525262e+13
3.841991e+13
4.187774e+13
4.546174e+13
5.056361e+13
5.688129e+13
6.315956e+13
6.541073e+13
6.540537e+13
6.313916e+13
5.685541e+13
5.053837e+13
4.543831e+13
4.185266e+13
3.839444e+13
3.522319e+13
2.449342e+13
2.426851e+13
3.525159e+13
3.881103e+13
4.286151e+13
4.959131e+13
5.770369e+13
6.643094e+13
7.284967e+13
7.762689e+13
8.538356e+13
8.537538e+13
7.760927e+13
7.282245e+13
6.639594e+13
5.767401e+13
4.956038e+13
4.283746e+13
3.878418e+13
3.522408e+13
2.425375e+13
2.371529e+13
3.461954e+13
3.842662e+13
4.286571e+13
5.207587e+13
6.437114e+13
7.281632e+13
7.976387e+13
9.093988e+13
9.594378e+13
9.889459e+13
9.888678e+13
9.592135e+13
9.090706e+13
7.972885e+13
7.277909e+13
6.433256e+13
5.204346e+13
4.283652e+13
3.840111e+13
3.45946e+13
2.370047e+13
2.762708e+13
3.655483e+13
4.18855e+13
4.959611e+13
6.437254e+13
7.61748e+13
8.95953e+13
9.702691e+13
1.028326e+14
1.064172e+14
1.08241e+14
1.082348e+14
1.063981e+14
1.028063e+14
9.69958e+13
8.956035e+13
7.614263e+13
6.434612e+13
4.957271e+13
4.186908e+13
3.654041e+13
2.76136e+13
2.326261e+13
3.51965e+13
3.936428e+13
4.547349e+13
5.771082e+13
7.28308e+13
8.960236e+13
9.968894e+13
1.061987e+14
1.107016e+14
1.135615e+14
1.149721e+14
1.149684e+14
1.135491e+14
1.106845e+14
1.061779e+14
9.966517e+13
8.95795e+13
7.281303e+13
5.769943e+13
4.546334e+13
3.935004e+13
3.517115e+13
2.32401e+13
2.644197e+13
3.63591e+13
4.203683e+13
5.058613e+13
6.645931e+13
7.978956e+13
9.704458e+13
1.06208e+14
1.121168e+14
1.161044e+14
1.186252e+14
1.198533e+14
1.198509e+14
1.186176e+14
1.160924e+14
1.121e+14
1.061869e+14
9.702085e+13
7.976698e+13
6.643945e+13
5.05627e+13
4.201864e+13
3.632887e+13
2.641458e+13
2.75198e+13
3.767854e+13
4.426465e+13
5.690439e+13
7.289069e+13
9.097601e+13
1.028632e+14
1.107264e+14
1.161228e+14
1.198266e+14
1.221728e+14
1.233166e+14
1.233117e+14
1.221596e+14
1.198066e+14
1.161015e+14
1.107065e+14
1.028436e+14
9.095322e+13
7.285935e+13
5.68924e+13
4.425021e+13
3.764649e+13
2.749251e+13
2.825848e+13
3.912809e+13
4.715101e+13
6.321282e+13
7.768235e+13
9.599613e+13
1.064639e+14
1.136067e+14
1.186718e+14
1.222058e+14
1.244441e+14
1.255334e+14
1.255203e+14
1.244117e+14
1.221627e+14
1.186317e+14
1.135805e+14
1.064478e+14
9.598179e+13
7.76633e+13
6.319795e+13
4.712725e+13
3.909915e+13
2.823691e+13
2.871758e+13
4.026593e+13
4.951466e+13
6.547825e+13
8.545669e+13
9.89629e+13
1.083045e+14
1.150328e+14
1.199142e+14
1.233717e+14
1.255656e+14
1.266391e+14
1.266182e+14
1.255239e+14
1.23321e+14
1.198684e+14
1.150008e+14
1.082866e+14
9.895282e+13
8.544573e+13
6.546563e+13
4.949946e+13
4.02473e+13
2.870192e+13
2.871353e+13
4.025938e+13
4.950914e+13
6.547792e+13
8.546553e+13
9.897473e+13
1.08316e+14
1.150427e+14
1.199222e+14
1.233782e+14
1.255737e+14
1.26653e+14
1.266332e+14
1.255361e+14
1.233316e+14
1.198774e+14
1.150091e+14
1.082954e+14
9.896361e+13
8.545692e+13
6.546744e+13
4.949765e+13
4.024595e+13
2.870126e+13
2.824881e+13
3.912067e+13
4.715795e+13
6.323125e+13
7.770109e+13
9.602653e+13
1.064978e+14
1.136385e+14
1.186972e+14
1.222294e+14
1.244716e+14
1.255677e+14
1.255549e+14
1.244441e+14
1.221932e+14
1.186602e+14
1.136089e+14
1.064786e+14
9.601633e+13
7.769667e+13
6.322125e+13
4.714774e+13
3.911189e+13
2.823966e+13
2.751341e+13
3.767961e+13
4.428645e+13
5.693665e+13
7.292098e+13
9.102091e+13
1.029158e+14
1.107812e+14
1.161745e+14
1.19875e+14
1.222227e+14
1.233711e+14
1.233645e+14
1.222111e+14
1.198578e+14
1.161551e+14
1.107643e+14
1.029051e+14
9.101561e+13
7.291957e+13
5.69231e+13
4.427231e+13
3.767413e+13
2.750671e+13
2.644087e+13
3.636765e+13
4.206411e+13
5.061251e+13
6.65047e+13
7.984327e+13
9.710873e+13
1.062743e+14
1.121814e+14
1.161686e+14
1.186915e+14
1.199251e+14
1.199255e+14
1.186982e+14
1.161771e+14
1.121892e+14
1.062806e+14
9.711245e+13
7.983954e+13
6.649608e+13
5.060852e+13
4.205186e+13
3.636284e+13
2.643473e+13
2.326404e+13
3.521114e+13
3.939242e+13
4.550109e+13
5.775778e+13
7.288558e+13
8.966763e+13
9.975805e+13
1.062718e+14
1.10781e+14
1.136508e+14
1.15069e+14
1.150743e+14
1.136685e+14
1.108078e+14
1.06302e+14
9.978655e+13
8.96879e+13
7.288813e+13
5.775294e+13
4.550026e+13
3.938245e+13
3.520543e+13
2.32594e+13
2.764719e+13
3.657865e+13
4.19106e+13
4.963181e+13
6.442688e+13
7.62376e+13
8.967333e+13
9.71186e+13
1.029378e+14
1.065386e+14
1.083698e+14
1.08376e+14
1.065566e+14
1.029652e+14
9.71504e+13
8.970589e+13
7.626197e+13
6.443474e+13
4.963307e+13
4.191483e+13
3.657161e+13
2.763248e+13
2.373336e+13
3.463743e+13
3.845227e+13
4.289927e+13
5.212361e+13
6.443933e+13
7.290654e+13
7.987261e+13
9.106834e+13
9.609371e+13
9.905534e+13
9.906162e+13
9.610538e+13
9.108341e+13
7.98843e+13
7.292081e+13
6.445169e+13
5.212787e+13
4.289934e+13
3.845546e+13
3.463368e+13
2.371464e+13
2.429086e+13
3.5291e+13
3.885289e+13
4.290416e+13
4.964393e+13
5.777888e+13
6.654244e+13
7.297794e+13
7.777161e+13
8.55472e+13
8.5553e+13
7.777722e+13
7.297852e+13
6.65369e+13
5.778132e+13
4.964642e+13
4.29035e+13
3.884992e+13
3.528843e+13
2.42809e+13
2.453424e+13
3.52914e+13
3.84634e+13
4.193223e+13
4.552591e+13
5.063328e+13
5.697313e+13
6.329004e+13
6.554931e+13
6.555032e+13
6.328312e+13
5.696804e+13
5.0635e+13
4.551971e+13
4.192483e+13
3.845815e+13
3.528805e+13
2.452914e+13
2.428558e+13
3.464945e+13
3.659421e+13
3.94072e+13
4.207928e+13
4.431462e+13
4.719666e+13
4.956262e+13
4.956122e+13
4.719095e+13
4.430282e+13
4.207499e+13
3.940692e+13
3.659096e+13
3.464332e+13
2.428175e+13
2.373663e+13
2.765409e+13
3.52309e+13
3.639232e+13
3.771142e+13
3.915809e+13
4.030168e+13
4.030101e+13
3.91544e+13
3.770284e+13
3.638269e+13
3.523097e+13
2.765468e+13
2.373359e+13
2.327216e+13
2.645357e+13
2.753014e+13
2.826896e+13
2.873333e+13
2.873252e+13
2.827216e+13
2.753292e+13
2.645403e+13
2.326929e+13
1.96891e+13
2.232409e+13
2.298462e+13
2.32384e+13
2.323229e+13
2.296626e+13
2.229146e+13
1.966071e+13
1.966933e+13
2.359076e+13
2.583357e+13
3.25401e+13
3.375706e+13
3.446919e+13
3.479284e+13
3.478591e+13
3.444713e+13
3.372053e+13
3.25118e+13
2.581332e+13
2.357222e+13
1.966226e+13
2.169424e+13
3.155548e+13
3.457561e+13
3.812566e+13
4.200898e+13
4.381235e+13
4.492069e+13
4.544001e+13
4.543287e+13
4.489885e+13
4.377596e+13
4.196399e+13
3.80866e+13
3.453901e+13
3.152155e+13
2.168781e+13
2.033098e+13
2.526948e+13
3.394442e+13
4.035086e+13
4.726451e+13
5.501194e+13
5.895375e+13
6.125051e+13
6.277893e+13
6.356972e+13
6.355966e+13
6.274882e+13
6.120092e+13
5.88877e+13
5.493885e+13
4.720291e+13
4.030607e+13
3.390237e+13
2.524833e+13
2.031299e+13
2.052506e+13
3.094551e+13
3.593041e+13
4.469742e+13
5.60371e+13
6.407309e+13
7.079329e+13
8.139934e+13
8.635228e+13
8.926784e+13
9.071555e+13
9.070303e+13
8.92317e+13
8.629535e+13
8.13284e+13
7.072648e+13
6.400256e+13
5.596331e+13
4.463475e+13
3.589382e+13
3.090719e+13
2.050633e+13
2.033378e+13
3.095458e+13
3.710686e+13
4.651592e+13
6.014562e+13
7.018257e+13
8.383768e+13
9.266864e+13
1.003296e+14
1.060181e+14
1.098737e+14
1.117919e+14
1.117771e+14
1.098323e+14
1.059482e+14
1.002377e+14
9.256646e+13
8.372843e+13
7.008167e+13
6.005597e+13
4.645727e+13
3.705377e+13
3.091073e+13
2.031167e+13
2.528603e+13
3.594778e+13
4.652699e+13
6.111901e+13
7.256376e+13
8.865421e+13
1.004521e+14
1.10067e+14
1.182794e+14
1.249162e+14
1.296461e+14
1.315838e+14
1.315657e+14
1.295924e+14
1.248328e+14
1.181772e+14
1.099546e+14
1.003319e+14
8.853498e+13
7.245729e+13
6.101697e+13
4.64573e+13
3.589885e+13
2.525535e+13
2.172462e+13
3.396255e+13
4.471329e+13
6.0175e+13
7.257259e+13
9.011272e+13
1.040963e+14
1.163725e+14
1.26967e+14
1.359164e+14
1.425948e+14
1.473409e+14
1.500731e+14
1.500537e+14
1.472848e+14
1.42508e+14
1.358088e+14
1.268463e+14
1.162447e+14
1.03972e+14
8.999355e+13
7.247248e+13
6.008277e+13
4.465146e+13
3.391783e+13
2.169374e+13
1.968589e+13
3.158222e+13
4.03808e+13
5.607175e+13
7.02349e+13
8.869509e+13
1.041156e+14
1.186372e+14
1.31853e+14
1.426275e+14
1.515088e+14
1.589146e+14
1.641209e+14
1.669313e+14
1.669135e+14
1.640691e+14
1.588351e+14
1.514102e+14
1.425144e+14
1.317337e+14
1.185192e+14
1.039986e+14
8.858385e+13
7.013891e+13
5.598462e+13
4.033362e+13
3.154075e+13
1.965873e+13
2.361868e+13
3.461334e+13
4.73023e+13
6.414308e+13
8.39072e+13
1.005091e+14
1.164016e+14
1.318626e+14
1.45067e+14
1.567315e+14
1.661672e+14
1.734989e+14
1.784238e+14
1.809347e+14
1.809201e+14
1.783823e+14
1.734377e+14
1.660918e+14
1.566461e+14
1.449787e+14
1.317753e+14
1.163136e+14
1.004211e+14
8.381733e+13
6.405362e+13
4.725388e+13
3.457749e+13
2.358994e+13
2.58633e+13
3.816327e+13
5.505442e+13
7.089045e+13
9.275795e+13
1.101361e+14
1.270058e+14
1.426516e+14
1.567441e+14
1.688479e+14
1.782525e+14
1.851906e+14
1.897585e+14
1.920355e+14
1.920267e+14
1.897331e+14
1.851528e+14
1.782062e+14
1.687971e+14
1.56693e+14
1.426013e+14
1.269504e+14
1.100695e+14
9.267807e+13
7.080527e+13
5.501168e+13
3.813226e+13
2.583658e+13
1.971132e+13
3.258426e+13
4.204648e+13
5.901528e+13
8.151551e+13
1.004413e+14
1.183658e+14
1.359802e+14
1.515559e+14
1.661992e+14
1.782695e+14
1.87446e+14
1.940654e+14
1.98369e+14
2.00492e+14
2.004867e+14
1.983535e+14
1.940424e+14
1.87417e+14
1.782353e+14
1.661608e+14
1.515133e+14
1.359312e+14
1.18302e+14
1.003605e+14
8.142665e+13
5.896865e+13
4.201404e+13
3.25407e+13
1.968602e+13
2.233858e+13
3.379129e+13
4.386359e+13
6.133476e+13
8.648744e+13
1.06155e+14
1.250242e+14
1.426827e+14
1.589854e+14
1.735559e+14
1.852343e+14
1.940951e+14
2.00465e+14
2.045871e+14
2.06613e+14
2.066036e+14
2.045615e+14
2.004301e+14
1.940621e+14
1.852051e+14
1.735294e+14
1.589574e+14
1.426474e+14
1.249782e+14
1.060831e+14
8.640602e+13
6.128301e+13
4.382486e+13
3.375826e+13
2.231639e+13
2.300868e+13
3.451135e+13
4.498285e+13
6.288281e+13
8.942432e+13
1.10042e+14
1.297934e+14
1.474628e+14
1.642221e+14
1.785097e+14
1.898363e+14
1.98446e+14
2.046412e+14
2.08645e+14
2.106043e+14
2.105831e+14
2.085898e+14
2.045693e+14
1.98381e+14
1.897975e+14
1.784912e+14
1.642101e+14
1.474442e+14
1.297578e+14
1.099789e+14
8.93544e+13
6.283204e+13
4.494622e+13
3.448001e+13
2.298335e+13
2.327335e+13
3.484938e+13
4.551538e+13
6.368996e+13
9.089031e+13
1.119833e+14
1.317665e+14
1.502338e+14
1.670689e+14
1.810534e+14
1.92142e+14
2.005955e+14
2.067055e+14
2.106585e+14
2.125908e+14
2.12563e+14
2.105898e+14
2.066199e+14
2.005194e+14
1.920935e+14
1.810322e+14
1.670609e+14
1.502223e+14
1.317384e+14
1.119341e+14
9.083278e+13
6.364397e+13
4.547991e+13
3.481654e+13
2.324798e+13
2.327625e+13
3.48526e+13
4.551776e+13
6.369317e+13
9.08925e+13
1.11989e+14
1.317804e+14
1.502544e+14
1.670927e+14
1.810769e+14
1.921623e+14
2.006117e+14
2.067199e+14
2.106743e+14
2.126103e+14
2.125849e+14
2.106117e+14
2.066409e+14
2.005391e+14
1.921124e+14
1.810518e+14
1.670823e+14
1.502436e+14
1.317563e+14
1.119503e+14
9.084662e+13
6.365248e+13
4.548579e+13
3.482227e+13
2.325322e+13
2.301934e+13
3.452459e+13
4.499277e+13
6.289349e+13
8.943197e+13
1.100654e+14
1.298417e+14
1.475228e+14
1.642891e+14
1.785782e+14
1.898999e+14
1.984982e+14
2.046905e+14
2.086992e+14
2.106653e+14
2.106469e+14
2.086527e+14
2.046303e+14
1.984412e+14
1.898596e+14
1.785579e+14
1.642815e+14
1.475152e+14
1.29822e+14
1.100373e+14
8.939687e+13
6.285343e+13
4.496259e+13
3.449652e+13
2.299821e+13
2.235844e+13
3.381271e+13
4.388095e+13
6.135622e+13
8.650236e+13
1.061947e+14
1.250992e+14
1.427751e+14
1.590864e+14
1.736623e+14
1.85342e+14
1.941985e+14
2.005615e+14
2.046835e+14
2.067127e+14
2.067049e+14
2.046646e+14
2.005367e+14
1.941755e+14
1.853281e+14
1.736606e+14
1.590914e+14
1.427767e+14
1.250885e+14
1.061779e+14
8.647739e+13
6.131215e+13
4.38502e+13
3.378627e+13
2.233866e+13
1.973362e+13
3.260222e+13
4.207752e+13
5.905419e+13
8.153699e+13
1.004915e+14
1.184462e+14
1.360885e+14
1.516781e+14
1.663305e+14
1.784026e+14
1.875766e+14
1.94194e+14
1.984993e+14
2.006288e+14
2.006335e+14
1.985147e+14
1.942172e+14
1.876045e+14
1.784326e+14
1.663602e+14
1.517042e+14
1.361085e+14
1.184591e+14
1.00489e+14
8.152524e+13
5.900667e+13
4.204741e+13
3.258347e+13
1.971547e+13
2.588163e+13
3.819458e+13
5.510434e+13
7.09105e+13
9.281267e+13
1.102123e+14
1.271144e+14
1.427793e+14
1.568821e+14
1.689923e+14
1.784045e+14
1.853539e+14
1.899369e+14
1.92229e+14
1.922424e+14
1.899764e+14
1.854138e+14
1.784761e+14
1.69066e+14
1.56948e+14
1.428315e+14
1.271579e+14
1.102446e+14
9.282024e+13
7.091479e+13
5.505825e+13
3.816593e+13
2.586518e+13
2.362864e+13
3.463693e+13
4.734434e+13
6.417725e+13
8.396544e+13
1.005787e+14
1.164989e+14
1.319884e+14
1.452137e+14
1.56901e+14
1.663627e+14
1.73721e+14
1.786734e+14
1.81206e+14
1.812201e+14
1.787138e+14
1.737831e+14
1.664397e+14
1.569857e+14
1.452953e+14
1.320583e+14
1.165577e+14
1.006182e+14
8.39748e+13
6.418344e+13
4.731618e+13
3.461946e+13
2.362171e+13
1.968841e+13
3.161171e+13
4.042034e+13
5.611691e+13
7.029253e+13
8.876857e+13
1.042186e+14
1.187761e+14
1.320263e+14
1.428376e+14
1.517574e+14
1.591971e+14
1.644369e+14
1.672725e+14
1.672825e+14
1.64463e+14
1.592358e+14
1.518061e+14
1.428964e+14
1.32087e+14
1.18832e+14
1.042654e+14
8.879731e+13
7.028939e+13
5.611982e+13
4.039746e+13
3.159195e+13
1.969233e+13
2.172617e+13
3.39904e+13
4.475597e+13
6.022336e+13
7.265468e+13
9.0226e+13
1.042482e+14
1.16563e+14
1.271999e+14
1.361966e+14
1.429126e+14
1.476922e+14
1.504488e+14
1.50454e+14
1.47703e+14
1.429265e+14
1.362162e+14
1.272298e+14
1.165964e+14
1.042805e+14
9.025296e+13
7.267116e+13
6.023202e+13
4.475098e+13
3.398046e+13
2.172349e+13
2.530141e+13
3.598019e+13
4.657426e+13
6.119191e+13
7.266278e+13
8.881116e+13
1.00655e+14
1.10311e+14
1.185599e+14
1.252362e+14
1.300051e+14
1.319655e+14
1.319647e+14
1.300013e+14
1.252327e+14
1.185623e+14
1.103156e+14
1.006634e+14
8.882248e+13
7.267393e+13
6.119661e+13
4.657047e+13
3.59698e+13
2.529341e+13
2.035477e+13
3.098462e+13
3.714768e+13
4.657646e+13
6.025176e+13
7.033108e+13
8.402507e+13
9.289886e+13
1.005983e+14
1.063208e+14
1.102054e+14
1.121386e+14
1.121347e+14
1.101973e+14
1.06307e+14
1.00585e+14
9.289222e+13
8.402812e+13
7.033243e+13
6.025071e+13
4.657436e+13
3.714202e+13
3.097682e+13
2.034717e+13
2.054163e+13
3.098812e+13
3.599071e+13
4.476503e+13
5.613402e+13
6.420795e+13
7.097639e+13
8.162082e+13
8.659588e+13
8.953103e+13
9.098906e+13
9.0984e+13
8.952686e+13
8.659087e+13
8.161296e+13
7.096578e+13
6.421377e+13
5.614281e+13
4.476718e+13
3.598585e+13
3.098208e+13
2.053801e+13
2.035696e+13
2.531326e+13
3.399681e+13
4.042799e+13
4.735296e+13
5.512614e+13
5.907959e+13
6.138538e+13
6.293062e+13
6.37593e+13
6.374987e+13
6.293977e+13
6.139908e+13
5.909103e+13
5.513545e+13
4.7359e+13
4.042672e+13
3.399496e+13
2.530513e+13
2.035444e+13
2.173255e+13
3.160976e+13
3.464509e+13
3.820305e+13
4.208698e+13
4.389221e+13
4.500875e+13
4.55477e+13
4.553797e+13
4.501099e+13
4.38937e+13
4.208633e+13
3.819747e+13
3.463584e+13
3.161435e+13
2.172783e+13
1.96913e+13
2.363506e+13
2.588304e+13
3.260972e+13
3.381542e+13
3.453037e+13
3.4879e+13
3.487476e+13
3.452633e+13
3.380809e+13
3.260616e+13
2.587711e+13
2.362588e+13
1.969565e+13
1.97298e+13
2.235427e+13
2.301646e+13
2.328396e+13
2.328129e+13
2.301181e+13
2.234567e+13
1.97133e+13
1.747202e+13
1.969044e+13
2.018607e+13
2.017952e+13
1.967029e+13
1.745601e+13
1.679499e+13
2.088104e+13
2.336435e+13
2.619204e+13
3.253176e+13
3.390726e+13
3.443574e+13
3.44206e+13
3.386699e+13
3.248094e+13
2.617165e+13
2.334843e+13
2.086158e+13
1.678632e+13
1.693204e+13
2.192046e+13
3.044204e+13
3.561613e+13
4.016122e+13
4.66804e+13
5.028706e+13
5.17851e+13
5.251402e+13
5.249286e+13
5.17287e+13
5.022186e+13
4.663048e+13
4.010953e+13
3.555417e+13
3.039809e+13
2.190188e+13
1.692755e+13
1.894344e+13
2.941142e+13
3.680728e+13
4.725079e+13
5.333374e+13
5.936106e+13
6.476352e+13
7.374588e+13
7.720531e+13
7.858315e+13
7.856023e+13
7.714111e+13
7.365541e+13
6.466811e+13
5.925287e+13
5.32285e+13
4.713679e+13
3.675522e+13
2.936891e+13
1.893733e+13
2.029908e+13
3.26735e+13
4.248911e+13
5.433475e+13
6.373294e+13
7.666935e+13
8.506323e+13
9.150974e+13
9.690203e+13
1.002126e+14
1.017359e+14
1.017119e+14
1.001432e+14
9.679567e+13
9.138051e+13
8.492557e+13
7.653599e+13
6.361481e+13
5.421948e+13
4.242505e+13
3.262426e+13
2.028324e+13
2.105422e+13
3.533671e+13
4.894083e+13
5.942275e+13
6.977998e+13
8.671668e+13
9.886854e+13
1.084648e+14
1.152779e+14
1.204465e+14
1.237971e+14
1.254168e+14
1.253915e+14
1.237229e+14
1.203289e+14
1.151265e+14
1.082927e+14
9.869688e+13
8.656689e+13
6.966098e+13
5.930728e+13
4.884973e+13
3.528121e+13
2.102971e+13
2.030759e+13
3.534392e+13
5.112173e+13
6.328285e+13
8.046051e+13
9.467466e+13
1.088991e+14
1.207736e+14
1.306424e+14
1.389637e+14
1.450779e+14
1.489766e+14
1.508658e+14
1.508387e+14
1.488978e+14
1.449536e+14
1.388047e+14
1.304615e+14
1.205823e+14
1.087119e+14
9.450076e+13
8.031135e+13
6.31668e+13
5.101355e+13
3.528905e+13
2.028345e+13
1.895862e+13
3.268421e+13
4.896646e+13
6.329113e+13
8.256227e+13
9.945902e+13
1.151624e+14
1.290571e+14
1.420673e+14
1.531116e+14
1.621873e+14
1.689022e+14
1.732515e+14
1.753658e+14
1.753362e+14
1.731661e+14
1.687654e+14
1.620103e+14
1.529083e+14
1.418493e+14
1.288374e+14
1.149526e+14
9.927344e+13
8.24072e+13
6.317938e+13
4.88796e+13
3.264007e+13
1.893489e+13
1.694775e+13
2.942704e+13
4.252795e+13
5.945106e+13
8.049403e+13
9.948411e+13
1.173315e+14
1.332098e+14
1.486013e+14
1.625942e+14
1.744064e+14
1.840024e+14
1.912438e+14
1.959821e+14
1.982215e+14
1.981883e+14
1.958857e+14
1.910935e+14
1.838124e+14
1.7419e+14
1.62361e+14
1.483613e+14
1.329728e+14
1.171057e+14
9.928897e+13
8.033798e+13
5.934265e+13
4.246571e+13
2.938589e+13
1.692453e+13
2.194353e+13
3.685062e+13
5.436123e+13
6.985233e+13
9.473972e+13
1.152229e+14
1.332456e+14
1.507355e+14
1.671222e+14
1.817221e+14
1.941429e+14
2.041939e+14
2.118031e+14
2.169173e+14
2.195143e+14
2.194801e+14
2.168183e+14
2.116499e+14
2.04002e+14
1.939246e+14
1.814875e+14
1.668795e+14
1.504907e+14
1.330071e+14
1.150007e+14
9.45529e+13
6.971771e+13
5.42728e+13
3.679707e+13
2.191876e+13
1.682087e+13
3.046779e+13
4.727643e+13
6.379699e+13
8.682282e+13
1.090057e+14
1.291615e+14
1.486796e+14
1.6716e+14
1.841168e+14
1.991731e+14
2.120205e+14
2.225232e+14
2.307014e+14
2.363103e+14
2.391851e+14
2.391541e+14
2.362205e+14
2.305633e+14
2.22351e+14
2.118246e+14
1.989631e+14
1.838969e+14
1.669312e+14
1.484473e+14
1.289367e+14
1.088024e+14
8.66591e+13
6.366742e+13
4.720987e+13
3.042687e+13
1.681019e+13
2.089587e+13
3.564599e+13
5.338052e+13
7.678266e+13
9.900503e+13
1.209264e+14
1.422142e+14
1.627085e+14
1.817861e+14
1.991969e+14
2.14634e+14
2.280873e+14
2.391786e+14
2.47741e+14
2.535477e+14
2.564842e+14
2.564592e+14
2.534775e+14
2.476361e+14
2.390497e+14
2.279428e+14
2.1448e+14
1.990354e+14
1.816142e+14
1.625213e+14
1.420155e+14
1.207317e+14
9.883947e+13
7.663655e+13
5.32905e+13
3.559592e+13
2.08762e+13
2.339671e+13
4.021769e+13
5.945308e+13
8.521816e+13
1.086354e+14
1.308421e+14
1.533005e+14
1.74549e+14
1.942275e+14
2.120647e+14
2.281073e+14
2.421104e+14
2.535415e+14
2.622131e+14
2.680254e+14
2.709385e+14
2.709241e+14
2.679842e+14
2.621513e+14
2.534668e+14
2.4203e+14
2.280244e+14
2.119763e+14
1.941205e+14
1.744084e+14
1.531254e+14
1.306559e+14
1.084694e+14
8.506025e+13
5.933559e+13
4.013858e+13
2.335436e+13
2.623968e+13
4.678778e+13
6.491034e+13
9.170163e+13
1.154928e+14
1.39207e+14
1.624191e+14
1.841792e+14
2.043088e+14
2.225967e+14
2.392253e+14
2.535654e+14
2.651218e+14
2.737751e+14
2.795232e+14
2.823873e+14
2.823791e+14
2.795003e+14
2.737422e+14
2.650828e+14
2.535218e+14
2.391762e+14
2.225377e+14
2.042295e+14
1.840586e+14
1.62254e+14
1.390252e+14
1.153227e+14
9.153455e+13
6.476419e+13
4.665568e+13
2.617571e+13
1.750792e+13
3.25875e+13
5.041293e+13
7.392879e+13
9.712606e+13
1.207033e+14
1.453636e+14
1.691793e+14
1.91465e+14
2.1196e+14
2.308125e+14
2.478239e+14
2.622726e+14
2.738127e+14
2.823953e+14
2.880626e+14
2.908732e+14
2.908598e+14
2.880269e+14
2.823494e+14
2.73772e+14
2.622402e+14
2.477972e+14
2.307831e+14
2.119107e+14
1.913721e+14
1.690365e+14
1.451999e+14
1.205408e+14
9.695945e+13
7.376428e+13
5.027125e+13
3.250265e+13
1.746151e+13
1.971588e+13
3.397344e+13
5.191425e+13
7.740483e+13
1.004613e+14
1.2409e+14
1.493035e+14
1.735772e+14
1.962603e+14
2.171307e+14
2.364706e+14
2.536737e+14
2.681314e+14
2.796237e+14
2.881342e+14
2.937326e+14
2.964966e+14
2.964686e+14
2.936585e+14
2.880381e+14
2.795406e+14
2.680876e+14
2.536599e+14
2.364652e+14
2.171067e+14
1.961919e+14
1.734609e+14
1.491658e+14
1.239478e+14
1.003141e+14
7.725541e+13
5.17868e+13
3.389036e+13
1.968012e+13
2.022297e+13
3.451597e+13
5.265088e+13
7.880249e+13
1.020122e+14
1.257427e+14
1.512305e+14
1.757373e+14
1.985596e+14
2.197938e+14
2.394063e+14
2.566615e+14
2.710867e+14
2.825256e+14
2.909977e+14
2.965706e+14
2.993168e+14
2.992812e+14
2.964784e+14
2.908826e+14
2.824269e+14
2.710302e+14
2.566443e+14
2.394051e+14
2.197786e+14
1.985067e+14
1.756455e+14
1.511191e+14
1.256253e+14
1.018904e+14
7.868098e+13
5.255419e+13
3.444866e+13
2.019012e+13
2.02245e+13
3.452169e+13
5.266405e+13
7.88107e+13
1.020195e+14
1.257486e+14
1.512366e+14
1.757492e+14
1.985836e+14
2.198282e+14
2.394443e+14
2.566979e+14
2.71118e+14
2.825502e+14
2.910199e+14
2.965947e+14
2.993447e+14
2.993123e+14
2.965109e+14
2.909148e+14
2.824581e+14
2.71061e+14
2.566761e+14
2.394389e+14
2.198138e+14
1.985414e+14
1.756791e+14
1.511502e+14
1.256546e+14
1.019218e+14
7.871269e+13
5.258152e+13
3.446652e+13
2.019868e+13
1.972907e+13
3.398542e+13
5.192718e+13
7.741999e+13
1.004802e+14
1.241073e+14
1.493213e+14
1.736126e+14
1.963308e+14
2.17229e+14
2.365787e+14
2.537801e+14
2.682291e+14
2.797059e+14
2.882121e+14
2.938165e+14
2.965875e+14
2.965636e+14
2.937542e+14
2.881332e+14
2.796365e+14
2.681876e+14
2.537667e+14
2.365783e+14
2.172218e+14
1.963033e+14
1.735653e+14
1.492586e+14
1.240327e+14
1.004037e+14
7.734392e+13
5.186253e+13
3.3942e+13
1.970646e+13
1.752647e+13
3.25845e+13
5.041187e+13
7.394375e+13
9.715142e+13
1.207326e+14
1.45393e+14
1.692346e+14
1.915713e+14
2.12107e+14
2.309754e+14
2.479905e+14
2.624393e+14
2.739742e+14
2.825472e+14
2.882113e+14
2.910239e+14
2.910144e+14
2.881872e+14
2.825181e+14
2.739529e+14
2.624359e+14
2.480056e+14
2.309972e+14
2.121209e+14
1.91568e+14
1.692139e+14
1.453538e+14
1.206741e+14
9.709466e+13
7.38898e+13
5.037082e+13
3.255839e+13
1.750953e+13
2.624791e+13
4.677429e+13
6.49286e+13
9.173374e+13
1.155367e+14
1.392487e+14
1.624896e+14
1.843031e+14
2.04481e+14
2.227928e+14
2.394335e+14
2.53776e+14
2.653291e+14
2.739789e+14
2.797283e+14
2.826017e+14
2.826103e+14
2.797537e+14
2.740188e+14
2.653808e+14
2.538359e+14
2.394965e+14
2.228526e+14
2.045298e+14
1.843343e+14
1.624981e+14
1.392344e+14
1.15494e+14
9.169657e+13
6.489452e+13
4.675807e+13
2.622753e+13
2.340513e+13
4.023352e+13
5.948009e+13
8.524979e+13
1.086903e+14
1.308947e+14
1.53382e+14
1.746758e+14
1.944025e+14
2.122715e+14
2.283326e+14
2.423475e+14
2.537911e+14
2.624799e+14
2.683152e+14
2.712562e+14
2.71277e+14
2.683752e+14
2.625719e+14
2.539046e+14
2.424692e+14
2.28449e+14
2.123738e+14
1.944876e+14
1.747373e+14
1.534136e+14
1.309031e+14
1.086635e+14
8.523176e+13
5.945401e+13
4.02092e+13
2.338394e+13
2.091945e+13
3.56798e+13
5.342632e+13
7.681588e+13
9.906135e+13
1.209948e+14
1.423076e+14
1.628347e+14
1.819576e+14
1.994112e+14
2.148854e+14
2.283749e+14
2.395047e+14
2.481083e+14
2.539582e+14
2.569368e+14
2.569571e+14
2.540169e+14
2.482e+14
2.396214e+14
2.285058e+14
2.15017e+14
1.99532e+14
1.820596e+14
1.629079e+14
1.423476e+14
1.210142e+14
9.905352e+13
7.681369e+13
5.339481e+13
3.564946e+13
2.089479e+13
1.684064e+13
3.049416e+13
4.733771e+13
6.38281e+13
8.686878e+13
1.090834e+14
1.292695e+14
1.488244e+14
1.673544e+14
1.84367e+14
1.994784e+14
2.123805e+14
2.229391e+14
2.311718e+14
2.368333e+14
2.397545e+14
2.397663e+14
2.368673e+14
2.312259e+14
2.230115e+14
2.124672e+14
1.9957e+14
1.844545e+14
1.674288e+14
1.48877e+14
1.292988e+14
1.091056e+14
8.687674e+13
6.383738e+13
4.729089e+13
3.04771e+13
1.682293e+13
2.195999e+13
3.687257e+13
5.441445e+13
6.987845e+13
9.481971e+13
1.153358e+14
1.33404e+14
1.509512e+14
1.674038e+14
1.820713e+14
1.945589e+14
2.046762e+14
2.123462e+14
2.175143e+14
2.201549e+14
2.201573e+14
2.175211e+14
2.123592e+14
2.047001e+14
1.945955e+14
1.821154e+14
1.674493e+14
1.509915e+14
1.33435e+14
1.153587e+14
9.483614e+13
6.989751e+13
5.440465e+13
3.686025e+13
2.194788e+13
1.69538e+13
2.945364e+13
4.25628e+13
5.952313e+13
8.058586e+13
9.960299e+13
1.174978e+14
1.334375e+14
1.489018e+14
1.629691e+14
1.748529e+14
1.845151e+14
1.918163e+14
1.966055e+14
1.988818e+14
1.988765e+14
1.96591e+14
1.917978e+14
1.845006e+14
1.748464e+14
1.629708e+14
1.489079e+14
1.334445e+14
1.175026e+14
9.960275e+13
8.057824e+13
5.950849e+13
4.254905e+13
2.944559e+13
1.695611e+13
1.89663e+13
3.272358e+13
4.902911e+13
6.336331e+13
8.2669e+13
9.962115e+13
1.153902e+14
1.293557e+14
1.424343e+14
1.535498e+14
1.626896e+14
1.694575e+14
1.738489e+14
1.759908e+14
1.759815e+14
1.738249e+14
1.694228e+14
1.626523e+14
1.535179e+14
1.42411e+14
1.293338e+14
1.153714e+14
9.960983e+13
8.266166e+13
6.335999e+13
4.900305e+13
3.270991e+13
1.896774e+13
2.032037e+13
3.537837e+13
5.120273e+13
6.33651e+13
8.061209e+13
9.4876e+13
1.091622e+14
1.210972e+14
1.310326e+14
1.394099e+14
1.455681e+14
1.495021e+14
1.514151e+14
1.514047e+14
1.494793e+14
1.455359e+14
1.393722e+14
1.309954e+14
1.210671e+14
1.091295e+14
9.484484e+13
8.059331e+13
6.335528e+13
5.118874e+13
3.537003e+13
2.031644e+13
2.106889e+13
3.538084e+13
4.904705e+13
5.955126e+13
6.994488e+13
8.69409e+13
9.91394e+13
1.08784e+14
1.156438e+14
1.208494e+14
1.242321e+14
1.258813e+14
1.258689e+14
1.242135e+14
1.208244e+14
1.156148e+14
1.087575e+14
9.911131e+13
8.69051e+13
6.990335e+13
5.953344e+13
4.903571e+13
3.537534e+13
2.106612e+13
2.031628e+13
3.272055e+13
4.25907e+13
5.444908e+13
6.386441e+13
7.686876e+13
8.531576e+13
9.180956e+13
9.723421e+13
1.005676e+14
1.021058e+14
1.020924e+14
1.005444e+14
9.720254e+13
9.177552e+13