/*--------------------------------*- C++ -*----------------------------------*\
  =========                 |
  \\      /  F ield         | OpenFOAM: The Open Source CFD Toolbox
   \\    /   O peration     | Website:  https://openfoam.org
    \\  /    A nd           | Version:  6
     \\/     M anipulation  |
\*---------------------------------------------------------------------------*/
FoamFile
{
    version     2.0;
    format      ascii;
    class       volScalarField;
    location    "50/region0/neutronTransport";
    object      precursor2.dnp;
}
// * * * * * * * * * * * * * * * * * * * * * * * * * * * * * * * * * * * * * //

dimensions      [0 -3 0 0 0 0 0];

internalField   nonuniform List<scalar> 
203709
(
2.376222e+15
2.436788e+15
2.379712e+15
2.180916e+15
2.119838e+15
2.249518e+15
2.455764e+15
2.440438e+15
2.368713e+15
2.308651e+15
2.265834e+15
1.987419e+15
1.927417e+15
2.06122e+15
2.117513e+15
2.133626e+15
2.261215e+15
2.304445e+15
2.261626e+15
2.112235e+15
2.076444e+15
1.973124e+15
1.83314e+15
1.617484e+15
2.128072e+15
2.080035e+15
2.180729e+15
2.173087e+15
2.176947e+15
2.224239e+15
2.201979e+15
2.065382e+15
2.028431e+15
2.133901e+15
1.967382e+15
1.863892e+15
1.823588e+15
1.72503e+15
2.208533e+15
2.144412e+15
2.147402e+15
2.106326e+15
2.076604e+15
2.090008e+15
2.112075e+15
2.109636e+15
2.106968e+15
2.033224e+15
1.962968e+15
2.071131e+15
1.972521e+15
1.989045e+15
2.140555e+15
2.069053e+15
1.924036e+15
1.829104e+15
1.775049e+15
1.798376e+15
1.93258e+15
2.01021e+15
2.053565e+15
2.083297e+15
2.089824e+15
2.069778e+15
2.062049e+15
2.036078e+15
2.207249e+15
2.191121e+15
2.151237e+15
2.009867e+15
1.731572e+15
1.364687e+15
1.038841e+15
1.672091e+15
1.923821e+15
2.076183e+15
2.153304e+15
2.171588e+15
2.180224e+15
2.176289e+15
2.196896e+15
2.211741e+15
2.253768e+15
2.296843e+15
2.38419e+15
2.17896e+15
2.053237e+15
1.839506e+15
1.56265e+15
1.523823e+15
1.734602e+15
1.954437e+15
2.092049e+15
2.18336e+15
2.238357e+15
2.282258e+15
2.302233e+15
2.335957e+15
2.360589e+15
2.392014e+15
2.403405e+15
2.555144e+15
2.374551e+15
2.243045e+15
2.139087e+15
2.019386e+15
1.926922e+15
1.996908e+15
2.074271e+15
2.160264e+15
2.209858e+15
2.259883e+15
2.282101e+15
2.329733e+15
2.356617e+15
2.406588e+15
2.450865e+15
2.48821e+15
2.533509e+15
2.596932e+15
2.404623e+15
2.311817e+15
2.235799e+15
2.173157e+15
2.152791e+15
2.193435e+15
2.218129e+15
2.260168e+15
2.275044e+15
2.303886e+15
2.326917e+15
2.376222e+15
2.416024e+15
2.477621e+15
2.534148e+15
2.578986e+15
2.635546e+15
2.708605e+15
2.480965e+15
2.377774e+15
2.326012e+15
2.290532e+15
2.288882e+15
2.30435e+15
2.309277e+15
2.311767e+15
2.323223e+15
2.347044e+15
2.380738e+15
2.433122e+15
2.494354e+15
2.566125e+15
2.630649e+15
2.67623e+15
2.768949e+15
2.846546e+15
2.414218e+15
2.381145e+15
2.363415e+15
2.355407e+15
2.343788e+15
2.334869e+15
2.328247e+15
2.337357e+15
2.375687e+15
2.438096e+15
2.511328e+15
2.591382e+15
2.674539e+15
2.742068e+15
2.791411e+15
2.908078e+15
2.407246e+15
2.385247e+15
2.365824e+15
2.341551e+15
2.322683e+15
2.318833e+15
2.338828e+15
2.388521e+15
2.456513e+15
2.538527e+15
2.623592e+15
2.712396e+15
2.800041e+15
2.852125e+15
2.929932e+15
3.057403e+15
2.340576e+15
2.326967e+15
2.302225e+15
2.302861e+15
2.334521e+15
2.391903e+15
2.480374e+15
2.565307e+15
2.66887e+15
2.758187e+15
2.849664e+15
2.941811e+15
2.973049e+15
3.067827e+15
2.23475e+15
2.293262e+15
2.311028e+15
2.368416e+15
2.444537e+15
2.544316e+15
2.655806e+15
2.740046e+15
2.830209e+15
2.908597e+15
3.000475e+15
3.100492e+15
3.106883e+15
3.162725e+15
2.385734e+15
2.390841e+15
2.577995e+15
2.649705e+15
2.764508e+15
2.846564e+15
2.904665e+15
2.982818e+15
3.066413e+15
3.151698e+15
3.220968e+15
3.105552e+15
2.699329e+15
2.742014e+15
2.958621e+15
3.007066e+15
3.058846e+15
3.100173e+15
3.155898e+15
3.058579e+15
2.865501e+15
2.999026e+15
3.069935e+15
2.95786e+15
2.854388e+15
2.865981e+15
2.809139e+15
2.733846e+15
2.652495e+15
2.573234e+15
2.52395e+15
2.522199e+15
2.55681e+15
2.396794e+15
2.664325e+15
2.7436e+15
2.850677e+15
2.840966e+15
2.784833e+15
2.711251e+15
2.627471e+15
2.547599e+15
2.499981e+15
2.489602e+15
2.519707e+15
2.480706e+15
2.355383e+15
2.013593e+15
2.546904e+15
2.693339e+15
2.711381e+15
2.778029e+15
2.778013e+15
2.72989e+15
2.663778e+15
2.580122e+15
2.4948e+15
2.450179e+15
2.433797e+15
2.462136e+15
2.429436e+15
2.360536e+15
2.186105e+15
1.896455e+15
2.42963e+15
2.626526e+15
2.646818e+15
2.617564e+15
2.664573e+15
2.71218e+15
2.663711e+15
2.664417e+15
2.621919e+15
2.539693e+15
2.48291e+15
2.361368e+15
2.370699e+15
2.344822e+15
2.302718e+15
2.168482e+15
2.02337e+15
1.901895e+15
2.42838e+15
2.553415e+15
2.570701e+15
2.512031e+15
2.482181e+15
2.541175e+15
2.70766e+15
2.700185e+15
2.636069e+15
2.586377e+15
2.507227e+15
2.470062e+15
2.426355e+15
2.410882e+15
2.263907e+15
2.223299e+15
2.13139e+15
2.019951e+15
1.955287e+15
1.885937e+15
2.550835e+15
2.571811e+15
2.496841e+15
2.418191e+15
2.457998e+15
2.48266e+15
2.51191e+15
2.616253e+15
2.563339e+15
2.490543e+15
2.474918e+15
2.418745e+15
2.330361e+15
2.290029e+15
2.304525e+15
2.29667e+15
2.183471e+15
2.076303e+15
1.981527e+15
1.90501e+15
1.865352e+15
1.842105e+15
2.499438e+15
2.510763e+15
2.400917e+15
2.368237e+15
2.396049e+15
2.366737e+15
2.436467e+15
2.459918e+15
2.462624e+15
2.455444e+15
2.446502e+15
2.323773e+15
2.268683e+15
2.298428e+15
2.197985e+15
2.120329e+15
2.008988e+15
1.934813e+15
1.902974e+15
1.893902e+15
1.887541e+15
1.875144e+15
2.64111e+15
2.639674e+15
2.456475e+15
2.340456e+15
2.30699e+15
2.32034e+15
2.291862e+15
2.301759e+15
2.255086e+15
2.2009e+15
2.149748e+15
2.147167e+15
2.144027e+15
2.178958e+15
2.119856e+15
2.106733e+15
2.217858e+15
2.141949e+15
2.133161e+15
2.106611e+15
2.102799e+15
2.111555e+15
2.177535e+15
2.214989e+15
2.644735e+15
2.637983e+15
2.417543e+15
2.319324e+15
2.22216e+15
2.210414e+15
2.060429e+15
1.95121e+15
1.810315e+15
1.748073e+15
1.828176e+15
1.885857e+15
1.936872e+15
1.991757e+15
2.026425e+15
2.061327e+15
2.063602e+15
2.042529e+15
2.157694e+15
2.112902e+15
2.198623e+15
2.23675e+15
2.274608e+15
2.388137e+15
2.640236e+15
2.61107e+15
2.446873e+15
2.307568e+15
2.169604e+15
2.088928e+15
1.8117e+15
1.543889e+15
1.327857e+15
1.599287e+15
1.775462e+15
1.870599e+15
1.923139e+15
1.953565e+15
1.9756e+15
2.005e+15
2.055763e+15
2.104072e+15
2.169314e+15
2.222998e+15
2.34018e+15
2.358578e+15
2.404146e+15
2.53166e+15
2.638498e+15
2.606673e+15
2.483523e+15
2.317626e+15
2.211956e+15
2.083957e+15
1.812835e+15
1.52402e+15
1.406332e+15
1.587798e+15
1.761959e+15
1.875265e+15
1.946363e+15
1.999335e+15
2.048917e+15
2.101383e+15
2.158434e+15
2.217552e+15
2.295754e+15
2.347489e+15
2.447468e+15
2.467484e+15
2.509497e+15
2.639949e+15
2.629368e+15
2.605051e+15
2.523621e+15
2.365283e+15
2.270608e+15
2.150277e+15
1.957057e+15
1.793218e+15
1.791969e+15
1.85035e+15
1.91029e+15
1.960231e+15
2.001749e+15
2.043098e+15
2.093064e+15
2.155135e+15
2.227585e+15
2.304367e+15
2.37774e+15
2.458547e+15
2.533265e+15
2.583972e+15
2.62628e+15
2.736179e+15
2.604766e+15
2.596176e+15
2.543729e+15
2.416963e+15
2.333161e+15
2.235265e+15
2.106302e+15
2.012975e+15
1.995002e+15
2.010193e+15
2.031e+15
2.051828e+15
2.077503e+15
2.116301e+15
2.173411e+15
2.248354e+15
2.335158e+15
2.424371e+15
2.502397e+15
2.584464e+15
2.645521e+15
2.701694e+15
2.740372e+15
2.832199e+15
2.5566e+15
2.568176e+15
2.535054e+15
2.453588e+15
2.387544e+15
2.3187e+15
2.232967e+15
2.174121e+15
2.147966e+15
2.134216e+15
2.128132e+15
2.134023e+15
2.159427e+15
2.210632e+15
2.287345e+15
2.383606e+15
2.488392e+15
2.587365e+15
2.661947e+15
2.75819e+15
2.776501e+15
2.833993e+15
2.860661e+15
2.939668e+15
2.502082e+15
2.525212e+15
2.508006e+15
2.480258e+15
2.41991e+15
2.36412e+15
2.305997e+15
2.259727e+15
2.224171e+15
2.199142e+15
2.191292e+15
2.208871e+15
2.257428e+15
2.338518e+15
2.443939e+15
2.564726e+15
2.685616e+15
2.784486e+15
2.850754e+15
2.920279e+15
2.960224e+15
2.989127e+15
2.985153e+15
3.044947e+15
2.445331e+15
2.46964e+15
2.459962e+15
2.442275e+15
2.410271e+15
2.380385e+15
2.339001e+15
2.295385e+15
2.260114e+15
2.245807e+15
2.262723e+15
2.315547e+15
2.402811e+15
2.520312e+15
2.650366e+15
2.789033e+15
2.913523e+15
2.995248e+15
3.071359e+15
3.102744e+15
3.113459e+15
3.109262e+15
3.083456e+15
3.130774e+15
2.294751e+15
2.390087e+15
2.379107e+15
2.383582e+15
2.344761e+15
2.342578e+15
2.30867e+15
2.28323e+15
2.284901e+15
2.319246e+15
2.388442e+15
2.487216e+15
2.61026e+15
2.754959e+15
2.890919e+15
3.035354e+15
3.141849e+15
3.195686e+15
3.256862e+15
3.263634e+15
3.250461e+15
3.195944e+15
3.17836e+15
3.229128e+15
2.365503e+15
2.35002e+15
2.328996e+15
2.316122e+15
2.316276e+15
2.335158e+15
2.36098e+15
2.42011e+15
2.504569e+15
2.610859e+15
2.730268e+15
2.863017e+15
3.015074e+15
3.128854e+15
3.275648e+15
3.344457e+15
3.420216e+15
3.461414e+15
3.366981e+15
3.335154e+15
3.230739e+15
3.187958e+15
2.306234e+15
2.451488e+15
2.429062e+15
2.430008e+15
2.429582e+15
2.510803e+15
2.580663e+15
2.687436e+15
2.772136e+15
2.871675e+15
2.980641e+15
3.102361e+15
3.254301e+15
3.322154e+15
3.500076e+15
3.511485e+15
3.555188e+15
3.4967e+15
3.448132e+15
3.404414e+15
3.281251e+15
3.205396e+15
2.274907e+15
2.523043e+15
2.54785e+15
2.625095e+15
2.668615e+15
2.771443e+15
2.896585e+15
2.99442e+15
3.099552e+15
3.184059e+15
3.286026e+15
3.453241e+15
3.462417e+15
3.617379e+15
3.540199e+15
3.507955e+15
3.565824e+15
3.53857e+15
3.452427e+15
3.161669e+15
2.391008e+15
2.731269e+15
2.843032e+15
2.852363e+15
2.961583e+15
3.017991e+15
3.078506e+15
3.183674e+15
3.311142e+15
3.394304e+15
3.538072e+15
3.463163e+15
3.566847e+15
3.622191e+15
3.589327e+15
3.653959e+15
3.572916e+15
3.319392e+15
2.518101e+15
2.99531e+15
2.970842e+15
3.101788e+15
3.140687e+15
3.182017e+15
3.225818e+15
3.305134e+15
3.371587e+15
3.478415e+15
3.540688e+15
3.660021e+15
3.703227e+15
3.624463e+15
3.66891e+15
3.475871e+15
2.791771e+15
2.955572e+15
3.21312e+15
3.239323e+15
3.251863e+15
3.299705e+15
3.381475e+15
3.46317e+15
3.546708e+15
3.614969e+15
3.68738e+15
3.726552e+15
3.626242e+15
3.647745e+15
2.973289e+15
3.218153e+15
3.227497e+15
3.268374e+15
3.336614e+15
3.413886e+15
3.502608e+15
3.58818e+15
3.673588e+15
3.696265e+15
3.184589e+15
3.004923e+15
2.916328e+15
2.81629e+15
2.722207e+15
2.671162e+15
2.695022e+15
2.825415e+15
3.029508e+15
3.003822e+15
3.043562e+15
3.021057e+15
2.939051e+15
2.847522e+15
2.748164e+15
2.660869e+15
2.619558e+15
2.649383e+15
2.718389e+15
2.720186e+15
2.715278e+15
2.645949e+15
2.951368e+15
2.881351e+15
2.940752e+15
2.997697e+15
2.96597e+15
2.88992e+15
2.796613e+15
2.700102e+15
2.615793e+15
2.574777e+15
2.600313e+15
2.661339e+15
2.672111e+15
2.615751e+15
2.501801e+15
2.142542e+15
2.952673e+15
2.861555e+15
2.88515e+15
2.833661e+15
2.870855e+15
2.947112e+15
2.953728e+15
2.883862e+15
2.783013e+15
2.684262e+15
2.600183e+15
2.560005e+15
2.584975e+15
2.641708e+15
2.622217e+15
2.47457e+15
2.363317e+15
2.037741e+15
1.634159e+15
1.43579e+15
2.937802e+15
2.888774e+15
2.827269e+15
2.814063e+15
2.802306e+15
2.875069e+15
2.916255e+15
2.90102e+15
2.837487e+15
2.739388e+15
2.644407e+15
2.560196e+15
2.513763e+15
2.526133e+15
2.576718e+15
2.591414e+15
2.48888e+15
2.320514e+15
1.890734e+15
1.557605e+15
1.395166e+15
1.040717e+15
3.024137e+15
2.949259e+15
2.848241e+15
2.76364e+15
2.800763e+15
2.773946e+15
2.814051e+15
2.844678e+15
2.845312e+15
2.79685e+15
2.70626e+15
2.61582e+15
2.531472e+15
2.477595e+15
2.475933e+15
2.512562e+15
2.514887e+15
2.444451e+15
2.31923e+15
2.033311e+15
1.472118e+15
1.322413e+15
1.048511e+15
7.978891e+14
2.937926e+15
2.909977e+15
2.785472e+15
2.770661e+15
2.778771e+15
2.708179e+15
2.75756e+15
2.787586e+15
2.792457e+15
2.746377e+15
2.65051e+15
2.567354e+15
2.483946e+15
2.426803e+15
2.421916e+15
2.452365e+15
2.454082e+15
2.402099e+15
2.294451e+15
2.079953e+15
1.806486e+15
1.472336e+15
1.239425e+15
1.043287e+15
2.939475e+15
2.975138e+15
2.852837e+15
2.805135e+15
2.753301e+15
2.707129e+15
2.668996e+15
2.711174e+15
2.727853e+15
2.695255e+15
2.66714e+15
2.589858e+15
2.518922e+15
2.445908e+15
2.385602e+15
2.369541e+15
2.392795e+15
2.390478e+15
2.354226e+15
2.272704e+15
2.116149e+15
1.917277e+15
1.830705e+15
1.687972e+15
1.539305e+15
1.362594e+15
3.019511e+15
2.997089e+15
2.926378e+15
2.897077e+15
2.787778e+15
2.666322e+15
2.66201e+15
2.627849e+15
2.63017e+15
2.646611e+15
2.61385e+15
2.574056e+15
2.493471e+15
2.453998e+15
2.396133e+15
2.314342e+15
2.289993e+15
2.295159e+15
2.29757e+15
2.274107e+15
2.21475e+15
2.117132e+15
1.990774e+15
1.868623e+15
1.836039e+15
1.806371e+15
1.771997e+15
1.774333e+15
2.979778e+15
2.967001e+15
2.875083e+15
2.87984e+15
2.710121e+15
2.619517e+15
2.623035e+15
2.591501e+15
2.586379e+15
2.595535e+15
2.570209e+15
2.543683e+15
2.50827e+15
2.482396e+15
2.373528e+15
2.30187e+15
2.304347e+15
2.233023e+15
2.178524e+15
2.106448e+15
2.054545e+15
2.017373e+15
2.003581e+15
1.982603e+15
1.97317e+15
2.019715e+15
2.013369e+15
2.028651e+15
2.931931e+15
2.903332e+15
2.88023e+15
2.853958e+15
2.651871e+15
2.596357e+15
2.583538e+15
2.553216e+15
2.539592e+15
2.512059e+15
2.452627e+15
2.390729e+15
2.324227e+15
2.290736e+15
2.263312e+15
2.270322e+15
2.217333e+15
2.208653e+15
2.27812e+15
2.24419e+15
2.24453e+15
2.259402e+15
2.265972e+15
2.251969e+15
2.242519e+15
2.232141e+15
2.230068e+15
2.245997e+15
2.925809e+15
2.967016e+15
2.884835e+15
2.860206e+15
2.787492e+15
2.621316e+15
2.565543e+15
2.514078e+15
2.452098e+15
2.328605e+15
2.17483e+15
2.008486e+15
1.916432e+15
1.962186e+15
2.026771e+15
2.084344e+15
2.14364e+15
2.182256e+15
2.211826e+15
2.198051e+15
2.19342e+15
2.257583e+15
2.279575e+15
2.342258e+15
2.375214e+15
2.387872e+15
2.403284e+15
2.404921e+15
2.4198e+15
2.40869e+15
2.868115e+15
2.89513e+15
2.838506e+15
2.824015e+15
2.746299e+15
2.606421e+15
2.531959e+15
2.469241e+15
2.354947e+15
2.096955e+15
1.805439e+15
1.600551e+15
1.741156e+15
1.935325e+15
2.030859e+15
2.087557e+15
2.122555e+15
2.147205e+15
2.180524e+15
2.23281e+15
2.276406e+15
2.329777e+15
2.373473e+15
2.460697e+15
2.49928e+15
2.516293e+15
2.524397e+15
2.526357e+15
2.490763e+15
2.516302e+15
2.818986e+15
2.835432e+15
2.787762e+15
2.779784e+15
2.713889e+15
2.605805e+15
2.524023e+15
2.468275e+15
2.358808e+15
2.096504e+15
1.735136e+15
1.504705e+15
1.746656e+15
1.962453e+15
2.08845e+15
2.166955e+15
2.225946e+15
2.278831e+15
2.331424e+15
2.384706e+15
2.434217e+15
2.486252e+15
2.521467e+15
2.588697e+15
2.632055e+15
2.638477e+15
2.640561e+15
2.639098e+15
2.595028e+15
2.612898e+15
2.762799e+15
2.774149e+15
2.735331e+15
2.731558e+15
2.681102e+15
2.60502e+15
2.537329e+15
2.483488e+15
2.402179e+15
2.231806e+15
2.021926e+15
2.008022e+15
2.080432e+15
2.156065e+15
2.215674e+15
2.265012e+15
2.312956e+15
2.368175e+15
2.430659e+15
2.498988e+15
2.56535e+15
2.622265e+15
2.675174e+15
2.726184e+15
2.765692e+15
2.760461e+15
2.754861e+15
2.736325e+15
2.682663e+15
2.691158e+15
2.697181e+15
2.708004e+15
2.67738e+15
2.67843e+15
2.642707e+15
2.593543e+15
2.549006e+15
2.506876e+15
2.453248e+15
2.366422e+15
2.279611e+15
2.276163e+15
2.298056e+15
2.319494e+15
2.33978e+15
2.368943e+15
2.413804e+15
2.47753e+15
2.555004e+15
2.639506e+15
2.719317e+15
2.783457e+15
2.836365e+15
2.880955e+15
2.906347e+15
2.880754e+15
2.863872e+15
2.819627e+15
2.75548e+15
2.747011e+15
2.636304e+15
2.639203e+15
2.611184e+15
2.616726e+15
2.592965e+15
2.563898e+15
2.540424e+15
2.518986e+15
2.489914e+15
2.449966e+15
2.422201e+15
2.41532e+15
2.410031e+15
2.406324e+15
2.416283e+15
2.450706e+15
2.512621e+15
2.598142e+15
2.698091e+15
2.801085e+15
2.891451e+15
2.957258e+15
3.011586e+15
3.049613e+15
3.051336e+15
2.994017e+15
2.962466e+15
2.88358e+15
2.803285e+15
2.784953e+15
2.615542e+15
2.598075e+15
2.56079e+15
2.562153e+15
2.538961e+15
2.518786e+15
2.505268e+15
2.500199e+15
2.489347e+15
2.47159e+15
2.460634e+15
2.444996e+15
2.431385e+15
2.434214e+15
2.466704e+15
2.533476e+15
2.629463e+15
2.743625e+15
2.865041e+15
2.980612e+15
3.070275e+15
3.128535e+15
3.174041e+15
3.194113e+15
3.173222e+15
3.081694e+15
3.03954e+15
2.917084e+15
2.823826e+15
2.80577e+15
2.580653e+15
2.564173e+15
2.521003e+15
2.510332e+15
2.480684e+15
2.462543e+15
2.451586e+15
2.449812e+15
2.446664e+15
2.438452e+15
2.419135e+15
2.406182e+15
2.417872e+15
2.466164e+15
2.551106e+15
2.663122e+15
2.790627e+15
2.922305e+15
3.051721e+15
3.164713e+15
3.236889e+15
3.287158e+15
3.325413e+15
3.3259e+15
3.258091e+15
3.137716e+15
3.087578e+15
2.907937e+15
2.830456e+15
2.811547e+15
2.527393e+15
2.498663e+15
2.50208e+15
2.467e+15
2.417324e+15
2.38683e+15
2.36715e+15
2.358967e+15
2.344932e+15
2.346727e+15
2.38917e+15
2.473599e+15
2.589827e+15
2.721706e+15
2.855976e+15
2.987809e+15
3.113361e+15
3.233099e+15
3.32566e+15
3.36855e+15
3.408358e+15
3.423598e+15
3.413253e+15
3.294956e+15
3.201131e+15
3.107739e+15
2.87145e+15
2.796252e+15
2.59968e+15
2.556956e+15
2.468409e+15
2.456121e+15
2.39956e+15
2.36158e+15
2.345665e+15
2.349942e+15
2.381495e+15
2.452372e+15
2.565047e+15
2.700245e+15
2.835389e+15
2.957665e+15
3.069218e+15
3.175032e+15
3.278443e+15
3.379516e+15
3.443542e+15
3.472332e+15
3.501402e+15
3.504229e+15
3.465422e+15
3.308875e+15
3.233366e+15
3.001834e+15
2.855822e+15
2.804913e+15
2.569045e+15
2.62412e+15
2.578127e+15
2.599484e+15
2.600832e+15
2.572511e+15
2.577151e+15
2.610234e+15
2.675284e+15
2.774334e+15
2.886285e+15
2.988299e+15
3.075723e+15
3.151094e+15
3.229288e+15
3.308091e+15
3.397563e+15
3.487113e+15
3.532144e+15
3.556085e+15
3.548249e+15
3.552019e+15
3.501429e+15
3.376134e+15
3.255365e+15
2.980452e+15
2.858692e+15
2.749634e+15
2.477332e+15
2.675703e+15
2.642383e+15
2.714901e+15
2.758563e+15
2.793436e+15
2.884093e+15
2.980234e+15
3.070919e+15
3.135756e+15
3.190259e+15
3.224441e+15
3.270283e+15
3.33467e+15
3.402522e+15
3.499715e+15
3.580676e+15
3.61655e+15
3.635868e+15
3.592986e+15
3.596237e+15
3.563865e+15
3.371942e+15
3.1168e+15
3.038331e+15
2.799249e+15
2.649443e+15
2.772903e+15
2.801821e+15
2.90558e+15
3.036951e+15
3.119629e+15
3.18557e+15
3.250664e+15
3.294571e+15
3.316123e+15
3.316678e+15
3.368083e+15
3.434213e+15
3.502978e+15
3.606823e+15
3.68087e+15
3.686575e+15
3.686999e+15
3.631772e+15
3.668508e+15
3.570963e+15
3.278828e+15
3.198189e+15
3.070585e+15
2.651528e+15
2.895766e+15
2.987457e+15
2.966195e+15
3.141682e+15
3.276528e+15
3.29556e+15
3.341251e+15
3.369697e+15
3.382769e+15
3.406947e+15
3.472494e+15
3.543034e+15
3.61311e+15
3.6807e+15
3.731667e+15
3.737723e+15
3.730403e+15
3.693419e+15
3.692976e+15
3.541937e+15
3.370022e+15
3.262138e+15
3.080203e+15
2.713588e+15
3.075367e+15
3.096466e+15
3.156567e+15
3.304369e+15
3.376488e+15
3.423105e+15
3.425068e+15
3.426873e+15
3.454969e+15
3.527302e+15
3.596576e+15
3.661067e+15
3.720619e+15
3.772996e+15
3.80222e+15
3.778255e+15
3.725494e+15
3.699949e+15
3.621257e+15
3.43451e+15
3.330589e+15
2.92173e+15
3.076377e+15
3.242507e+15
3.292352e+15
3.280951e+15
3.420989e+15
3.474176e+15
3.476679e+15
3.509707e+15
3.578673e+15
3.642849e+15
3.704243e+15
3.761916e+15
3.812725e+15
3.818188e+15
3.752708e+15
3.742698e+15
3.78164e+15
3.709044e+15
3.5882e+15
3.132942e+15
3.363142e+15
3.379554e+15
3.411189e+15
3.410995e+15
3.413893e+15
3.447076e+15
3.51136e+15
3.578318e+15
3.644212e+15
3.708868e+15
3.784258e+15
3.837256e+15
3.811694e+15
3.785267e+15
3.974652e+15
3.329061e+15
3.423287e+15
3.434733e+15
3.480162e+15
3.478947e+15
3.507398e+15
3.573312e+15
3.634037e+15
3.687153e+15
3.737015e+15
3.806117e+15
3.881747e+15
3.876912e+15
4.058201e+15
3.55458e+15
3.508666e+15
3.526447e+15
3.590536e+15
3.649067e+15
3.70795e+15
3.768087e+15
4.02978e+15
3.304876e+15
2.99977e+15
2.902523e+15
2.789993e+15
2.71261e+15
2.875448e+15
3.215307e+15
3.125258e+15
3.122522e+15
3.108991e+15
3.035088e+15
2.90428e+15
2.806698e+15
2.70375e+15
2.634414e+15
2.661398e+15
2.803295e+15
2.892317e+15
2.989383e+15
3.106939e+15
3.178966e+15
3.029455e+15
2.970153e+15
3.028e+15
3.056104e+15
3.017654e+15
2.975721e+15
2.845519e+15
2.745546e+15
2.652818e+15
2.605149e+15
2.652626e+15
2.747925e+15
2.810085e+15
2.866123e+15
2.865135e+15
2.85497e+15
2.877814e+15
3.164039e+15
2.996962e+15
2.957419e+15
2.893944e+15
2.971788e+15
3.030415e+15
3.001617e+15
2.961744e+15
2.836701e+15
2.73685e+15
2.651043e+15
2.613645e+15
2.651275e+15
2.726447e+15
2.773808e+15
2.774876e+15
2.719328e+15
2.593235e+15
2.452875e+15
2.368875e+15
3.15966e+15
3.007003e+15
2.92354e+15
2.903029e+15
2.882534e+15
2.951735e+15
3.018332e+15
2.994713e+15
2.950914e+15
2.828773e+15
2.731568e+15
2.647821e+15
2.609491e+15
2.631775e+15
2.674751e+15
2.688033e+15
2.643741e+15
2.546415e+15
2.332393e+15
2.082402e+15
1.856737e+15
1.692253e+15
3.196704e+15
3.054672e+15
2.945147e+15
2.897446e+15
2.880629e+15
2.865262e+15
2.928589e+15
2.994098e+15
2.978912e+15
2.938599e+15
2.824432e+15
2.73128e+15
2.645588e+15
2.597434e+15
2.596559e+15
2.604513e+15
2.582549e+15
2.501388e+15
2.340171e+15
2.125515e+15
1.866334e+15
1.612071e+15
1.413217e+15
1.33736e+15
3.264899e+15
3.130667e+15
3.036224e+15
2.930827e+15
2.863574e+15
2.84252e+15
2.832103e+15
2.891708e+15
2.956255e+15
2.953003e+15
2.919249e+15
2.818007e+15
2.730883e+15
2.642809e+15
2.582129e+15
2.559466e+15
2.541402e+15
2.484102e+15
2.375389e+15
2.181585e+15
1.951062e+15
1.702315e+15
1.50475e+15
1.371979e+15
1.315474e+15
1.302733e+15
3.296671e+15
3.175122e+15
3.119864e+15
3.022608e+15
2.898695e+15
2.827237e+15
2.790601e+15
2.7829e+15
2.837205e+15
2.896324e+15
2.904883e+15
2.881104e+15
2.798e+15
2.719434e+15
2.632497e+15
2.562245e+15
2.528437e+15
2.504743e+15
2.432153e+15
2.318222e+15
2.089929e+15
1.867291e+15
1.610097e+15
1.391886e+15
1.252071e+15
1.193579e+15
1.315629e+15
1.360443e+15
3.364954e+15
3.267884e+15
3.152785e+15
3.092211e+15
2.982995e+15
2.863619e+15
2.766544e+15
2.721904e+15
2.711716e+15
2.769367e+15
2.829355e+15
2.852428e+15
2.839287e+15
2.773937e+15
2.706479e+15
2.626465e+15
2.554967e+15
2.506692e+15
2.47845e+15
2.41331e+15
2.315594e+15
2.122994e+15
1.89745e+15
1.688441e+15
1.463453e+15
1.226403e+15
1.024201e+15
1.345778e+15
1.415435e+15
1.38483e+15
3.255333e+15
3.194167e+15
3.136043e+15
3.077193e+15
2.939127e+15
2.80463e+15
2.691312e+15
2.650826e+15
2.657505e+15
2.710712e+15
2.766723e+15
2.794526e+15
2.79546e+15
2.745794e+15
2.687581e+15
2.617609e+15
2.547629e+15
2.495844e+15
2.461891e+15
2.403017e+15
2.326334e+15
2.194729e+15
2.024153e+15
1.8407e+15
1.728217e+15
1.631102e+15
1.598085e+15
1.511175e+15
1.619952e+15
1.479805e+15
3.294162e+15
3.188297e+15
3.169403e+15
3.113196e+15
3.016807e+15
2.874928e+15
2.741808e+15
2.637428e+15
2.609129e+15
2.623066e+15
2.660575e+15
2.709505e+15
2.722552e+15
2.70544e+15
2.648791e+15
2.608104e+15
2.549756e+15
2.472399e+15
2.428821e+15
2.399587e+15
2.364908e+15
2.313447e+15
2.226547e+15
2.119149e+15
2.006412e+15
1.896347e+15
1.853385e+15
1.849611e+15
1.827553e+15
1.860444e+15
1.789281e+15
1.891229e+15
3.223622e+15
3.157483e+15
3.134537e+15
3.054927e+15
2.967078e+15
2.819017e+15
2.704414e+15
2.61714e+15
2.59561e+15
2.61908e+15
2.647805e+15
2.670805e+15
2.664091e+15
2.643783e+15
2.612084e+15
2.587712e+15
2.494554e+15
2.428796e+15
2.407112e+15
2.332671e+15
2.268963e+15
2.194627e+15
2.126326e+15
2.072618e+15
2.056038e+15
2.058487e+15
2.06375e+15
2.092422e+15
2.086621e+15
2.075796e+15
2.073575e+15
2.115897e+15
3.199996e+15
3.137103e+15
3.118623e+15
3.017867e+15
2.914359e+15
2.792149e+15
2.69721e+15
2.616252e+15
2.60101e+15
2.628525e+15
2.636447e+15
2.621518e+15
2.579539e+15
2.530037e+15
2.474405e+15
2.420421e+15
2.380112e+15
2.372373e+15
2.317252e+15
2.30762e+15
2.352255e+15
2.329587e+15
2.329714e+15
2.341569e+15
2.353807e+15
2.357778e+15
2.356977e+15
2.360343e+15
2.331439e+15
2.319931e+15
2.274821e+15
2.296266e+15
3.073163e+15
3.082227e+15
3.055178e+15
2.967932e+15
2.874364e+15
2.771758e+15
2.689219e+15
2.620988e+15
2.579437e+15
2.5664e+15
2.475151e+15
2.339589e+15
2.186453e+15
2.084957e+15
2.089085e+15
2.156758e+15
2.215146e+15
2.272842e+15
2.309865e+15
2.332778e+15
2.312866e+15
2.321064e+15
2.373625e+15
2.400563e+15
2.457238e+15
2.503011e+15
2.529595e+15
2.53715e+15
2.499568e+15
2.455594e+15
2.34119e+15
2.350519e+15
3.170741e+15
3.026632e+15
3.040378e+15
2.987605e+15
2.921095e+15
2.842348e+15
2.758531e+15
2.683916e+15
2.617697e+15
2.56658e+15
2.491266e+15
2.275513e+15
2.020161e+15
1.823285e+15
1.882766e+15
2.076944e+15
2.170371e+15
2.228167e+15
2.265155e+15
2.291009e+15
2.325407e+15
2.377669e+15
2.421212e+15
2.472241e+15
2.519846e+15
2.592409e+15
2.643195e+15
2.670591e+15
2.666556e+15
2.630244e+15
2.538212e+15
2.439782e+15
2.366992e+15
2.192842e+15
3.033442e+15
2.943924e+15
2.957541e+15
2.912439e+15
2.864731e+15
2.808532e+15
2.746522e+15
2.685702e+15
2.621257e+15
2.576613e+15
2.490668e+15
2.263193e+15
1.923262e+15
1.615545e+15
1.854639e+15
2.106847e+15
2.241167e+15
2.323859e+15
2.385306e+15
2.438573e+15
2.490555e+15
2.542025e+15
2.590697e+15
2.640378e+15
2.682671e+15
2.736301e+15
2.777547e+15
2.79164e+15
2.773148e+15
2.720357e+15
2.587452e+15
2.495357e+15
2.316974e+15
2.202874e+15
2.95901e+15
2.877602e+15
2.880461e+15
2.835953e+15
2.800219e+15
2.766719e+15
2.728843e+15
2.689257e+15
2.636751e+15
2.596198e+15
2.529545e+15
2.372078e+15
2.149409e+15
2.078516e+15
2.178095e+15
2.284207e+15
2.362081e+15
2.420596e+15
2.472812e+15
2.528326e+15
2.590064e+15
2.656801e+15
2.722163e+15
2.779961e+15
2.830378e+15
2.8736e+15
2.901439e+15
2.89704e+15
2.862086e+15
2.793761e+15
2.643789e+15
2.5531e+15
2.354691e+15
2.252517e+15
2.904758e+15
2.81766e+15
2.812269e+15
2.766752e+15
2.733598e+15
2.714985e+15
2.699545e+15
2.683625e+15
2.651318e+15
2.619258e+15
2.575454e+15
2.490074e+15
2.390775e+15
2.391133e+15
2.428337e+15
2.463179e+15
2.49277e+15
2.52626e+15
2.571688e+15
2.632717e+15
2.70714e+15
2.788687e+15
2.866853e+15
2.931728e+15
2.98077e+15
3.013359e+15
3.020724e+15
2.989304e+15
2.934309e+15
2.847277e+15
2.691132e+15
2.600995e+15
2.404153e+15
2.316127e+15
2.874253e+15
2.762225e+15
2.751968e+15
2.707179e+15
2.669592e+15
2.654266e+15
2.652734e+15
2.657436e+15
2.64856e+15
2.635382e+15
2.612949e+15
2.575011e+15
2.540023e+15
2.539604e+15
2.547449e+15
2.555524e+15
2.572308e+15
2.607519e+15
2.665474e+15
2.744367e+15
2.837948e+15
2.935675e+15
3.023083e+15
3.088601e+15
3.130367e+15
3.145706e+15
3.12472e+15
3.059248e+15
2.983876e+15
2.872728e+15
2.712079e+15
2.62002e+15
2.431761e+15
2.337865e+15
2.942012e+15
2.723406e+15
2.717843e+15
2.669354e+15
2.624943e+15
2.600417e+15
2.597632e+15
2.611426e+15
2.622113e+15
2.625582e+15
2.62079e+15
2.606645e+15
2.598244e+15
2.592337e+15
2.590018e+15
2.599847e+15
2.632022e+15
2.691244e+15
2.775466e+15
2.877754e+15
2.98974e+15
3.097456e+15
3.183273e+15
3.237997e+15
3.260417e+15
3.246495e+15
3.190055e+15
3.090003e+15
3.001116e+15
2.862933e+15
2.705173e+15
2.600152e+15
2.42683e+15
2.291786e+15
2.757131e+15
2.708779e+15
2.675118e+15
2.612447e+15
2.559564e+15
2.537169e+15
2.54599e+15
2.564059e+15
2.577733e+15
2.584877e+15
2.589645e+15
2.586582e+15
2.586305e+15
2.60426e+15
2.648159e+15
2.718664e+15
2.811306e+15
2.920026e+15
3.03754e+15
3.157376e+15
3.260941e+15
3.330071e+15
3.363867e+15
3.355098e+15
3.308729e+15
3.203871e+15
3.077944e+15
2.985721e+15
2.820618e+15
2.697518e+15
2.539751e+15
2.340909e+15
2.783875e+15
2.676158e+15
2.656235e+15
2.598587e+15
2.530315e+15
2.486619e+15
2.473537e+15
2.481161e+15
2.49159e+15
2.506993e+15
2.529153e+15
2.558498e+15
2.60783e+15
2.679426e+15
2.768523e+15
2.868601e+15
2.975315e+15
3.08821e+15
3.204031e+15
3.318644e+15
3.402174e+15
3.44436e+15
3.450255e+15
3.399158e+15
3.322645e+15
3.167814e+15
3.046531e+15
2.948468e+15
2.764565e+15
2.673422e+15
2.439643e+15
2.354168e+15
2.847132e+15
2.702715e+15
2.684919e+15
2.647023e+15
2.606726e+15
2.555233e+15
2.526371e+15
2.529106e+15
2.556779e+15
2.601942e+15
2.651282e+15
2.71142e+15
2.786747e+15
2.871924e+15
2.959704e+15
3.047635e+15
3.139144e+15
3.240064e+15
3.346035e+15
3.450133e+15
3.504113e+15
3.523926e+15
3.49923e+15
3.41311e+15
3.308398e+15
3.116869e+15
3.020911e+15
2.893522e+15
2.724701e+15
2.621105e+15
2.391404e+15
2.337159e+15
2.913353e+15
2.767274e+15
2.750253e+15
2.753232e+15
2.720991e+15
2.700611e+15
2.702912e+15
2.731271e+15
2.769408e+15
2.802548e+15
2.848376e+15
2.911077e+15
2.978306e+15
3.045502e+15
3.108382e+15
3.17462e+15
3.252737e+15
3.348606e+15
3.449656e+15
3.543894e+15
3.56743e+15
3.5737e+15
3.519329e+15
3.413381e+15
3.297311e+15
3.104376e+15
3.01547e+15
2.886163e+15
2.742551e+15
2.559804e+15
2.370873e+15
2.334635e+15
2.861189e+15
2.79755e+15
2.819524e+15
2.884124e+15
2.894768e+15
2.899501e+15
2.933231e+15
2.957384e+15
2.972903e+15
3.004883e+15
3.05399e+15
3.093465e+15
3.14392e+15
3.184678e+15
3.243726e+15
3.321509e+15
3.422039e+15
3.521631e+15
3.603353e+15
3.605741e+15
3.609829e+15
3.544051e+15
3.433929e+15
3.331838e+15
3.152052e+15
3.043972e+15
2.92373e+15
2.733149e+15
2.467134e+15
2.412525e+15
2.878504e+15
2.902113e+15
2.851845e+15
2.990323e+15
3.056332e+15
3.08709e+15
3.12179e+15
3.104749e+15
3.069726e+15
3.092536e+15
3.135012e+15
3.15551e+15
3.199286e+15
3.222474e+15
3.287233e+15
3.367545e+15
3.47326e+15
3.57262e+15
3.644798e+15
3.647831e+15
3.652424e+15
3.588403e+15
3.501489e+15
3.419561e+15
3.22141e+15
3.101935e+15
2.941085e+15
2.693442e+15
2.568607e+15
2.445573e+15
2.887237e+15
2.961829e+15
3.094875e+15
3.199488e+15
3.195275e+15
3.249044e+15
3.193951e+15
3.134398e+15
3.159104e+15
3.19268e+15
3.198289e+15
3.246326e+15
3.26167e+15
3.333157e+15
3.41441e+15
3.520982e+15
3.621994e+15
3.68976e+15
3.706756e+15
3.711814e+15
3.660045e+15
3.580591e+15
3.495196e+15
3.292427e+15
3.171795e+15
2.986621e+15
2.791646e+15
2.593105e+15
2.926848e+15
3.112589e+15
3.236135e+15
3.276533e+15
3.320179e+15
3.280973e+15
3.224913e+15
3.260421e+15
3.272726e+15
3.259092e+15
3.310015e+15
3.321737e+15
3.399434e+15
3.479608e+15
3.579648e+15
3.68184e+15
3.752332e+15
3.777603e+15
3.764479e+15
3.718391e+15
3.636963e+15
3.562447e+15
3.35396e+15
3.217328e+15
3.050521e+15
2.908273e+15
3.047702e+15
3.21679e+15
3.307622e+15
3.382312e+15
3.362351e+15
3.330132e+15
3.364962e+15
3.370379e+15
3.34917e+15
3.398633e+15
3.409157e+15
3.483184e+15
3.559076e+15
3.647621e+15
3.737653e+15
3.796476e+15
3.820342e+15
3.794969e+15
3.747599e+15
3.677429e+15
3.62112e+15
3.405379e+15
3.322799e+15
3.231916e+15
3.189681e+15
3.32569e+15
3.321634e+15
3.377134e+15
3.396993e+15
3.42557e+15
3.455161e+15
3.432904e+15
3.472122e+15
3.478266e+15
3.544542e+15
3.610795e+15
3.686834e+15
3.765581e+15
3.815673e+15
3.831361e+15