/*--------------------------------*- C++ -*----------------------------------*\
  =========                 |
  \\      /  F ield         | OpenFOAM: The Open Source CFD Toolbox
   \\    /   O peration     | Website:  https://openfoam.org
    \\  /    A nd           | Version:  6
     \\/     M anipulation  |
\*---------------------------------------------------------------------------*/
FoamFile
{
    version     2.0;
    format      ascii;
    class       volScalarField;
    location    "50/region0/neutronTransport";
    object      precursor1.dnp;
}
// * * * * * * * * * * * * * * * * * * * * * * * * * * * * * * * * * * * * * //

dimensions      [0 -3 0 0 0 0 0];

internalField   nonuniform List<scalar> 
203709
(
2.348102e+16
2.513735e+16
2.566735e+16
2.431702e+16
2.067113e+16
2.215766e+16
2.467334e+16
2.541865e+16
2.56928e+16
2.594923e+16
2.614516e+16
2.336738e+16
1.992021e+16
2.100559e+16
2.158566e+16
2.185255e+16
2.334867e+16
2.465284e+16
2.498791e+16
2.405167e+16
2.427693e+16
2.35888e+16
2.236807e+16
2.002568e+16
2.344704e+16
2.268051e+16
2.391019e+16
2.396424e+16
2.414821e+16
2.481483e+16
2.491331e+16
2.365192e+16
2.395676e+16
2.580069e+16
2.431123e+16
2.351089e+16
2.322229e+16
2.210542e+16
2.663819e+16
2.657798e+16
2.747986e+16
2.771616e+16
2.77247e+16
2.777188e+16
2.764075e+16
2.717918e+16
2.677471e+16
2.566513e+16
2.458358e+16
2.54838e+16
2.375188e+16
2.360255e+16
2.61933e+16
2.635065e+16
2.534508e+16
2.477527e+16
2.430138e+16
2.434649e+16
2.558845e+16
2.605615e+16
2.608182e+16
2.592631e+16
2.546112e+16
2.465877e+16
2.400938e+16
2.315571e+16
2.457211e+16
2.368186e+16
2.61546e+16
2.592604e+16
2.337181e+16
1.900136e+16
1.479395e+16
2.288292e+16
2.547067e+16
2.678931e+16
2.713717e+16
2.670843e+16
2.612001e+16
2.535756e+16
2.489484e+16
2.443022e+16
2.432202e+16
2.436215e+16
2.642425e+16
2.557735e+16
2.571797e+16
2.427613e+16
2.12943e+16
2.084895e+16
2.319321e+16
2.543201e+16
2.65705e+16
2.708039e+16
2.705392e+16
2.679956e+16
2.622631e+16
2.581924e+16
2.536775e+16
2.507716e+16
2.468216e+16
2.561249e+16
2.634013e+16
2.578059e+16
2.577963e+16
2.5379e+16
2.481572e+16
2.572643e+16
2.64391e+16
2.712565e+16
2.727132e+16
2.730438e+16
2.684916e+16
2.656653e+16
2.59922e+16
2.569635e+16
2.542058e+16
2.519263e+16
2.517331e+16
2.556332e+16
2.660311e+16
2.61798e+16
2.609847e+16
2.606743e+16
2.621351e+16
2.677717e+16
2.70015e+16
2.73194e+16
2.714308e+16
2.691634e+16
2.640136e+16
2.604184e+16
2.55348e+16
2.531576e+16
2.516474e+16
2.505445e+16
2.521387e+16
2.583975e+16
2.746192e+16
2.665073e+16
2.657207e+16
2.661314e+16
2.68332e+16
2.714974e+16
2.722214e+16
2.708346e+16
2.67888e+16
2.635317e+16
2.580739e+16
2.536192e+16
2.503037e+16
2.491203e+16
2.488416e+16
2.485986e+16
2.542826e+16
2.639796e+16
2.683043e+16
2.680966e+16
2.692658e+16
2.70554e+16
2.703601e+16
2.685695e+16
2.641934e+16
2.583807e+16
2.531987e+16
2.492023e+16
2.463621e+16
2.452601e+16
2.458997e+16
2.469145e+16
2.481039e+16
2.574652e+16
2.663976e+16
2.657378e+16
2.659555e+16
2.646968e+16
2.619927e+16
2.57826e+16
2.528006e+16
2.481542e+16
2.441787e+16
2.417905e+16
2.409457e+16
2.420416e+16
2.444809e+16
2.455206e+16
2.502679e+16
2.633496e+16
2.588332e+16
2.580224e+16
2.536028e+16
2.484953e+16
2.435414e+16
2.389065e+16
2.366484e+16
2.34844e+16
2.363193e+16
2.381881e+16
2.416386e+16
2.459065e+16
2.464871e+16
2.541267e+16
2.367499e+16
2.419634e+16
2.363102e+16
2.32319e+16
2.29724e+16
2.293704e+16
2.314297e+16
2.328461e+16
2.363396e+16
2.397813e+16
2.449132e+16
2.504063e+16
2.499231e+16
2.566529e+16
2.159232e+16
2.144318e+16
2.237226e+16
2.241215e+16
2.287329e+16
2.323115e+16
2.350303e+16
2.39922e+16
2.450004e+16
2.499664e+16
2.52501e+16
2.433652e+16
2.157398e+16
2.187179e+16
2.338122e+16
2.371576e+16
2.409253e+16
2.435708e+16
2.464016e+16
2.378584e+16
2.211604e+16
2.321728e+16
2.376436e+16
2.287493e+16
2.550861e+16
2.558436e+16
2.5796e+16
2.626943e+16
2.693466e+16
2.74692e+16
2.781674e+16
2.808394e+16
2.835655e+16
2.649278e+16
2.503225e+16
2.511523e+16
2.575902e+16
2.569833e+16
2.583184e+16
2.624246e+16
2.682104e+16
2.733349e+16
2.775549e+16
2.804295e+16
2.839491e+16
2.789397e+16
2.667163e+16
2.339757e+16
2.463811e+16
2.565321e+16
2.529568e+16
2.556401e+16
2.552848e+16
2.560914e+16
2.595331e+16
2.642618e+16
2.682168e+16
2.733169e+16
2.769939e+16
2.820854e+16
2.789879e+16
2.732081e+16
2.586044e+16
2.29437e+16
2.409454e+16
2.583857e+16
2.572509e+16
2.495047e+16
2.503777e+16
2.537077e+16
2.524835e+16
2.603427e+16
2.686152e+16
2.728789e+16
2.77691e+16
2.711532e+16
2.755968e+16
2.74818e+16
2.724336e+16
2.61118e+16
2.488571e+16
2.379161e+16
2.442676e+16
2.577873e+16
2.583709e+16
2.496052e+16
2.421024e+16
2.432694e+16
2.5835e+16
2.599855e+16
2.602729e+16
2.657248e+16
2.693112e+16
2.768671e+16
2.790535e+16
2.830375e+16
2.691294e+16
2.679362e+16
2.610811e+16
2.52043e+16
2.484067e+16
2.431229e+16
2.573593e+16
2.633519e+16
2.575498e+16
2.47696e+16
2.4843e+16
2.466935e+16
2.4611e+16
2.554242e+16
2.522055e+16
2.500922e+16
2.576028e+16
2.614247e+16
2.614286e+16
2.640454e+16
2.723577e+16
2.756185e+16
2.668549e+16
2.579329e+16
2.505197e+16
2.451383e+16
2.431458e+16
2.42966e+16
2.570512e+16
2.63043e+16
2.522059e+16
2.468187e+16
2.480038e+16
2.423788e+16
2.493171e+16
2.53395e+16
2.565522e+16
2.598633e+16
2.644355e+16
2.571689e+16
2.594887e+16
2.691923e+16
2.629494e+16
2.582838e+16
2.499837e+16
2.451767e+16
2.420039e+16
2.387423e+16
2.34168e+16
2.344525e+16
2.673323e+16
2.743438e+16
2.627563e+16
2.516296e+16
2.489654e+16
2.557274e+16
2.552681e+16
2.634484e+16
2.656281e+16
2.649416e+16
2.613548e+16
2.603172e+16
2.584667e+16
2.619384e+16
2.551756e+16
2.549515e+16
2.688453e+16
2.571409e+16
2.506809e+16
2.401312e+16
2.343707e+16
2.302367e+16
2.331682e+16
2.317275e+16
2.702185e+16
2.76844e+16
2.619686e+16
2.53816e+16
2.48059e+16
2.517579e+16
2.438559e+16
2.397664e+16
2.282043e+16
2.209733e+16
2.271851e+16
2.301446e+16
2.319747e+16
2.338725e+16
2.329403e+16
2.316977e+16
2.27133e+16
2.199361e+16
2.31927e+16
2.225415e+16
2.273488e+16
2.270031e+16
2.272603e+16
2.364283e+16
2.717891e+16
2.754875e+16
2.660708e+16
2.541321e+16
2.442569e+16
2.420573e+16
2.193519e+16
1.952809e+16
1.719414e+16
2.031713e+16
2.203107e+16
2.273707e+16
2.288648e+16
2.269927e+16
2.234173e+16
2.198898e+16
2.192139e+16
2.189419e+16
2.215833e+16
2.250457e+16
2.328338e+16
2.303808e+16
2.311129e+16
2.413983e+16
2.73186e+16
2.75665e+16
2.694894e+16
2.54834e+16
2.485301e+16
2.408354e+16
2.174017e+16
1.894128e+16
1.767359e+16
1.969217e+16
2.146062e+16
2.242687e+16
2.280143e+16
2.283725e+16
2.271498e+16
2.255533e+16
2.243839e+16
2.240315e+16
2.269133e+16
2.307962e+16
2.373096e+16
2.341122e+16
2.338015e+16
2.438994e+16
2.73506e+16
2.757852e+16
2.726786e+16
2.58997e+16
2.528005e+16
2.450758e+16
2.289771e+16
2.142024e+16
2.149722e+16
2.20934e+16
2.258764e+16
2.286275e+16
2.289365e+16
2.274534e+16
2.253642e+16
2.237734e+16
2.232856e+16
2.240257e+16
2.258699e+16
2.302777e+16
2.36738e+16
2.366274e+16
2.370719e+16
2.453271e+16
2.719597e+16
2.751459e+16
2.739665e+16
2.634705e+16
2.574499e+16
2.507273e+16
2.404069e+16
2.323007e+16
2.308013e+16
2.322496e+16
2.333267e+16
2.32863e+16
2.307447e+16
2.277822e+16
2.250944e+16
2.23617e+16
2.237017e+16
2.252041e+16
2.274455e+16
2.321801e+16
2.379724e+16
2.387535e+16
2.395849e+16
2.465948e+16
2.67567e+16
2.725561e+16
2.727677e+16
2.669237e+16
2.617864e+16
2.568394e+16
2.499817e+16
2.450048e+16
2.427908e+16
2.411594e+16
2.388408e+16
2.354371e+16
2.313759e+16
2.277256e+16
2.254606e+16
2.251124e+16
2.265401e+16
2.290442e+16
2.314831e+16
2.381589e+16
2.394466e+16
2.412745e+16
2.42219e+16
2.488075e+16
2.616132e+16
2.680646e+16
2.698833e+16
2.691818e+16
2.64512e+16
2.599374e+16
2.552078e+16
2.513745e+16
2.480017e+16
2.441798e+16
2.395829e+16
2.345711e+16
2.301007e+16
2.273921e+16
2.269556e+16
2.288418e+16
2.322311e+16
2.354981e+16
2.382571e+16
2.446351e+16
2.447684e+16
2.461164e+16
2.455874e+16
2.512968e+16
2.535904e+16
2.609809e+16
2.640087e+16
2.648351e+16
2.632399e+16
2.61119e+16
2.577377e+16
2.536289e+16
2.485071e+16
2.425771e+16
2.365256e+16
2.314647e+16
2.2855e+16
2.286545e+16
2.311282e+16
2.35769e+16
2.407448e+16
2.436418e+16
2.481746e+16
2.506201e+16
2.492798e+16
2.487197e+16
2.47561e+16
2.530833e+16
2.34884e+16
2.489896e+16
2.528187e+16
2.570273e+16
2.545452e+16
2.558021e+16
2.52063e+16
2.46668e+16
2.408174e+16
2.349679e+16
2.304545e+16
2.282981e+16
2.292471e+16
2.335921e+16
2.3885e+16
2.457765e+16
2.505965e+16
2.519958e+16
2.569438e+16
2.547909e+16
2.533394e+16
2.500027e+16
2.504782e+16
2.571564e+16
2.394423e+16
2.435329e+16
2.458584e+16
2.472528e+16
2.425792e+16
2.411882e+16
2.351011e+16
2.306703e+16
2.279709e+16
2.277284e+16
2.30065e+16
2.352722e+16
2.433543e+16
2.491593e+16
2.574202e+16
2.599012e+16
2.629231e+16
2.653713e+16
2.564609e+16
2.543791e+16
2.484814e+16
2.476761e+16
2.155462e+16
2.320247e+16
2.313217e+16
2.292374e+16
2.249941e+16
2.245313e+16
2.240448e+16
2.272007e+16
2.283653e+16
2.321172e+16
2.377608e+16
2.453244e+16
2.553989e+16
2.585887e+16
2.693556e+16
2.675287e+16
2.686272e+16
2.615549e+16
2.575615e+16
2.553629e+16
2.492804e+16
2.467518e+16
1.973166e+16
2.170615e+16
2.166061e+16
2.197348e+16
2.195751e+16
2.23425e+16
2.29505e+16
2.347529e+16
2.416329e+16
2.474958e+16
2.548244e+16
2.664023e+16
2.648853e+16
2.740004e+16
2.640135e+16
2.598653e+16
2.623445e+16
2.597848e+16
2.551435e+16
2.3746e+16
1.932287e+16
2.180969e+16
2.242523e+16
2.227517e+16
2.289033e+16
2.316066e+16
2.355056e+16
2.436966e+16
2.534939e+16
2.59445e+16
2.692914e+16
2.601568e+16
2.653656e+16
2.665085e+16
2.618208e+16
2.644888e+16
2.585064e+16
2.423866e+16
1.934613e+16
2.274581e+16
2.243873e+16
2.328157e+16
2.35595e+16
2.397403e+16
2.437812e+16
2.499433e+16
2.544592e+16
2.609851e+16
2.62919e+16
2.684396e+16
2.685023e+16
2.608893e+16
2.62228e+16
2.490045e+16
2.068993e+16
2.180461e+16
2.360255e+16
2.388232e+16
2.415049e+16
2.461105e+16
2.525969e+16
2.582028e+16
2.626027e+16
2.648328e+16
2.671758e+16
2.671576e+16
2.583913e+16
2.586801e+16
2.151482e+16
2.339475e+16
2.367194e+16
2.408455e+16
2.463566e+16
2.516569e+16
2.56561e+16
2.602993e+16
2.638346e+16
2.631389e+16
2.774851e+16
2.687553e+16
2.728477e+16
2.788531e+16
2.842346e+16
2.880482e+16
2.921473e+16
3.024131e+16
2.741996e+16
2.645578e+16
2.648428e+16
2.636093e+16
2.647779e+16
2.687458e+16
2.744896e+16
2.798282e+16
2.839921e+16
2.884346e+16
2.920508e+16
2.885626e+16
2.860978e+16
2.778155e+16
2.729731e+16
2.62065e+16
2.613444e+16
2.62787e+16
2.601681e+16
2.616321e+16
2.653411e+16
2.710462e+16
2.762168e+16
2.801925e+16
2.845108e+16
2.883124e+16
2.872795e+16
2.810801e+16
2.707929e+16
2.387112e+16
2.785968e+16
2.697396e+16
2.691771e+16
2.601325e+16
2.56799e+16
2.605637e+16
2.603547e+16
2.617807e+16
2.645878e+16
2.698825e+16
2.748532e+16
2.79114e+16
2.842174e+16
2.887293e+16
2.857796e+16
2.705852e+16
2.64393e+16
2.393075e+16
2.10381e+16
1.939902e+16
2.767624e+16
2.753208e+16
2.698687e+16
2.653619e+16
2.60228e+16
2.595205e+16
2.594912e+16
2.570799e+16
2.580314e+16
2.602787e+16
2.653129e+16
2.699888e+16
2.740222e+16
2.789822e+16
2.843231e+16
2.860179e+16
2.767002e+16
2.669721e+16
2.297712e+16
2.111443e+16
2.046775e+16
1.626404e+16
2.834126e+16
2.808804e+16
2.74804e+16
2.667074e+16
2.677039e+16
2.599783e+16
2.568376e+16
2.55719e+16
2.544182e+16
2.553863e+16
2.570998e+16
2.616875e+16
2.661112e+16
2.699966e+16
2.748199e+16
2.802527e+16
2.813847e+16
2.75846e+16
2.705038e+16
2.489099e+16
2.020036e+16
1.969669e+16
1.716618e+16
1.405054e+16
2.786669e+16
2.80649e+16
2.716849e+16
2.70784e+16
2.686861e+16
2.571552e+16
2.554557e+16
2.541194e+16
2.527738e+16
2.525059e+16
2.521022e+16
2.560802e+16
2.600848e+16
2.641215e+16
2.696276e+16
2.756788e+16
2.7759e+16
2.745524e+16
2.696788e+16
2.555077e+16
2.354799e+16
2.084863e+16
1.8693e+16
1.657853e+16
2.771839e+16
2.853689e+16
2.780645e+16
2.767672e+16
2.726525e+16
2.655877e+16
2.570898e+16
2.546849e+16
2.519103e+16
2.467574e+16
2.470113e+16
2.468025e+16
2.503659e+16
2.544148e+16
2.580248e+16
2.631061e+16
2.700936e+16
2.728057e+16
2.72161e+16
2.689826e+16
2.588824e+16
2.450844e+16
2.411866e+16
2.302555e+16
2.176757e+16
1.966134e+16
2.846168e+16
2.86347e+16
2.840316e+16
2.857238e+16
2.789093e+16
2.677993e+16
2.643858e+16
2.558717e+16
2.499663e+16
2.475732e+16
2.428837e+16
2.41404e+16
2.40127e+16
2.45286e+16
2.492317e+16
2.495111e+16
2.537984e+16
2.597347e+16
2.6406e+16
2.659575e+16
2.645521e+16
2.592847e+16
2.506182e+16
2.41983e+16
2.40735e+16
2.368439e+16
2.314958e+16
2.296472e+16
2.845659e+16
2.87508e+16
2.823078e+16
2.873134e+16
2.747466e+16
2.661336e+16
2.628242e+16
2.548411e+16
2.504134e+16
2.503066e+16
2.493087e+16
2.502953e+16
2.520826e+16
2.558671e+16
2.517451e+16
2.518808e+16
2.58349e+16
2.554136e+16
2.536335e+16
2.501245e+16
2.4937e+16
2.485289e+16
2.466958e+16
2.410705e+16
2.393742e+16
2.356831e+16
2.321066e+16
2.332566e+16
2.834628e+16
2.846867e+16
2.860311e+16
2.881561e+16
2.718217e+16
2.663207e+16
2.626196e+16
2.596411e+16
2.613549e+16
2.652584e+16
2.666455e+16
2.664195e+16
2.63208e+16
2.607113e+16
2.57817e+16
2.592423e+16
2.544458e+16
2.55993e+16
2.660694e+16
2.614409e+16
2.574051e+16
2.519584e+16
2.460272e+16
2.387073e+16
2.348616e+16
2.305046e+16
2.282544e+16
2.310922e+16
2.815531e+16
2.895593e+16
2.856539e+16
2.867852e+16
2.838096e+16
2.708544e+16
2.654729e+16
2.595499e+16
2.58077e+16
2.533734e+16
2.462248e+16
2.343298e+16
2.258523e+16
2.287132e+16
2.32552e+16
2.351778e+16
2.375312e+16
2.371042e+16
2.353945e+16
2.294667e+16
2.243986e+16
2.291404e+16
2.279198e+16
2.307331e+16
2.303386e+16
2.289328e+16
2.305236e+16
2.295e+16
2.318356e+16
2.319806e+16
2.793111e+16
2.856868e+16
2.837617e+16
2.855318e+16
2.813004e+16
2.706067e+16
2.637898e+16
2.568817e+16
2.515384e+16
2.335876e+16
2.102093e+16
1.907589e+16
2.053276e+16
2.241527e+16
2.312673e+16
2.333196e+16
2.319989e+16
2.287263e+16
2.255515e+16
2.250693e+16
2.24341e+16
2.255166e+16
2.267929e+16
2.32126e+16
2.321767e+16
2.310537e+16
2.326643e+16
2.32453e+16
2.311813e+16
2.374328e+16
2.770136e+16
2.824671e+16
2.810829e+16
2.83076e+16
2.791876e+16
2.710263e+16
2.637286e+16
2.580599e+16
2.51386e+16
2.315284e+16
1.989389e+16
1.75184e+16
2.007781e+16
2.225941e+16
2.336016e+16
2.381243e+16
2.389584e+16
2.378174e+16
2.359788e+16
2.342704e+16
2.328586e+16
2.328479e+16
2.329005e+16
2.362809e+16
2.367168e+16
2.348311e+16
2.362315e+16
2.364524e+16
2.355385e+16
2.422179e+16
2.728317e+16
2.781184e+16
2.776283e+16
2.798024e+16
2.767887e+16
2.711313e+16
2.6528e+16
2.601147e+16
2.547661e+16
2.418229e+16
2.236413e+16
2.234379e+16
2.311282e+16
2.381e+16
2.421e+16
2.432094e+16
2.421248e+16
2.401577e+16
2.381686e+16
2.369248e+16
2.36387e+16
2.363357e+16
2.375159e+16
2.399662e+16
2.40839e+16
2.388348e+16
2.401797e+16
2.39671e+16
2.387556e+16
2.451178e+16
2.668934e+16
2.723553e+16
2.728714e+16
2.755434e+16
2.736729e+16
2.701861e+16
2.66539e+16
2.626385e+16
2.588475e+16
2.523808e+16
2.454686e+16
2.459881e+16
2.485758e+16
2.500382e+16
2.495346e+16
2.474827e+16
2.446093e+16
2.419913e+16
2.402235e+16
2.396696e+16
2.399586e+16
2.405382e+16
2.420182e+16
2.443331e+16
2.449191e+16
2.424152e+16
2.437755e+16
2.420777e+16
2.411134e+16
2.461577e+16
2.603544e+16
2.652395e+16
2.66331e+16
2.697296e+16
2.691483e+16
2.675088e+16
2.658917e+16
2.640501e+16
2.618851e+16
2.590869e+16
2.572462e+16
2.571711e+16
2.565663e+16
2.544283e+16
2.510595e+16
2.472692e+16
2.439604e+16
2.419262e+16
2.414769e+16
2.424193e+16
2.438742e+16
2.451217e+16
2.47408e+16
2.493378e+16
2.489908e+16
2.454198e+16
2.468056e+16
2.435666e+16
2.422118e+16
2.463505e+16
2.55409e+16
2.587443e+16
2.596228e+16
2.633277e+16
2.634416e+16
2.63049e+16
2.625537e+16
2.623563e+16
2.615974e+16
2.604076e+16
2.597724e+16
2.581999e+16
2.551885e+16
2.51036e+16
2.466601e+16
2.431359e+16
2.412617e+16
2.413125e+16
2.431319e+16
2.45956e+16
2.482727e+16
2.498614e+16
2.522917e+16
2.5292e+16
2.518403e+16
2.47294e+16
2.490406e+16
2.438887e+16
2.42478e+16
2.46101e+16
2.474987e+16
2.500046e+16
2.512407e+16
2.548684e+16
2.554984e+16
2.562825e+16
2.566489e+16
2.571487e+16
2.571823e+16
2.567902e+16
2.545097e+16
2.508039e+16
2.464591e+16
2.424275e+16
2.39606e+16
2.385925e+16
2.396695e+16
2.425284e+16
2.466379e+16
2.506791e+16
2.52698e+16
2.545522e+16
2.565541e+16
2.565829e+16
2.533093e+16
2.484588e+16
2.505346e+16
2.426619e+16
2.434961e+16
2.451925e+16
2.418268e+16
2.441376e+16
2.490534e+16
2.496263e+16
2.482993e+16
2.476843e+16
2.470536e+16
2.469031e+16
2.444852e+16
2.406087e+16
2.371046e+16
2.34823e+16
2.340724e+16
2.349798e+16
2.375277e+16
2.416346e+16
2.465884e+16
2.517969e+16
2.55363e+16
2.558424e+16
2.575329e+16
2.578592e+16
2.580564e+16
2.528129e+16
2.522273e+16
2.516121e+16
2.412364e+16
2.420112e+16
2.41237e+16
2.408207e+16
2.346728e+16
2.398206e+16
2.386514e+16
2.382549e+16
2.372512e+16
2.345475e+16
2.3137e+16
2.290136e+16
2.288295e+16
2.304189e+16
2.332634e+16
2.369763e+16
2.416179e+16
2.468571e+16
2.520262e+16
2.566474e+16
2.583482e+16
2.580421e+16
2.589581e+16
2.591472e+16
2.583478e+16
2.520584e+16
2.5416e+16
2.452963e+16
2.420977e+16
2.447289e+16
2.314999e+16
2.368513e+16
2.333542e+16
2.347496e+16
2.360501e+16
2.325745e+16
2.30276e+16
2.285579e+16
2.280115e+16
2.295187e+16
2.322867e+16
2.352313e+16
2.385366e+16
2.424434e+16
2.472839e+16
2.518952e+16
2.563523e+16
2.600354e+16
2.603693e+16
2.599701e+16
2.582401e+16
2.590539e+16
2.583103e+16
2.559404e+16
2.558214e+16
2.450667e+16
2.450469e+16
2.411213e+16
2.144789e+16
2.301759e+16
2.259589e+16
2.296062e+16
2.311353e+16
2.304748e+16
2.333277e+16
2.361196e+16
2.387336e+16
2.402346e+16
2.424411e+16
2.44283e+16
2.475321e+16
2.519978e+16
2.557526e+16
2.60476e+16
2.634197e+16
2.633473e+16
2.626414e+16
2.585365e+16
2.595409e+16
2.605951e+16
2.53992e+16
2.454115e+16
2.496824e+16
2.39436e+16
2.18046e+16
2.266955e+16
2.258824e+16
2.3098e+16
2.378404e+16
2.405719e+16
2.420695e+16
2.443508e+16
2.461657e+16
2.478534e+16
2.484119e+16
2.526191e+16
2.572086e+16
2.607109e+16
2.655425e+16
2.678613e+16
2.656811e+16
2.636565e+16
2.587407e+16
2.62211e+16
2.588892e+16
2.461092e+16
2.495057e+16
2.501773e+16
2.126418e+16
2.282428e+16
2.322262e+16
2.272752e+16
2.377497e+16
2.449325e+16
2.438302e+16
2.459881e+16
2.478893e+16
2.501131e+16
2.528836e+16
2.581976e+16
2.629541e+16
2.663015e+16
2.682737e+16
2.689117e+16
2.668344e+16
2.644059e+16
2.612097e+16
2.620902e+16
2.544487e+16
2.505981e+16
2.524125e+16
2.48961e+16
2.085802e+16
2.318186e+16
2.312331e+16
2.327406e+16
2.419512e+16
2.449641e+16
2.481079e+16
2.487704e+16
2.508287e+16
2.53981e+16
2.597607e+16
2.64391e+16
2.67317e+16
2.689162e+16
2.698427e+16
2.698026e+16
2.665157e+16
2.623195e+16
2.605669e+16
2.583488e+16
2.532369e+16
2.541346e+16
2.160439e+16
2.247806e+16
2.349689e+16
2.370179e+16
2.344425e+16
2.450966e+16
2.497259e+16
2.522643e+16
2.559216e+16
2.61556e+16
2.660037e+16
2.689727e+16
2.706835e+16
2.717146e+16
2.700597e+16
2.641948e+16
2.627994e+16
2.651448e+16
2.625572e+16
2.625724e+16
2.239362e+16
2.388865e+16
2.391416e+16
2.420093e+16
2.431002e+16
2.458867e+16
2.497003e+16
2.551596e+16
2.601052e+16
2.637733e+16
2.663156e+16
2.692932e+16
2.711967e+16
2.684489e+16
2.655204e+16
2.785589e+16
2.342866e+16
2.397209e+16
2.414417e+16
2.460759e+16
2.489069e+16
2.52528e+16
2.582878e+16
2.631067e+16
2.662476e+16
2.680687e+16
2.706767e+16
2.74088e+16
2.731343e+16
2.85554e+16
2.503534e+16
2.49467e+16
2.523793e+16
2.581528e+16
2.63144e+16
2.671544e+16
2.702421e+16
2.876251e+16
2.92587e+16
2.748438e+16
2.807347e+16
2.867663e+16
2.920495e+16
3.156091e+16
2.867101e+16
2.727588e+16
2.699238e+16
2.678331e+16
2.674068e+16
2.67087e+16
2.730154e+16
2.786169e+16
2.823104e+16
2.877295e+16
2.988509e+16
3.032386e+16
3.075095e+16
3.147946e+16
2.921578e+16
2.746102e+16
2.648093e+16
2.640803e+16
2.634639e+16
2.595055e+16
2.621516e+16
2.61931e+16
2.674625e+16
2.728635e+16
2.772991e+16
2.84342e+16
2.910584e+16
2.934098e+16
2.951121e+16
2.917879e+16
2.898268e+16
2.909746e+16
2.927608e+16
2.768092e+16
2.694275e+16
2.590009e+16
2.585346e+16
2.599424e+16
2.568597e+16
2.595467e+16
2.601334e+16
2.656076e+16
2.707435e+16
2.752571e+16
2.813053e+16
2.877073e+16
2.897342e+16
2.878829e+16
2.821376e+16
2.717851e+16
2.620203e+16
2.585317e+16
2.910562e+16
2.791575e+16
2.708601e+16
2.656852e+16
2.574606e+16
2.554482e+16
2.571132e+16
2.542145e+16
2.573789e+16
2.585384e+16
2.641429e+16
2.688278e+16
2.728017e+16
2.776319e+16
2.816131e+16
2.819632e+16
2.781074e+16
2.716849e+16
2.559925e+16
2.376742e+16
2.239129e+16
2.114516e+16
2.915962e+16
2.819592e+16
2.742673e+16
2.690426e+16
2.637379e+16
2.553953e+16
2.530105e+16
2.542996e+16
2.517825e+16
2.552078e+16
2.57174e+16
2.632171e+16
2.674051e+16
2.704199e+16
2.735597e+16
2.750638e+16
2.735314e+16
2.682752e+16
2.58172e+16
2.459299e+16
2.301262e+16
2.141297e+16
2.022344e+16
1.945958e+16
2.961921e+16
2.869268e+16
2.814893e+16
2.73871e+16
2.662084e+16
2.605029e+16
2.529427e+16
2.504921e+16
2.515457e+16
2.497884e+16
2.531694e+16
2.557821e+16
2.621314e+16
2.661699e+16
2.684679e+16
2.703772e+16
2.702122e+16
2.660347e+16
2.593257e+16
2.477831e+16
2.363523e+16
2.245268e+16
2.168658e+16
2.081203e+16
2.015544e+16
1.992423e+16
2.963372e+16
2.894725e+16
2.879516e+16
2.819456e+16
2.717483e+16
2.6393e+16
2.570032e+16
2.501332e+16
2.477014e+16
2.482743e+16
2.472642e+16
2.504135e+16
2.535296e+16
2.599793e+16
2.64194e+16
2.663045e+16
2.678793e+16
2.676724e+16
2.621952e+16
2.553004e+16
2.407777e+16
2.3154e+16
2.206492e+16
2.119651e+16
2.056675e+16
1.953148e+16
2.055801e+16
2.061168e+16
3.016635e+16
2.969154e+16
2.896635e+16
2.873598e+16
2.797504e+16
2.69988e+16
2.60085e+16
2.528207e+16
2.463861e+16
2.444033e+16
2.447834e+16
2.445691e+16
2.473355e+16
2.506226e+16
2.570299e+16
2.616616e+16
2.640886e+16
2.653037e+16
2.659317e+16
2.61999e+16
2.56633e+16
2.447493e+16
2.330147e+16
2.253801e+16
2.142509e+16
1.919176e+16
1.671865e+16
2.070419e+16
2.098986e+16
2.024209e+16
2.961932e+16
2.934666e+16
2.908769e+16
2.883932e+16
2.776155e+16
2.664876e+16
2.555105e+16
2.4853e+16
2.440122e+16
2.421164e+16
2.422285e+16
2.421805e+16
2.450044e+16
2.480657e+16
2.538508e+16
2.588155e+16
2.616928e+16
2.635082e+16
2.649228e+16
2.625397e+16
2.592474e+16
2.523783e+16
2.434553e+16
2.34067e+16
2.310297e+16
2.257318e+16
2.26169e+16
2.159707e+16
2.258508e+16
2.072217e+16
2.997981e+16
2.932503e+16
2.943951e+16
2.917891e+16
2.850826e+16
2.738782e+16
2.629276e+16
2.526845e+16
2.472703e+16
2.434144e+16
2.405154e+16
2.405709e+16
2.395982e+16
2.404523e+16
2.418954e+16
2.476009e+16
2.520888e+16
2.53321e+16
2.560828e+16
2.587502e+16
2.598071e+16
2.594533e+16
2.561623e+16
2.51407e+16
2.461077e+16
2.396185e+16
2.37416e+16
2.375303e+16
2.352532e+16
2.382131e+16
2.276361e+16
2.355938e+16
2.971502e+16
2.938311e+16
2.943502e+16
2.890351e+16
2.829754e+16
2.710776e+16
2.615334e+16
2.532516e+16
2.479572e+16
2.449965e+16
2.429973e+16
2.433724e+16
2.437036e+16
2.455882e+16
2.483677e+16
2.530618e+16
2.517755e+16
2.526808e+16
2.567872e+16
2.541331e+16
2.520128e+16
2.488253e+16
2.467729e+16
2.450249e+16
2.437555e+16
2.413504e+16
2.394477e+16
2.383773e+16
2.352159e+16
2.342133e+16
2.32511e+16
2.37338e+16
2.99433e+16
2.955374e+16
2.961223e+16
2.884181e+16
2.805404e+16
2.706614e+16
2.628984e+16
2.552143e+16
2.507556e+16
2.514904e+16
2.540708e+16
2.58422e+16
2.6166e+16
2.635714e+16
2.628568e+16
2.599102e+16
2.569427e+16
2.574299e+16
2.531444e+16
2.550671e+16
2.624877e+16
2.598824e+16
2.564426e+16
2.512017e+16
2.458422e+16
2.404244e+16
2.366034e+16
2.347869e+16
2.314828e+16
2.333911e+16
2.283351e+16
2.331143e+16
2.892604e+16
2.925802e+16
2.925828e+16
2.861847e+16
2.790906e+16
2.705668e+16
2.636711e+16
2.572811e+16
2.515e+16
2.528279e+16
2.511266e+16
2.466836e+16
2.378976e+16
2.300863e+16
2.29219e+16
2.332745e+16
2.359609e+16
2.381534e+16
2.377369e+16
2.356076e+16
2.294397e+16
2.260344e+16
2.287417e+16
2.280975e+16
2.303275e+16
2.316186e+16
2.321758e+16
2.333629e+16
2.314364e+16
2.320052e+16
2.249315e+16
2.299768e+16
3.01196e+16
2.883271e+16
2.915576e+16
2.883705e+16
2.839491e+16
2.780974e+16
2.709719e+16
2.642595e+16
2.57797e+16
2.515599e+16
2.488576e+16
2.363948e+16
2.188999e+16
2.021256e+16
2.073954e+16
2.252977e+16
2.318976e+16
2.340346e+16
2.330561e+16
2.301758e+16
2.274533e+16
2.272196e+16
2.266993e+16
2.275387e+16
2.285898e+16
2.322522e+16
2.339885e+16
2.347975e+16
2.357512e+16
2.351753e+16
2.321303e+16
2.310849e+16
2.318781e+16
2.235531e+16
2.898079e+16
2.82799e+16
2.858637e+16
2.831931e+16
2.804565e+16
2.765869e+16
2.713687e+16
2.655623e+16
2.588798e+16
2.53143e+16
2.481354e+16
2.33273e+16
2.058504e+16
1.754689e+16
1.987105e+16
2.232144e+16
2.346196e+16
2.394078e+16
2.404961e+16
2.395616e+16
2.379807e+16
2.365026e+16
2.35379e+16
2.352323e+16
2.35377e+16
2.371918e+16
2.382309e+16
2.382864e+16
2.386243e+16
2.376716e+16
2.325659e+16
2.341997e+16
2.274627e+16
2.272303e+16
2.83534e+16
2.773477e+16
2.794241e+16
2.769302e+16
2.754627e+16
2.738052e+16
2.709994e+16
2.671114e+16
2.613357e+16
2.559671e+16
2.507945e+16
2.400162e+16
2.221071e+16
2.162276e+16
2.259258e+16
2.355873e+16
2.413056e+16
2.433371e+16
2.427935e+16
2.411177e+16
2.394686e+16
2.385695e+16
2.384069e+16
2.387164e+16
2.396063e+16
2.409412e+16
2.416014e+16
2.410596e+16
2.409687e+16
2.398429e+16
2.345502e+16
2.372828e+16
2.307014e+16
2.33212e+16
2.791416e+16
2.720917e+16
2.731476e+16
2.705088e+16
2.694258e+16
2.694083e+16
2.690329e+16
2.676592e+16
2.63885e+16
2.594507e+16
2.550453e+16
2.484679e+16
2.405668e+16
2.411524e+16
2.451377e+16
2.479867e+16
2.485024e+16
2.469891e+16
2.443902e+16
2.419058e+16
2.404044e+16
2.402009e+16
2.409099e+16
2.419318e+16
2.431328e+16
2.442347e+16
2.442634e+16
2.428893e+16
2.425303e+16
2.412344e+16
2.366655e+16
2.397181e+16
2.343013e+16
2.378278e+16
2.762561e+16
2.660702e+16
2.664812e+16
2.638707e+16
2.625591e+16
2.632382e+16
2.647227e+16
2.658502e+16
2.64698e+16
2.624287e+16
2.595018e+16
2.557375e+16
2.52686e+16
2.529546e+16
2.536149e+16
2.526592e+16
2.499635e+16
2.463448e+16
2.429765e+16
2.408873e+16
2.405735e+16
2.417736e+16
2.435725e+16
2.451592e+16
2.464366e+16
2.468645e+16
2.458533e+16
2.434817e+16
2.43207e+16
2.416001e+16
2.380257e+16
2.407919e+16
2.366195e+16
2.371018e+16
2.811912e+16
2.591587e+16
2.597809e+16
2.569821e+16
2.555127e+16
2.560703e+16
2.583793e+16
2.612205e+16
2.626575e+16
2.625858e+16
2.614666e+16
2.595194e+16
2.584518e+16
2.573468e+16
2.549501e+16
2.510034e+16
2.463354e+16
2.422283e+16
2.398099e+16
2.39594e+16
2.414391e+16
2.443232e+16
2.46823e+16
2.483355e+16
2.488391e+16
2.478092e+16
2.454654e+16
2.42401e+16
2.429619e+16
2.410464e+16
2.392741e+16
2.406194e+16
2.383788e+16
2.299721e+16
2.591266e+16
2.552444e+16
2.53629e+16
2.500226e+16
2.482369e+16
2.496048e+16
2.529205e+16
2.560312e+16
2.577939e+16
2.583784e+16
2.585082e+16
2.568721e+16
2.53225e+16
2.483377e+16
2.432279e+16
2.391097e+16
2.370129e+16
2.374494e+16
2.401188e+16
2.442532e+16
2.480602e+16
2.501048e+16
2.506961e+16
2.494204e+16
2.470546e+16
2.428078e+16
2.399878e+16
2.422368e+16
2.401455e+16
2.430189e+16
2.396095e+16
2.343801e+16
2.592939e+16
2.490228e+16
2.473836e+16
2.426987e+16
2.390746e+16
2.389378e+16
2.409358e+16
2.439662e+16
2.46295e+16
2.482353e+16
2.474781e+16
2.440097e+16
2.398295e+16
2.360591e+16
2.335473e+16
2.329517e+16
2.346114e+16
2.384111e+16
2.434262e+16
2.48688e+16
2.516925e+16
2.52101e+16
2.51083e+16
2.473292e+16
2.440481e+16
2.380597e+16
2.378155e+16
2.415372e+16
2.398019e+16
2.447622e+16
2.380476e+16
2.408681e+16
2.621397e+16
2.473974e+16
2.447972e+16
2.404094e+16
2.367363e+16
2.333836e+16
2.322273e+16
2.332252e+16
2.344989e+16
2.339836e+16
2.321209e+16
2.300589e+16
2.287262e+16
2.285437e+16
2.297103e+16
2.324307e+16
2.367712e+16
2.42359e+16
2.479463e+16
2.527662e+16
2.53509e+16
2.523566e+16
2.495169e+16
2.441514e+16
2.402147e+16
2.333135e+16
2.367302e+16
2.400002e+16
2.41077e+16
2.457549e+16
2.395922e+16
2.439583e+16
2.639752e+16
2.466539e+16
2.434381e+16
2.41891e+16
2.372318e+16
2.339667e+16
2.316179e+16
2.304561e+16
2.294956e+16
2.275616e+16
2.261507e+16
2.259712e+16
2.266108e+16
2.283333e+16
2.310127e+16
2.349908e+16
2.402445e+16
2.461575e+16
2.511785e+16
2.549033e+16
2.532314e+16
2.512919e+16
2.468928e+16
2.409712e+16
2.373458e+16
2.316714e+16
2.367977e+16
2.411399e+16
2.457747e+16
2.455149e+16
2.431811e+16
2.455623e+16
2.48868e+16
2.404927e+16
2.391398e+16
2.416401e+16
2.39458e+16
2.357673e+16
2.337662e+16
2.310242e+16
2.280501e+16
2.264581e+16
2.26707e+16
2.271377e+16
2.296489e+16
2.323776e+16
2.368453e+16
2.423681e+16
2.482329e+16
2.525785e+16
2.551865e+16
2.520766e+16
2.502615e+16
2.456745e+16
2.400775e+16
2.381532e+16
2.342748e+16
2.38545e+16
2.442065e+16
2.449791e+16
2.411115e+16
2.476045e+16
2.449613e+16
2.430001e+16
2.341733e+16
2.420304e+16
2.4319e+16
2.410048e+16
2.390019e+16
2.335294e+16
2.27415e+16
2.2593e+16
2.269504e+16
2.273504e+16
2.306283e+16
2.327565e+16
2.377885e+16
2.432782e+16
2.490397e+16
2.530686e+16
2.550184e+16
2.521932e+16
2.507188e+16
2.467214e+16
2.430553e+16
2.426483e+16
2.378593e+16
2.41582e+16
2.440635e+16
2.433872e+16
2.488201e+16
2.51634e+16
2.36848e+16
2.364576e+16
2.434456e+16
2.469455e+16
2.41914e+16
2.419514e+16
2.345464e+16
2.272516e+16
2.262545e+16
2.275285e+16
2.276531e+16
2.319319e+16
2.337531e+16
2.39251e+16
2.446191e+16
2.501309e+16
2.542389e+16
2.560642e+16
2.545112e+16
2.53008e+16
2.498925e+16
2.471575e+16
2.465232e+16
2.414062e+16
2.450335e+16
2.455034e+16
2.492212e+16
2.470945e+16
2.291435e+16
2.383887e+16
2.445274e+16
2.424711e+16
2.422664e+16
2.368125e+16
2.303845e+16
2.304987e+16
2.307903e+16
2.299147e+16
2.348154e+16
2.365593e+16
2.425317e+16
2.477323e+16
2.527606e+16
2.56931e+16
2.588564e+16
2.580638e+16
2.558169e+16
2.535226e+16
2.506124e+16
2.503487e+16
2.448117e+16
2.466141e+16
2.488842e+16
2.524617e+16
2.296862e+16
2.385976e+16
2.413095e+16
2.433245e+16
2.395332e+16
2.349139e+16
2.351845e+16
2.354392e+16
2.343137e+16
2.393246e+16
2.410538e+16
2.467578e+16
2.517537e+16
2.563248e+16
2.600369e+16
2.617426e+16
2.614986e+16
2.58861e+16
2.566948e+16
2.542817e+16
2.544614e+16
2.478498e+16
2.525387e+16
2.583219e+16
2.335381e+16
2.395455e+16
2.366955e+16
2.385712e+16
2.378901e+16
2.377936e+16
2.400282e+16
2.39121e+16
2.43511e+16
2.451241e+16
2.505069e+16
2.552011e+16
2.593748e+16
2.628288e+16
2.646847e+16