/*--------------------------------*- C++ -*----------------------------------*\
  =========                 |
  \\      /  F ield         | OpenFOAM: The Open Source CFD Toolbox
   \\    /   O peration     | Website:  https://openfoam.org
    \\  /    A nd           | Version:  6
     \\/     M anipulation  |
\*---------------------------------------------------------------------------*/
FoamFile
{
    version     2.0;
    format      ascii;
    class       volScalarField;
    location    "50/region0/neutronTransport";
    object      precursor3.dnp;
}
// * * * * * * * * * * * * * * * * * * * * * * * * * * * * * * * * * * * * * //

dimensions      [0 -3 0 0 0 0 0];

internalField   nonuniform List<scalar> 
203709
(
2.510401e+14
2.761846e+14
2.761449e+14
2.510818e+14
2.623837e+14
2.937133e+14
3.635879e+14
3.597559e+14
3.597036e+14
3.635431e+14
2.936445e+14
2.623588e+14
2.563729e+14
2.947735e+14
3.683443e+14
3.672889e+14
3.777266e+14
3.803243e+14
3.803019e+14
3.776813e+14
3.672092e+14
3.682791e+14
2.947094e+14
2.563219e+14
2.564109e+14
3.580701e+14
3.657024e+14
3.800414e+14
3.87488e+14
3.940371e+14
3.969312e+14
3.969327e+14
3.939917e+14
3.87413e+14
3.79977e+14
3.656366e+14
3.5802e+14
2.563707e+14
2.94807e+14
3.65715e+14
3.822284e+14
3.939439e+14
4.028134e+14
4.092204e+14
4.124041e+14
4.124058e+14
4.091747e+14
4.027506e+14
3.938835e+14
3.821534e+14
3.656366e+14
2.947356e+14
2.624546e+14
3.683959e+14
3.800834e+14
3.939603e+14
4.060287e+14
4.155508e+14
4.22153e+14
4.254225e+14
4.254166e+14
4.221282e+14
4.155161e+14
4.059599e+14
3.938754e+14
3.79999e+14
3.683151e+14
2.623769e+14
2.937695e+14
3.6734e+14
3.875408e+14
4.028496e+14
4.155909e+14
4.254862e+14
4.320645e+14
4.351648e+14
4.351532e+14
4.320431e+14
4.254283e+14
4.15511e+14
4.027865e+14
3.874815e+14
3.672712e+14
2.937137e+14
2.51228e+14
3.637318e+14
3.77849e+14
3.941474e+14
4.093337e+14
4.222651e+14
4.321507e+14
4.382708e+14
4.412832e+14
4.412531e+14
4.381979e+14
4.320287e+14
4.221519e+14
4.092498e+14
3.940819e+14
3.777949e+14
3.637102e+14
2.51107e+14
2.763199e+14
3.598914e+14
3.804547e+14
3.97087e+14
4.125526e+14
4.255588e+14
4.353034e+14
4.413672e+14
4.446501e+14
4.445223e+14
4.412627e+14
4.351865e+14
4.254579e+14
4.12459e+14
3.970085e+14
3.804165e+14
3.598452e+14
2.762383e+14
2.763686e+14
3.599877e+14
3.805085e+14
3.971009e+14
4.12565e+14
4.255767e+14
4.353065e+14
4.413789e+14
4.447436e+14
4.44615e+14
4.412935e+14
4.352032e+14
4.25461e+14
4.124736e+14
3.97024e+14
3.804356e+14
3.599079e+14
2.763044e+14
2.512105e+14
3.638677e+14
3.779448e+14
3.942252e+14
4.09399e+14
4.223133e+14
4.321933e+14
4.383362e+14
4.413817e+14
4.413302e+14
4.38268e+14
4.321055e+14
4.222041e+14
4.092937e+14
3.941253e+14
3.778456e+14
3.637349e+14
2.511679e+14
2.938533e+14
3.674677e+14
3.876818e+14
4.029969e+14
4.157089e+14
4.25595e+14
4.321783e+14
4.353115e+14
4.352643e+14
4.321486e+14
4.25527e+14
4.156167e+14
4.028805e+14
3.875588e+14
3.673669e+14
2.937912e+14
2.625543e+14
3.685617e+14
3.802345e+14
3.941181e+14
4.061702e+14
4.156988e+14
4.222846e+14
4.255998e+14
4.255745e+14
4.222929e+14
4.156733e+14
4.061292e+14
3.940527e+14
3.801568e+14
3.68475e+14
2.62474e+14
2.949402e+14
3.658687e+14
3.823926e+14
3.941172e+14
4.029929e+14
4.094263e+14
4.128039e+14
4.12792e+14
4.094178e+14
4.02984e+14
3.940989e+14
3.823684e+14
3.658574e+14
2.948998e+14
2.565556e+14
3.582902e+14
3.658988e+14
3.802641e+14
3.877084e+14
3.942919e+14
3.973633e+14
3.97361e+14
3.94285e+14
3.877011e+14
3.802381e+14
3.658638e+14
3.582582e+14
2.564654e+14
2.565893e+14
2.949926e+14
3.686324e+14
3.675335e+14
3.780454e+14
3.807523e+14
3.807776e+14
3.780377e+14
3.675426e+14
3.68596e+14
2.949151e+14
2.564991e+14
2.626258e+14
2.93946e+14
3.639861e+14
3.60284e+14
3.603304e+14
3.63981e+14
2.939308e+14
2.625703e+14
2.513536e+14
2.764967e+14
2.765156e+14
2.513416e+14
2.103251e+14
2.390617e+14
2.487968e+14
2.554767e+14
2.596505e+14
2.596439e+14
2.554575e+14
2.487584e+14
2.390096e+14
2.102874e+14
2.145542e+14
2.499892e+14
3.183939e+14
3.287858e+14
3.406454e+14
3.537048e+14
3.640364e+14
3.640271e+14
3.536925e+14
3.405611e+14
3.286082e+14
3.181447e+14
2.497609e+14
2.143543e+14
2.196329e+14
3.131922e+14
3.307841e+14
3.562121e+14
3.803387e+14
4.004143e+14
4.263365e+14
4.477131e+14
4.476912e+14
4.262845e+14
4.002373e+14
3.800782e+14
3.559609e+14
3.305184e+14
3.129694e+14
2.194982e+14
2.218297e+14
3.190919e+14
3.477608e+14
3.790596e+14
4.115005e+14
4.576804e+14
5.148654e+14
5.716937e+14
5.920704e+14
5.920218e+14
5.71509e+14
5.146312e+14
4.574521e+14
4.112885e+14
3.788327e+14
3.475303e+14
3.188255e+14
2.217041e+14
2.196683e+14
3.190825e+14
3.51301e+14
3.879643e+14
4.488796e+14
5.223094e+14
6.013048e+14
6.594045e+14
7.026459e+14
7.72856e+14
7.72782e+14
7.024864e+14
6.591581e+14
6.00988e+14
5.220408e+14
4.485997e+14
3.877467e+14
3.51058e+14
3.188335e+14
2.195347e+14
2.146608e+14
3.133614e+14
3.478216e+14
3.880023e+14
4.713688e+14
5.826604e+14
6.591027e+14
7.219889e+14
8.231494e+14
8.684426e+14
8.951521e+14
8.950814e+14
8.682396e+14
8.228524e+14
7.216719e+14
6.587656e+14
5.823112e+14
4.710754e+14
3.877381e+14
3.475907e+14
3.131357e+14
2.145267e+14
2.500687e+14
3.30879e+14
3.791299e+14
4.489231e+14
5.826731e+14
6.895022e+14
8.109789e+14
8.782467e+14
9.307971e+14
9.632432e+14
9.797522e+14
9.796957e+14
9.630703e+14
9.305594e+14
8.779651e+14
8.106625e+14
6.892109e+14
5.82434e+14
4.487113e+14
3.789813e+14
3.307484e+14
2.499466e+14
2.105633e+14
3.185839e+14
3.563089e+14
4.116069e+14
5.22374e+14
6.592337e+14
8.110428e+14
9.023422e+14
9.612658e+14
1.002025e+15
1.027911e+15
1.040679e+15
1.040645e+15
1.027799e+15
1.001869e+15
9.610775e+14
9.021271e+14
8.108358e+14
6.590728e+14
5.222709e+14
4.115149e+14
3.5618e+14
3.183544e+14
2.103596e+14
2.393416e+14
3.291072e+14
3.804997e+14
4.578844e+14
6.015616e+14
7.222214e+14
8.784066e+14
9.613502e+14
1.014834e+15
1.050928e+15
1.073746e+15
1.084862e+15
1.08484e+15
1.073676e+15
1.05082e+15
1.014682e+15
9.611587e+14
8.781919e+14
7.22017e+14
6.013819e+14
4.576722e+14
3.80335e+14
3.288336e+14
2.390936e+14
2.490976e+14
3.410502e+14
4.006649e+14
5.150745e+14
6.597758e+14
8.234765e+14
9.310745e+14
1.002249e+15
1.051094e+15
1.08462e+15
1.105857e+15
1.11621e+15
1.116165e+15
1.105737e+15
1.084439e+15
1.050902e+15
1.002068e+15
9.308968e+14
8.232702e+14
6.594921e+14
5.149661e+14
4.005343e+14
3.407602e+14
2.488506e+14
2.557838e+14
3.54171e+14
4.26791e+14
5.721758e+14
7.031479e+14
8.689165e+14
9.636662e+14
1.02832e+15
1.074168e+15
1.106156e+15
1.126416e+15
1.136275e+15
1.136157e+15
1.126123e+15
1.105765e+15
1.073804e+15
1.028083e+15
9.635204e+14
8.687867e+14
7.029754e+14
5.720412e+14
4.26576e+14
3.53909e+14
2.555886e+14
2.599395e+14
3.644702e+14
4.481859e+14
5.926815e+14
7.735179e+14
8.957704e+14
9.803266e+14
1.041228e+15
1.085413e+15
1.116709e+15
1.136567e+15
1.146284e+15
1.146095e+15
1.13619e+15
1.11625e+15
1.084999e+15
1.040939e+15
9.801642e+14
8.956792e+14
7.734188e+14
5.925673e+14
4.480482e+14
3.643016e+14
2.597977e+14
2.599027e+14
3.644109e+14
4.481358e+14
5.926785e+14
7.735979e+14
8.958775e+14
9.804308e+14
1.041318e+15
1.085485e+15
1.116767e+15
1.13664e+15
1.146409e+15
1.14623e+15
1.1363e+15
1.116345e+15
1.08508e+15
1.041014e+15
9.802439e+14
8.957769e+14
7.7352e+14
5.925837e+14
4.480318e+14
3.642894e+14
2.597917e+14
2.556963e+14
3.541038e+14
4.268539e+14
5.723426e+14
7.033175e+14
8.691917e+14
9.639732e+14
1.028608e+15
1.074397e+15
1.106369e+15
1.126665e+15
1.136586e+15
1.13647e+15
1.126416e+15
1.106041e+15
1.074063e+15
1.02834e+15
9.637991e+14
8.690993e+14
7.032775e+14
5.722521e+14
4.267615e+14
3.540244e+14
2.556135e+14
2.490398e+14
3.4106e+14
4.008623e+14
5.153666e+14
6.6005e+14
8.238829e+14
9.315506e+14
1.002744e+15
1.051563e+15
1.085058e+15
1.106308e+15
1.116703e+15
1.116644e+15
1.106203e+15
1.084902e+15
1.051387e+15
1.002592e+15
9.314533e+14
8.238349e+14
6.600372e+14
5.152439e+14
4.007343e+14
3.410103e+14
2.489791e+14
2.393316e+14
3.291847e+14
3.807466e+14
4.581231e+14
6.019725e+14
7.227076e+14
8.789873e+14
9.619506e+14
1.015419e+15
1.051509e+15
1.074345e+15
1.085512e+15
1.085515e+15
1.074406e+15
1.051586e+15
1.015489e+15
9.620068e+14
8.790209e+14
7.226738e+14
6.018945e+14
4.58087e+14
3.806358e+14
3.291411e+14
2.39276e+14
2.105763e+14
3.187164e+14
3.565636e+14
4.118567e+14
5.22799e+14
6.597295e+14
8.116336e+14
9.029678e+14
9.619273e+14
1.002743e+15
1.028719e+15
1.041556e+15
1.041604e+15
1.02888e+15
1.002985e+15
9.622008e+14
9.032258e+14
8.118171e+14
6.597526e+14
5.227553e+14
4.118492e+14
3.564734e+14
3.186647e+14
2.105343e+14
2.502507e+14
3.310945e+14
3.793571e+14
4.492463e+14
5.83165e+14
6.900706e+14
8.116852e+14
8.790767e+14
9.317495e+14
9.643429e+14
9.809176e+14
9.809739e+14
9.645057e+14
9.319974e+14
8.793645e+14
8.119799e+14
6.902912e+14
5.832361e+14
4.492576e+14
3.793954e+14
3.310308e+14
2.501176e+14
2.148243e+14
3.135234e+14
3.480538e+14
3.883061e+14
4.718009e+14
5.832776e+14
6.599193e+14
7.229732e+14
8.243123e+14
8.697997e+14
8.966072e+14
8.96664e+14
8.699054e+14
8.244487e+14
7.23079e+14
6.600484e+14
5.833896e+14
4.718395e+14
3.883067e+14
3.480826e+14
3.134895e+14
2.146549e+14
2.198707e+14
3.194393e+14
3.5168e+14
3.883504e+14
4.493559e+14
5.229901e+14
6.023141e+14
6.605656e+14
7.039558e+14
7.743372e+14
7.743897e+14
7.040066e+14
6.605708e+14
6.02264e+14
5.230121e+14
4.493785e+14
3.883444e+14
3.516531e+14
3.19416e+14
2.197805e+14
2.220736e+14
3.194428e+14
3.481545e+14
3.795528e+14
4.120814e+14
4.583111e+14
5.156968e+14
5.728748e+14
5.933247e+14
5.933338e+14
5.728121e+14
5.156507e+14
4.583267e+14
4.120252e+14
3.794859e+14
3.481069e+14
3.194125e+14
2.220274e+14
2.198228e+14
3.136322e+14
3.312353e+14
3.566974e+14
3.808839e+14
4.011173e+14
4.272042e+14
4.4862e+14
4.486073e+14
4.271526e+14
4.010104e+14
3.808451e+14
3.566948e+14
3.31206e+14
3.135767e+14
2.197882e+14
2.14854e+14
2.503131e+14
3.188953e+14
3.294079e+14
3.413479e+14
3.544425e+14
3.647938e+14
3.647877e+14
3.544091e+14
3.412702e+14
3.293208e+14
3.188959e+14
2.503185e+14
2.148265e+14
2.106498e+14
2.394465e+14
2.491912e+14
2.558787e+14
2.60082e+14
2.600747e+14
2.559077e+14
2.492164e+14
2.394507e+14
2.106238e+14
1.782174e+14
2.020682e+14
2.080471e+14
2.103442e+14
2.102889e+14
2.078809e+14
2.017729e+14
1.779605e+14
1.780384e+14
2.135336e+14
2.338346e+14
2.945393e+14
3.055546e+14
3.120006e+14
3.149301e+14
3.148674e+14
3.118009e+14
3.05224e+14
2.942831e+14
2.336513e+14
2.133658e+14
1.779745e+14
1.963671e+14
2.856269e+14
3.129639e+14
3.450974e+14
3.802476e+14
3.96571e+14
4.066032e+14
4.113038e+14
4.112392e+14
4.064054e+14
3.962415e+14
3.798404e+14
3.447439e+14
3.126325e+14
2.853198e+14
1.963089e+14
1.840275e+14
2.287287e+14
3.072505e+14
3.65239e+14
4.278184e+14
4.979448e+14
5.336245e+14
5.544138e+14
5.682484e+14
5.754063e+14
5.753153e+14
5.679759e+14
5.53965e+14
5.330266e+14
4.972833e+14
4.272609e+14
3.648335e+14
3.068699e+14
2.285372e+14
1.838646e+14
1.857842e+14
2.801057e+14
3.252269e+14
4.045822e+14
5.072242e+14
5.799626e+14
6.40791e+14
7.367925e+14
7.816245e+14
8.080148e+14
8.211189e+14
8.210056e+14
8.076877e+14
7.811092e+14
7.361504e+14
6.401863e+14
5.793242e+14
5.065563e+14
4.040149e+14
3.248958e+14
2.797588e+14
1.856146e+14
1.840528e+14
2.801878e+14
3.358756e+14
4.210425e+14
5.444128e+14
6.352631e+14
7.588633e+14
8.387975e+14
9.081412e+14
9.596309e+14
9.9453e+14
1.011894e+15
1.011759e+15
9.941554e+14
9.589983e+14
9.073091e+14
8.378725e+14
7.578744e+14
6.343497e+14
5.436013e+14
4.205116e+14
3.353951e+14
2.797909e+14
1.838527e+14
2.288784e+14
3.253841e+14
4.211427e+14
5.532235e+14
6.568165e+14
8.024605e+14
9.092497e+14
9.962797e+14
1.070615e+15
1.130689e+15
1.173502e+15
1.191041e+15
1.190878e+15
1.173015e+15
1.129934e+15
1.06969e+15
9.952626e+14
9.081616e+14
8.013813e+14
6.558528e+14
5.522999e+14
4.205119e+14
3.249412e+14
2.286008e+14
1.966421e+14
3.074147e+14
4.047258e+14
5.446788e+14
6.568965e+14
8.156624e+14
9.422354e+14
1.053355e+15
1.149251e+15
1.230258e+15
1.290708e+15
1.333668e+15
1.358399e+15
1.358223e+15
1.33316e+15
1.289923e+15
1.229284e+15
1.148159e+15
1.052198e+15
9.411103e+14
8.145837e+14
6.559904e+14
5.438439e+14
4.041662e+14
3.070099e+14
1.963626e+14
1.781884e+14
2.85869e+14
3.6551e+14
5.075378e+14
6.357367e+14
8.028305e+14
9.424103e+14
1.073854e+15
1.193477e+15
1.291004e+15
1.371394e+15
1.438428e+15
1.485554e+15
1.510991e+15
1.51083e+15
1.485085e+15
1.437709e+15
1.370501e+15
1.28998e+15
1.192398e+15
1.072786e+15
9.413516e+14
8.018237e+14
6.348679e+14
5.067491e+14
3.650829e+14
2.854936e+14
1.779426e+14
2.137864e+14
3.133054e+14
4.281605e+14
5.805962e+14
7.594926e+14
9.097661e+14
1.053618e+15
1.193564e+15
1.313086e+15
1.418668e+15
1.504076e+15
1.570439e+15
1.615017e+15
1.637745e+15
1.637613e+15
1.614641e+15
1.569885e+15
1.503393e+15
1.417895e+15
1.312286e+15
1.192775e+15
1.052822e+15
9.089694e+14
7.586791e+14
5.797864e+14
4.277222e+14
3.129808e+14
2.135262e+14
2.341036e+14
3.454378e+14
4.983294e+14
6.416705e+14
8.396058e+14
9.969057e+14
1.149603e+15
1.291222e+15
1.418782e+15
1.52834e+15
1.613466e+15
1.676268e+15
1.717614e+15
1.738224e+15
1.738144e+15
1.717384e+15
1.675925e+15
1.613048e+15
1.527881e+15
1.418319e+15
1.290767e+15
1.149101e+15
9.963025e+14
8.388828e+14
6.408995e+14
4.979425e+14
3.451572e+14
2.338618e+14
1.784186e+14
2.94939e+14
3.80587e+14
5.341814e+14
7.378441e+14
9.091521e+14
1.071398e+15
1.230836e+15
1.37182e+15
1.504365e+15
1.61362e+15
1.696683e+15
1.756598e+15
1.795552e+15
1.814769e+15
1.814721e+15
1.795412e+15
1.75639e+15
1.69642e+15
1.613311e+15
1.504018e+15
1.371435e+15
1.230392e+15
1.07082e+15
9.084205e+14
7.370397e+14
5.337594e+14
3.802933e+14
2.945447e+14
1.781896e+14
2.021994e+14
3.058645e+14
3.970348e+14
5.551764e+14
7.828478e+14
9.608707e+14
1.131666e+15
1.291504e+15
1.439069e+15
1.570955e+15
1.676663e+15
1.756867e+15
1.814524e+15
1.851836e+15
1.870174e+15
1.870088e+15
1.851604e+15
1.814209e+15
1.756568e+15
1.676399e+15
1.570715e+15
1.438815e+15
1.291184e+15
1.13125e+15
9.602191e+14
7.821108e+14
5.547079e+14
3.966841e+14
3.055655e+14
2.019986e+14
2.082648e+14
3.123822e+14
4.071658e+14
5.691887e+14
8.094313e+14
9.960535e+14
1.174835e+15
1.334771e+15
1.486469e+15
1.615794e+15
1.718318e+15
1.796249e+15
1.852326e+15
1.888566e+15
1.906302e+15
1.90611e+15
1.888067e+15
1.851675e+15
1.795662e+15
1.717967e+15
1.615627e+15
1.486361e+15
1.334603e+15
1.174513e+15
9.954826e+14
8.087984e+14
5.687292e+14
4.068343e+14
3.120985e+14
2.080356e+14
2.106605e+14
3.154419e+14
4.119861e+14
5.764947e+14
8.227007e+14
1.013625e+15
1.192695e+15
1.359853e+15
1.512238e+15
1.638819e+15
1.739188e+15
1.815706e+15
1.871011e+15
1.906792e+15
1.924282e+15
1.924031e+15
1.90617e+15
1.870236e+15
1.815017e+15
1.738749e+15
1.638627e+15
1.512165e+15
1.359749e+15
1.19244e+15
1.013181e+15
8.2218e+14
5.760784e+14
4.11665e+14
3.151446e+14
2.104309e+14
2.106868e+14
3.15471e+14
4.120076e+14
5.765237e+14
8.227206e+14
1.013677e+15
1.192821e+15
1.360039e+15
1.512452e+15
1.639032e+15
1.739372e+15
1.815852e+15
1.871142e+15
1.906935e+15
1.924459e+15
1.924229e+15
1.906368e+15
1.870426e+15
1.815195e+15
1.73892e+15
1.638804e+15
1.512358e+15
1.359942e+15
1.192602e+15
1.013327e+15
8.223053e+14
5.761554e+14
4.117182e+14
3.151965e+14
2.104784e+14
2.083613e+14
3.125021e+14
4.072556e+14
5.692854e+14
8.095005e+14
9.96266e+14
1.175272e+15
1.335314e+15
1.487076e+15
1.616415e+15
1.718893e+15
1.796722e+15
1.852772e+15
1.889057e+15
1.906854e+15
1.906687e+15
1.888637e+15
1.852227e+15
1.796206e+15
1.718529e+15
1.616231e+15
1.487007e+15
1.335246e+15
1.175094e+15
9.960111e+14
8.091828e+14
5.689227e+14
4.069824e+14
3.12248e+14
2.081701e+14
2.023791e+14
3.060584e+14
3.971919e+14
5.553706e+14
7.829829e+14
9.6123e+14
1.132345e+15
1.29234e+15
1.439983e+15
1.571918e+15
1.677637e+15
1.757803e+15
1.815398e+15
1.852709e+15
1.871076e+15
1.871005e+15
1.852538e+15
1.815174e+15
1.757595e+15
1.677512e+15
1.571903e+15
1.440028e+15
1.292355e+15
1.132248e+15
9.61078e+14
7.827569e+14
5.549718e+14
3.969135e+14
3.058191e+14
2.022001e+14
1.786204e+14
2.951016e+14
3.80868e+14
5.345337e+14
7.380385e+14
9.096063e+14
1.072125e+15
1.231816e+15
1.372926e+15
1.505553e+15
1.614825e+15
1.697865e+15
1.757762e+15
1.796732e+15
1.816007e+15
1.81605e+15
1.796871e+15
1.757973e+15
1.698117e+15
1.615097e+15
1.505822e+15
1.373163e+15
1.231997e+15
1.072242e+15
9.095841e+14
7.379321e+14
5.341035e+14
3.805955e+14
2.949318e+14
1.784561e+14
2.342696e+14
3.457213e+14
4.987812e+14
6.41852e+14
8.401012e+14
9.975955e+14
1.150586e+15
1.292378e+15
1.420031e+15
1.529647e+15
1.614842e+15
1.677745e+15
1.719229e+15
1.739976e+15
1.740097e+15
1.719586e+15
1.678287e+15
1.615491e+15
1.530314e+15
1.420627e+15
1.292851e+15
1.15098e+15
9.978874e+14
8.401697e+14
6.418908e+14
4.983641e+14
3.454619e+14
2.341207e+14
2.138765e+14
3.135189e+14
4.28541e+14
5.809054e+14
7.600198e+14
9.103956e+14
1.054499e+15
1.194703e+15
1.314413e+15
1.420202e+15
1.505845e+15
1.572449e+15
1.617276e+15
1.640201e+15
1.640328e+15
1.617642e+15
1.573011e+15
1.506542e+15
1.420968e+15
1.315152e+15
1.195336e+15
1.055031e+15
9.107536e+14
7.601045e+14
5.809614e+14
4.282862e+14
3.133607e+14
2.138138e+14
1.782111e+14
2.861358e+14
3.658679e+14
5.079466e+14
6.362584e+14
8.034956e+14
9.433431e+14
1.075111e+15
1.195046e+15
1.292905e+15
1.373644e+15
1.440985e+15
1.488414e+15
1.514081e+15
1.514171e+15
1.48865e+15
1.441335e+15
1.374085e+15
1.293438e+15
1.195596e+15
1.075617e+15
9.43766e+14
8.037558e+14
6.362299e+14
5.079729e+14
3.656608e+14
2.85957e+14
1.782466e+14
1.966561e+14
3.076668e+14
4.051121e+14
5.451165e+14
6.576395e+14
8.166877e+14
9.436104e+14
1.055079e+15
1.15136e+15
1.232795e+15
1.293585e+15
1.336847e+15
1.3618e+15
1.361847e+15
1.336945e+15
1.29371e+15
1.232971e+15
1.151631e+15
1.055381e+15
9.439027e+14
8.169317e+14
6.577887e+14
5.451948e+14
4.05067e+14
3.075768e+14
1.966319e+14
2.290177e+14
3.256776e+14
4.215706e+14
5.538834e+14
6.577128e+14
8.038812e+14
9.110862e+14
9.984886e+14
1.073154e+15
1.133585e+15
1.176751e+15
1.194496e+15
1.194489e+15
1.176717e+15
1.133554e+15
1.073176e+15
9.985307e+14
9.111631e+14
8.039836e+14
6.578137e+14
5.539259e+14
4.215362e+14
3.255835e+14
2.289452e+14
1.842428e+14
2.804597e+14
3.362451e+14
4.215905e+14
5.453735e+14
6.366072e+14
7.605595e+14
8.408813e+14
9.105731e+14
9.623709e+14
9.975328e+14
1.015031e+15
1.014996e+15
9.974597e+14
9.622462e+14
9.104527e+14
8.408212e+14
7.605872e+14
6.366195e+14
5.45364e+14
4.215715e+14
3.361939e+14
2.803892e+14
1.84174e+14
1.859342e+14
2.804914e+14
3.257727e+14
4.051942e+14
5.081015e+14
5.811833e+14
6.424484e+14
7.387972e+14
7.838294e+14
8.103971e+14
8.235946e+14
8.235488e+14
8.103594e+14
7.83784e+14
7.387262e+14
6.423524e+14
5.81236e+14
5.081811e+14
4.052137e+14
3.257288e+14
2.804367e+14
1.859014e+14
1.842626e+14
2.291249e+14
3.077248e+14
3.659371e+14
4.286191e+14
4.989786e+14
5.347635e+14
5.556346e+14
5.696214e+14
5.771223e+14
5.770369e+14
5.697043e+14
5.557586e+14
5.348671e+14
4.990629e+14
4.286737e+14
3.659256e+14
3.077081e+14
2.290513e+14
1.842398e+14
1.967139e+14
2.861182e+14
3.135927e+14
3.457979e+14
3.809536e+14
3.972938e+14
4.074002e+14
4.122786e+14
4.121905e+14
4.074205e+14
3.973073e+14
3.809477e+14
3.457474e+14
3.13509e+14
2.861597e+14
1.966711e+14
1.782374e+14
2.139346e+14
2.342824e+14
2.951694e+14
3.06083e+14
3.125544e+14
3.1571e+14
3.156716e+14
3.125178e+14
3.060166e+14
2.951372e+14
2.342287e+14
2.138515e+14
1.782768e+14
1.785859e+14
2.023414e+14
2.083353e+14
2.107566e+14
2.107324e+14
2.082932e+14
2.022636e+14
1.784365e+14
1.581493e+14
1.782296e+14
1.827158e+14
1.826565e+14
1.780472e+14
1.580044e+14
1.520212e+14
1.890064e+14
2.114843e+14
2.370793e+14
2.944638e+14
3.069142e+14
3.116978e+14
3.115608e+14
3.065497e+14
2.940038e+14
2.368947e+14
2.113402e+14
1.888303e+14
1.519427e+14
1.532617e+14
1.984148e+14
2.755485e+14
3.223822e+14
3.635224e+14
4.225313e+14
4.551773e+14
4.687369e+14
4.753347e+14
4.751432e+14
4.682264e+14
4.545871e+14
4.220794e+14
3.630546e+14
3.218213e+14
2.751507e+14
1.982466e+14
1.532211e+14
1.71468e+14
2.662198e+14
3.33164e+14
4.276942e+14
4.827545e+14
5.373113e+14
5.862121e+14
6.675167e+14
6.9883e+14
7.113016e+14
7.110941e+14
6.982488e+14
6.666977e+14
5.853485e+14
5.36332e+14
4.818019e+14
4.266623e+14
3.326927e+14
2.65835e+14
1.714127e+14
1.837387e+14
2.957467e+14
3.845935e+14
4.918152e+14
5.768837e+14
6.939787e+14
7.699565e+14
8.283076e+14
8.771164e+14
9.070818e+14
9.208702e+14
9.206531e+14
9.064542e+14
8.761536e+14
8.271378e+14
7.687105e+14
6.927715e+14
5.758144e+14
4.907719e+14
3.840136e+14
2.953011e+14
1.835953e+14
1.905739e+14
3.19853e+14
4.429917e+14
5.378697e+14
6.31619e+14
7.849228e+14
8.949163e+14
9.817775e+14
1.043447e+15
1.090231e+15
1.120559e+15
1.13522e+15
1.134991e+15
1.119888e+15
1.089166e+15
1.042077e+15
9.802195e+14
8.933625e+14
7.83567e+14
6.305419e+14
5.368245e+14
4.421671e+14
3.193507e+14
1.90352e+14
1.838158e+14
3.199183e+14
4.627324e+14
5.728097e+14
7.282946e+14
8.569551e+14
9.857085e+14
1.093192e+15
1.18252e+15
1.25784e+15
1.313184e+15
1.348474e+15
1.365574e+15
1.365329e+15
1.34776e+15
1.312059e+15
1.256402e+15
1.180882e+15
1.09146e+15
9.840145e+14
8.553811e+14
7.269445e+14
5.717592e+14
4.617532e+14
3.194216e+14
1.835972e+14
1.716055e+14
2.958437e+14
4.432237e+14
5.728846e+14
7.473189e+14
9.002612e+14
1.042401e+15
1.16817e+15
1.285933e+15
1.385902e+15
1.468051e+15
1.528832e+15
1.5682e+15
1.587337e+15
1.58707e+15
1.567426e+15
1.527594e+15
1.466448e+15
1.384062e+15
1.28396e+15
1.166182e+15
1.040502e+15
8.985814e+14
7.459152e+14
5.718731e+14
4.424375e+14
2.954442e+14
1.713907e+14
1.534039e+14
2.663612e+14
3.84945e+14
5.381259e+14
7.28598e+14
9.004882e+14
1.062035e+15
1.205759e+15
1.345076e+15
1.471734e+15
1.578653e+15
1.665512e+15
1.731058e+15
1.773948e+15
1.794218e+15
1.793917e+15
1.773075e+15
1.729698e+15
1.663792e+15
1.576694e+15
1.469623e+15
1.342904e+15
1.203614e+15
1.059991e+15
8.987219e+14
7.271855e+14
5.371446e+14
3.843817e+14
2.659887e+14
1.531937e+14
1.986236e+14
3.335563e+14
4.920549e+14
6.322739e+14
8.57544e+14
1.042949e+15
1.206083e+15
1.364395e+15
1.512719e+15
1.644872e+15
1.757299e+15
1.848277e+15
1.917153e+15
1.963444e+15
1.986951e+15
1.986642e+15
1.962547e+15
1.915766e+15
1.84654e+15
1.755323e+15
1.642748e+15
1.510523e+15
1.362178e+15
1.203924e+15
1.040937e+15
8.55853e+14
6.310553e+14
4.912545e+14
3.330716e+14
1.983993e+14
1.522555e+14
2.757816e+14
4.279263e+14
5.774634e+14
7.858835e+14
9.86674e+14
1.169115e+15
1.345785e+15
1.513062e+15
1.666548e+15
1.802831e+15
1.91912e+15
2.014186e+15
2.088212e+15
2.138981e+15
2.165003e+15
2.164722e+15
2.138169e+15
2.086962e+15
2.012627e+15
1.917347e+15
1.80093e+15
1.664557e+15
1.510991e+15
1.343682e+15
1.167081e+15
9.848334e+14
7.844016e+14
5.762906e+14
4.273238e+14
2.754112e+14
1.521587e+14
1.891406e+14
3.226524e+14
4.831779e+14
6.950043e+14
8.961518e+14
1.094575e+15
1.287263e+15
1.472768e+15
1.645451e+15
1.803046e+15
1.942776e+15
2.064551e+15
2.164944e+15
2.242447e+15
2.295007e+15
2.321587e+15
2.321361e+15
2.294372e+15
2.241498e+15
2.163777e+15
2.063242e+15
1.941383e+15
1.801584e+15
1.643895e+15
1.471074e+15
1.285465e+15
1.092812e+15
8.946532e+14
6.936817e+14
4.823631e+14
3.221993e+14
1.889625e+14
2.117772e+14
3.640335e+14
5.381442e+14
7.713589e+14
9.833222e+14
1.184328e+15
1.387611e+15
1.579944e+15
1.758065e+15
1.91952e+15
2.064731e+15
2.191481e+15
2.29495e+15
2.373443e+15
2.426053e+15
2.452421e+15
2.452291e+15
2.42568e+15
2.372883e+15
2.294275e+15
2.190753e+15
2.063981e+15
1.91872e+15
1.757097e+15
1.578671e+15
1.386026e+15
1.182642e+15
9.818197e+14
7.699296e+14
5.370808e+14
3.633175e+14
2.113938e+14
2.375105e+14
4.235032e+14
5.87541e+14
8.300445e+14
1.045392e+15
1.260043e+15
1.470149e+15
1.667112e+15
1.849317e+15
2.014852e+15
2.165366e+15
2.295167e+15
2.399771e+15
2.478097e+15
2.530126e+15
2.556051e+15
2.555977e+15
2.529919e+15
2.477799e+15
2.399418e+15
2.294773e+15
2.164922e+15
2.014317e+15
1.848599e+15
1.666021e+15
1.468655e+15
1.258397e+15
1.043853e+15
8.285321e+14
5.862181e+14
4.223075e+14
2.369315e+14
1.584743e+14
2.949683e+14
4.563166e+14
6.691723e+14
8.791441e+14
1.092556e+15
1.31577e+15
1.53134e+15
1.733061e+15
1.918572e+15
2.089217e+15
2.243198e+15
2.373981e+15
2.478437e+15
2.556123e+15
2.607421e+15
2.632862e+15
2.63274e+15
2.607098e+15
2.555708e+15
2.478069e+15
2.373688e+15
2.242956e+15
2.088952e+15
1.918126e+15
1.732219e+15
1.530047e+15
1.314288e+15
1.091084e+15
8.77636e+14
6.676832e+14
4.550342e+14
2.942003e+14
1.580543e+14
1.784598e+14
3.075132e+14
4.699059e+14
7.006358e+14
9.093336e+14
1.123211e+15
1.351432e+15
1.571147e+15
1.776466e+15
1.965375e+15
2.140432e+15
2.296148e+15
2.427012e+15
2.531036e+15
2.608069e+15
2.658744e+15
2.683763e+15
2.683509e+15
2.658073e+15
2.6072e+15
2.530284e+15
2.426616e+15
2.296023e+15
2.140383e+15
1.965158e+15
1.775846e+15
1.570094e+15
1.350186e+15
1.121923e+15
9.080012e+14
6.992834e+14
4.687523e+14
3.067612e+14
1.781362e+14
1.830498e+14
3.12424e+14
4.765736e+14
7.132869e+14
9.233716e+14
1.13817e+15
1.368874e+15
1.5907e+15
1.797277e+15
1.989481e+15
2.167005e+15
2.323192e+15
2.453762e+15
2.557302e+15
2.633988e+15
2.684432e+15
2.70929e+15
2.708968e+15
2.683597e+15
2.632946e+15
2.55641e+15
2.453251e+15
2.323036e+15
2.166994e+15
1.989343e+15
1.796799e+15
1.589869e+15
1.367867e+15
1.137107e+15
9.222691e+14
7.121871e+14
4.756984e+14
3.118147e+14
1.827525e+14
1.830637e+14
3.124758e+14
4.766928e+14
7.133612e+14
9.234375e+14
1.138223e+15
1.36893e+15
1.590808e+15
1.797495e+15
1.989792e+15
2.167348e+15
2.323521e+15
2.454046e+15
2.557525e+15
2.63419e+15
2.68465e+15
2.709542e+15
2.709249e+15
2.683892e+15
2.633238e+15
2.556692e+15
2.45353e+15
2.323324e+15
2.1673e+15
1.989662e+15
1.797113e+15
1.590173e+15
1.368148e+15
1.137373e+15
9.225528e+14
7.124741e+14
4.759457e+14
3.119764e+14
1.8283e+14
1.785792e+14
3.076217e+14
4.700229e+14
7.007731e+14
9.09504e+14
1.123367e+15
1.351594e+15
1.571468e+15
1.777104e+15
1.966265e+15
2.141411e+15
2.29711e+15
2.427897e+15
2.53178e+15
2.608775e+15
2.659503e+15
2.684585e+15
2.684369e+15
2.658939e+15
2.60806e+15
2.531151e+15
2.427521e+15
2.296989e+15
2.141407e+15
1.9662e+15
1.776855e+15
1.57104e+15
1.351025e+15
1.122691e+15
9.088119e+14
7.000846e+14
4.694377e+14
3.072286e+14
1.783746e+14
1.586422e+14
2.949412e+14
4.56307e+14
6.693077e+14
8.793737e+14
1.09282e+15
1.316037e+15
1.53184e+15
1.734022e+15
1.919903e+15
2.090692e+15
2.244706e+15
2.37549e+15
2.479899e+15
2.557498e+15
2.608767e+15
2.634226e+15
2.63414e+15
2.608549e+15
2.557235e+15
2.479706e+15
2.375459e+15
2.244842e+15
2.090889e+15
1.920029e+15
1.733993e+15
1.531653e+15
1.315681e+15
1.092291e+15
8.7886e+14
6.688193e+14
4.559354e+14
2.947049e+14
1.584889e+14
2.375851e+14
4.233812e+14
5.877063e+14
8.303351e+14
1.045789e+15
1.260421e+15
1.470788e+15
1.668234e+15
1.850876e+15
2.016626e+15
2.167251e+15
2.297073e+15
2.401647e+15
2.479941e+15
2.531982e+15
2.557992e+15
2.558069e+15
2.532212e+15
2.480302e+15
2.402115e+15
2.297616e+15
2.167821e+15
2.017168e+15
1.851318e+15
1.668516e+15
1.470864e+15
1.260291e+15
1.045403e+15
8.299987e+14
5.873978e+14
4.232343e+14
2.374005e+14
2.118534e+14
3.641769e+14
5.383887e+14
7.716451e+14
9.838192e+14
1.184804e+15
1.388349e+15
1.581092e+15
1.75965e+15
1.921392e+15
2.06677e+15
2.193627e+15
2.29721e+15
2.375858e+15
2.428676e+15
2.455297e+15
2.455485e+15
2.429219e+15
2.37669e+15
2.298237e+15
2.194729e+15
2.067824e+15
1.922318e+15
1.76042e+15
1.581648e+15
1.388636e+15
1.18488e+15
9.835765e+14
7.71482e+14
5.381526e+14
3.639568e+14
2.116616e+14
1.893541e+14
3.229585e+14
4.835926e+14
6.95305e+14
8.966616e+14
1.095194e+15
1.288108e+15
1.473911e+15
1.647003e+15
1.804986e+15
1.945052e+15
2.067153e+15
2.167896e+15
2.245772e+15
2.298722e+15
2.325684e+15
2.325867e+15
2.299254e+15
2.246601e+15
2.168952e+15
2.068338e+15
1.946243e+15
1.80608e+15
1.647927e+15
1.474574e+15
1.28847e+15
1.09537e+15
8.965907e+14
6.952851e+14
4.833073e+14
3.226839e+14
1.891308e+14
1.524344e+14
2.760203e+14
4.28481e+14
5.777451e+14
7.862995e+14
9.873771e+14
1.170093e+15
1.347095e+15
1.514821e+15
1.668812e+15
1.805595e+15
1.922379e+15
2.01795e+15
2.09247e+15
2.143715e+15
2.170157e+15
2.170264e+15
2.144023e+15
2.092959e+15
2.018606e+15
1.923164e+15
1.806424e+15
1.669605e+15
1.515495e+15
1.347572e+15
1.170358e+15
9.875783e+14
7.863716e+14
5.77829e+14
4.280572e+14
2.758658e+14
1.522741e+14
1.987726e+14
3.33755e+14
4.925367e+14
6.325102e+14
8.58268e+14
1.043971e+15
1.207516e+15
1.366346e+15
1.515268e+15
1.648033e+15
1.761065e+15
1.852643e+15
1.922068e+15
1.968847e+15
1.992749e+15
1.992771e+15
1.96891e+15
1.922186e+15
1.852859e+15
1.761396e+15
1.648432e+15
1.51568e+15
1.366712e+15
1.207797e+15
1.044178e+15
8.584167e+14
6.326828e+14
4.924479e+14
3.336434e+14
1.98663e+14
1.534586e+14
2.666019e+14
3.852605e+14
5.387783e+14
7.294292e+14
9.015643e+14
1.06354e+15
1.20782e+15
1.347796e+15
1.475128e+15
1.582695e+15
1.670153e+15
1.736241e+15
1.77959e+15
1.800194e+15
1.800146e+15
1.779459e+15
1.736073e+15
1.670021e+15
1.582636e+15
1.475143e+15
1.347852e+15
1.207884e+15
1.063584e+15
9.015621e+14
7.293602e+14
5.386457e+14
3.851361e+14
2.665291e+14
1.534796e+14
1.71675e+14
2.962e+14
4.437909e+14
5.73538e+14
7.48285e+14
9.017287e+14
1.044464e+15
1.170874e+15
1.289255e+15
1.389868e+15
1.472597e+15
1.533858e+15
1.573607e+15
1.592994e+15
1.592911e+15
1.573389e+15
1.533544e+15
1.47226e+15
1.38958e+15
1.289044e+15
1.170675e+15
1.044293e+15
9.016262e+14
7.482185e+14
5.735079e+14
4.43555e+14
2.960763e+14
1.71688e+14
1.839314e+14
3.202301e+14
4.634655e+14
5.735542e+14
7.296666e+14
8.587776e+14
9.880906e+14
1.096121e+15
1.186052e+15
1.261879e+15
1.317621e+15
1.35323e+15
1.370546e+15
1.370451e+15
1.353024e+15
1.31733e+15
1.261538e+15
1.185715e+15
1.095848e+15
9.877944e+14
8.584955e+14
7.294967e+14
5.734653e+14
4.633389e+14
3.201546e+14
1.838959e+14
1.907067e+14
3.202524e+14
4.439532e+14
5.390329e+14
6.331115e+14
7.869524e+14
8.973681e+14
9.846666e+14
1.046759e+15
1.093878e+15
1.124496e+15
1.139425e+15
1.139312e+15
1.124328e+15
1.093652e+15
1.046497e+15
9.844267e+14
8.971138e+14
7.866284e+14
6.327357e+14
5.388716e+14
4.438506e+14
3.202027e+14
1.906816e+14
1.838944e+14
2.961727e+14
3.85513e+14
4.928501e+14
5.780737e+14
6.957836e+14
7.722423e+14
8.310214e+14
8.801231e+14
9.102958e+14
9.242185e+14
9.240969e+14
9.100851e+14
8.798364e+14
8.307133e+14