/*--------------------------------*- C++ -*----------------------------------*\
  =========                 |
  \\      /  F ield         | OpenFOAM: The Open Source CFD Toolbox
   \\    /   O peration     | Website:  https://openfoam.org
    \\  /    A nd           | Version:  6
     \\/     M anipulation  |
\*---------------------------------------------------------------------------*/
FoamFile
{
    version     2.0;
    format      ascii;
    class       volScalarField;
    location    "50/region0/neutronTransport";
    object      precursor2.dnp;
}
// * * * * * * * * * * * * * * * * * * * * * * * * * * * * * * * * * * * * * //

dimensions      [0 -3 0 0 0 0 0];

internalField   nonuniform List<scalar> 
203709
(
2.691444e+14
2.961134e+14
2.960807e+14
2.692093e+14
2.812689e+14
3.148726e+14
3.898037e+14
3.857052e+14
3.856622e+14
3.897907e+14
3.148482e+14
2.812959e+14
2.748014e+14
3.159886e+14
3.94877e+14
3.937554e+14
4.049555e+14
4.077504e+14
4.077382e+14
4.049388e+14
3.937237e+14
3.948799e+14
3.159965e+14
2.748452e+14
2.748019e+14
3.838203e+14
3.920149e+14
4.073978e+14
4.154002e+14
4.224343e+14
4.255494e+14
4.255645e+14
4.224235e+14
4.15385e+14
4.074267e+14
3.920677e+14
3.839246e+14
2.749119e+14
3.159346e+14
3.919712e+14
4.096924e+14
4.222713e+14
4.318032e+14
4.386905e+14
4.421201e+14
4.421382e+14
4.386933e+14
4.318269e+14
4.223419e+14
4.097902e+14
3.921064e+14
3.160681e+14
2.812229e+14
3.948002e+14
4.073407e+14
4.222361e+14
4.351965e+14
4.454278e+14
4.525311e+14
4.560598e+14
4.560727e+14
4.525667e+14
4.455023e+14
4.352875e+14
4.223632e+14
4.075143e+14
3.950089e+14
2.813577e+14
3.147697e+14
3.936327e+14
4.152909e+14
4.317126e+14
4.453897e+14
4.560238e+14
4.631147e+14
4.664761e+14
4.664914e+14
4.631767e+14
4.561017e+14
4.454864e+14
4.318592e+14
4.154603e+14
3.938001e+14
3.149244e+14
2.691582e+14
3.897517e+14
4.048714e+14
4.223375e+14
4.386162e+14
4.524785e+14
4.630977e+14
4.696962e+14
4.729675e+14
4.729677e+14
4.697082e+14
4.630971e+14
4.525099e+14
4.386868e+14
4.224435e+14
4.050064e+14
3.899361e+14
2.692116e+14
2.960381e+14
3.856171e+14
4.076495e+14
4.254669e+14
4.420385e+14
4.559814e+14
4.664496e+14
4.729897e+14
4.765533e+14
4.764531e+14
4.729813e+14
4.664767e+14
4.560489e+14
4.421153e+14
4.255598e+14
4.077884e+14
3.857566e+14
2.96138e+14
2.960697e+14
3.856953e+14
4.0769e+14
4.254726e+14
4.420317e+14
4.559648e+14
4.664084e+14
4.729644e+14
4.766277e+14
4.76536e+14
4.730027e+14
4.664855e+14
4.560448e+14
4.421231e+14
4.255654e+14
4.077935e+14
3.85805e+14
2.961893e+14
2.690933e+14
3.898285e+14
4.049107e+14
4.223506e+14
4.386015e+14
4.524386e+14
4.630401e+14
4.696578e+14
4.729738e+14
4.729725e+14
4.697295e+14
4.631445e+14
4.52538e+14
4.387011e+14
4.224456e+14
4.050045e+14
3.898984e+14
2.692266e+14
3.147692e+14
3.936536e+14
4.153023e+14
4.317075e+14
4.453356e+14
4.559482e+14
4.63032e+14
4.66426e+14
4.664153e+14
4.631147e+14
4.560485e+14
4.454463e+14
4.31806e+14
4.153907e+14
3.937568e+14
3.148932e+14
2.812154e+14
3.948039e+14
4.073002e+14
4.221774e+14
4.351017e+14
4.453291e+14
4.524078e+14
4.559845e+14
4.559839e+14
4.524962e+14
4.454321e+14
4.352313e+14
4.223106e+14
4.074345e+14
3.949325e+14
2.813113e+14
3.159013e+14
3.918996e+14
4.096056e+14
4.221744e+14
4.316946e+14
4.386009e+14
4.422358e+14
4.422424e+14
4.386502e+14
4.317828e+14
4.222902e+14
4.097467e+14
3.920772e+14
3.160396e+14
2.747695e+14
3.837737e+14
3.919193e+14
4.073083e+14
4.152878e+14
4.223487e+14
4.256517e+14
4.256666e+14
4.223924e+14
4.153628e+14
4.07393e+14
3.920179e+14
3.839e+14
2.748296e+14
2.747922e+14
3.15932e+14
3.948122e+14
3.936406e+14
4.049072e+14
4.078197e+14
4.078637e+14
4.049479e+14
3.937265e+14
3.94876e+14
3.159573e+14
2.74818e+14
2.812551e+14
3.148075e+14
3.898197e+14
3.858681e+14
3.859319e+14
3.898547e+14
3.148419e+14
2.812615e+14
2.691883e+14
2.961201e+14
2.961464e+14
2.691909e+14
2.255279e+14
2.563517e+14
2.667942e+14
2.739615e+14
2.784442e+14
2.784487e+14
2.739771e+14
2.668173e+14
2.563902e+14
2.255875e+14
2.300295e+14
2.680352e+14
3.414105e+14
3.52558e+14
3.652824e+14
3.792959e+14
3.903893e+14
3.903985e+14
3.793413e+14
3.652931e+14
3.525187e+14
3.413444e+14
2.679627e+14
2.299745e+14
2.354464e+14
3.357751e+14
3.546416e+14
3.819248e+14
4.078061e+14
4.293443e+14
4.571581e+14
4.801053e+14
4.801071e+14
4.571749e+14
4.292681e+14
4.076912e+14
3.818633e+14
3.546113e+14
3.358263e+14
2.354874e+14
2.377741e+14
3.420587e+14
3.728037e+14
4.063647e+14
4.411642e+14
4.906954e+14
5.52036e+14
6.130069e+14
6.348936e+14
6.348818e+14
6.129209e+14
5.519516e+14
4.906487e+14
4.411619e+14
4.063887e+14
3.728447e+14
3.420839e+14
2.37831e+14
2.35436e+14
3.420204e+14
3.765674e+14
4.158853e+14
4.81205e+14
5.599517e+14
6.446791e+14
7.069924e+14
7.533797e+14
8.287056e+14
8.286744e+14
7.533437e+14
7.069242e+14
6.445795e+14
5.599395e+14
4.811844e+14
4.159264e+14
3.765971e+14
3.420502e+14
2.354875e+14
2.300503e+14
3.358693e+14
3.728261e+14
4.159133e+14
5.053203e+14
6.247093e+14
7.066843e+14
7.741102e+14
8.825939e+14
9.311711e+14
9.598335e+14
9.597873e+14
9.310506e+14
8.824317e+14
7.739726e+14
7.065534e+14
6.24576e+14
5.052784e+14
4.158933e+14
3.728507e+14
3.3592e+14
2.301171e+14
2.67991e+14
3.546419e+14
4.063798e+14
4.812226e+14
6.24702e+14
7.392902e+14
8.695797e+14
9.417218e+14
9.980828e+14
1.032877e+15
1.050583e+15
1.050535e+15
1.032735e+15
9.979069e+14
9.415518e+14
8.694262e+14
7.392091e+14
6.247008e+14
4.812576e+14
4.064843e+14
3.547768e+14
2.681014e+14
2.256124e+14
3.414105e+14
3.818757e+14
4.411537e+14
5.599307e+14
7.067352e+14
8.695647e+14
9.675049e+14
1.030724e+15
1.074459e+15
1.102235e+15
1.115934e+15
1.115906e+15
1.102151e+15
1.074381e+15
1.030684e+15
9.675246e+14
8.696825e+14
7.069599e+14
5.602144e+14
4.414068e+14
3.820721e+14
3.415228e+14
2.256428e+14
2.564283e+14
3.526447e+14
4.077592e+14
4.907232e+14
6.448118e+14
7.742155e+14
9.4172e+14
1.0307e+15
1.088098e+15
1.126849e+15
1.151367e+15
1.163328e+15
1.163333e+15
1.151386e+15
1.126917e+15
1.088231e+15
1.030917e+15
9.420256e+14
7.745645e+14
6.451536e+14
4.909295e+14
4.079708e+14
3.527444e+14
2.56467e+14
2.668646e+14
3.654029e+14
4.293227e+14
5.51999e+14
7.071894e+14
8.827185e+14
9.98097e+14
1.074428e+15
1.126837e+15
1.162843e+15
1.185723e+15
1.196932e+15
1.196958e+15
1.185811e+15
1.162999e+15
1.127059e+15
1.074716e+15
9.984017e+14
8.8298e+14
7.073196e+14
5.522739e+14
4.295483e+14
3.654675e+14
2.668968e+14
2.740193e+14
3.794407e+14
4.57289e+14
6.131957e+14
7.536573e+14
9.313927e+14
1.032968e+15
1.102255e+15
1.151375e+15
1.185729e+15
1.207589e+15
1.218317e+15
1.218307e+15
1.207594e+15
1.185752e+15
1.151441e+15
1.102383e+15
1.033143e+15
9.315705e+14
7.537923e+14
6.13397e+14
4.574118e+14
3.795117e+14
2.740881e+14
2.784641e+14
3.904658e+14
4.801901e+14
6.351349e+14
8.290547e+14
9.601595e+14
1.050797e+15
1.116046e+15
1.163375e+15
1.196968e+15
1.218394e+15
1.228992e+15
1.228949e+15
1.218421e+15
1.197055e+15
1.163505e+15
1.116198e+15
1.050977e+15
9.603569e+14
8.292562e+14
6.353501e+14
4.803891e+14
3.906112e+14
2.785702e+14
2.78418e+14
3.903956e+14
4.801194e+14
6.350952e+14
8.290833e+14
9.602266e+14
1.050901e+15
1.116125e+15
1.163392e+15
1.196927e+15
1.218361e+15
1.22904e+15
1.229045e+15
1.218526e+15
1.197173e+15
1.163623e+15
1.116309e+15
1.051078e+15
9.604558e+14
8.293417e+14
6.353381e+14
4.803426e+14
3.905715e+14
2.785427e+14
2.739057e+14
3.79346e+14
4.573003e+14
6.132716e+14
7.536872e+14
9.315393e+14
1.03316e+15
1.102411e+15
1.151446e+15
1.185713e+15
1.207548e+15
1.218344e+15
1.218411e+15
1.207784e+15
1.186017e+15
1.151734e+15
1.102666e+15
1.033403e+15
9.318121e+14
7.539887e+14
6.135128e+14
4.575167e+14
3.795533e+14
2.740526e+14
2.667701e+14
3.653647e+14
4.294336e+14
5.521545e+14
7.072737e+14
8.828998e+14
9.983026e+14
1.074585e+15
1.126896e+15
1.162814e+15
1.185648e+15
1.196885e+15
1.196937e+15
1.185859e+15
1.16311e+15
1.127222e+15
1.07491e+15
9.98613e+14
8.832006e+14
7.07579e+14
5.523285e+14
4.295818e+14
3.655843e+14
2.669302e+14
2.563666e+14
3.526384e+14
4.078725e+14
4.907848e+14
6.449895e+14
7.743931e+14
9.418814e+14
1.030791e+15
1.088099e+15
1.126796e+15
1.151298e+15
1.163303e+15
1.163354e+15
1.151504e+15
1.127107e+15
1.088474e+15
1.031185e+15
9.422462e+14
7.746455e+14
6.451794e+14
4.910023e+14
4.080032e+14
3.528362e+14
2.56515e+14
2.255564e+14
3.414243e+14
3.819568e+14
4.411896e+14
5.600794e+14
7.068563e+14
8.696481e+14
9.675217e+14
1.030695e+15
1.074422e+15
1.102247e+15
1.116001e+15
1.116065e+15
1.10246e+15
1.07476e+15
1.031114e+15
9.679707e+14
8.700536e+14
7.071126e+14
5.602586e+14
4.413977e+14
3.820719e+14
3.415817e+14
2.256873e+14
2.680578e+14
3.546676e+14
4.063625e+14
4.81241e+14
6.247512e+14
7.393002e+14
8.69582e+14
9.417542e+14
9.981583e+14
1.033058e+15
1.05081e+15
1.050884e+15
1.033273e+15
9.98496e+14
9.421661e+14
8.700274e+14
7.396859e+14
6.250091e+14
4.814295e+14
4.065799e+14
3.547741e+14
2.680794e+14
2.301008e+14
3.358333e+14
3.728068e+14
4.159078e+14
5.053403e+14
6.247418e+14
7.068195e+14
7.74342e+14
8.828767e+14
9.315938e+14
9.603182e+14
9.604054e+14
9.317855e+14
8.831462e+14
7.746125e+14
7.071353e+14
6.250525e+14
5.055517e+14
4.160685e+14
3.729888e+14
3.359453e+14
2.300541e+14
2.354972e+14
3.421383e+14
3.766483e+14
4.159072e+14
4.812356e+14
5.600857e+14
6.450315e+14
7.074107e+14
7.538742e+14
8.292637e+14
8.293484e+14
7.540116e+14
7.075299e+14
6.451216e+14
5.60262e+14
4.814156e+14
4.16047e+14
3.767552e+14
3.422368e+14
2.355041e+14
2.378509e+14
3.421275e+14
3.728603e+14
4.064753e+14
4.413007e+14
4.907993e+14
5.522413e+14
6.134691e+14
6.353744e+14
6.354034e+14
6.134572e+14
5.522745e+14
4.909102e+14
4.413389e+14
4.065045e+14
3.729058e+14
3.421877e+14
2.378777e+14
2.354482e+14
3.359033e+14
3.547409e+14
3.819884e+14
4.078758e+14
4.295361e+14
4.574676e+14
4.804051e+14
4.804059e+14
4.574509e+14
4.294753e+14
4.078977e+14
3.820493e+14
3.547685e+14
3.359059e+14
2.354543e+14
2.301206e+14
2.680827e+14
3.415e+14
3.527444e+14
3.655209e+14
3.795409e+14
3.906312e+14
3.906363e+14
3.795371e+14
3.654837e+14
3.527047e+14
3.415587e+14
2.681238e+14
2.301232e+14
2.255908e+14
2.564128e+14
2.668379e+14
2.739958e+14
2.784994e+14
2.784978e+14
2.740452e+14
2.668922e+14
2.564492e+14
2.255866e+14
1.91139e+14
2.167269e+14
2.231398e+14
2.256079e+14
2.25559e+14
2.229938e+14
2.164651e+14
1.909298e+14
1.909309e+14
2.290108e+14
2.507904e+14
3.159173e+14
3.277319e+14
3.346465e+14
3.377967e+14
3.377491e+14
3.344949e+14
3.274885e+14
3.158063e+14
2.507323e+14
2.289808e+14
1.909965e+14
2.105694e+14
3.063059e+14
3.356358e+14
3.701196e+14
4.078341e+14
4.253476e+14
4.361135e+14
4.41169e+14
4.411288e+14
4.359939e+14
4.25159e+14
4.076365e+14
3.700161e+14
3.355673e+14
3.062776e+14
2.106755e+14
1.973145e+14
2.45247e+14
3.294582e+14
3.916533e+14
4.587984e+14
5.340488e+14
5.723497e+14
5.946655e+14
6.095225e+14
6.172301e+14
6.171856e+14
6.093979e+14
5.94482e+14
5.721446e+14
5.338715e+14
4.586752e+14
3.916468e+14
3.294091e+14
2.452794e+14
1.973231e+14
1.991779e+14
3.003132e+14
3.48685e+14
4.337932e+14
5.438859e+14
6.219319e+14
6.872183e+14
7.90213e+14
8.3833e+14
8.666759e+14
8.807905e+14
8.807568e+14
8.665965e+14
8.382429e+14
7.901775e+14
6.872994e+14
6.220405e+14
5.439276e+14
4.337434e+14
3.487544e+14
3.003037e+14
1.991933e+14
1.973062e+14
3.003735e+14
3.600671e+14
4.513793e+14
5.836841e+14
6.811458e+14
8.137162e+14
8.994877e+14
9.738883e+14
1.029151e+15
1.066639e+15
1.085347e+15
1.085317e+15
1.066583e+15
1.029047e+15
9.737904e+14
8.994627e+14
8.137305e+14
6.811629e+14
5.837315e+14
4.514512e+14
3.600261e+14
3.00337e+14
1.973136e+14
2.453403e+14
3.487891e+14
4.514415e+14
5.93055e+14
7.041663e+14
8.603651e+14
9.748967e+14
1.06826e+15
1.148004e+15
1.212469e+15
1.25845e+15
1.277363e+15
1.277321e+15
1.258327e+15
1.212306e+15
1.14789e+15
1.068247e+15
9.749433e+14
8.604352e+14
7.042253e+14
5.930311e+14
4.514293e+14
3.487835e+14
2.453396e+14
2.107659e+14
3.295072e+14
4.338091e+14
5.838425e+14
7.041806e+14
8.744406e+14
1.010197e+15
1.12937e+15
1.232225e+15
1.31911e+15
1.383963e+15
1.430089e+15
1.456707e+15
1.456649e+15
1.429936e+15
1.38375e+15
1.318907e+15
1.232092e+15
1.129312e+15
1.010233e+15
8.74502e+14
7.042605e+14
5.838325e+14
4.338231e+14
3.295182e+14
2.107152e+14
1.909768e+14
3.063979e+14
3.917475e+14
5.439884e+14
6.814449e+14
8.606348e+14
1.010354e+15
1.151356e+15
1.279666e+15
1.384261e+15
1.470463e+15
1.542352e+15
1.592911e+15
1.620251e+15
1.620173e+15
1.592699e+15
1.542053e+15
1.470151e+15
1.383971e+15
1.279455e+15
1.151259e+15
1.010313e+15
8.606211e+14
6.814312e+14
5.439115e+14
3.9181e+14
3.063937e+14
1.909351e+14
2.291166e+14
3.357733e+14
4.588652e+14
6.222699e+14
8.141072e+14
9.75322e+14
1.129649e+15
1.279789e+15
1.407999e+15
1.521238e+15
1.612826e+15
1.683985e+15
1.731784e+15
1.756173e+15
1.756083e+15
1.731538e+15
1.683651e+15
1.612477e+15
1.520928e+15
1.407796e+15
1.279713e+15
1.129648e+15
9.753739e+14
8.141697e+14
6.222116e+14
4.58994e+14
3.358453e+14
2.291088e+14
2.508718e+14
3.701868e+14
5.340425e+14
6.877103e+14
8.999691e+14
1.068745e+15
1.232555e+15
1.384478e+15
1.521313e+15
1.638833e+15
1.730142e+15
1.797498e+15
1.841836e+15
1.863936e+15
1.863869e+15
1.841659e+15
1.797285e+15
1.729966e+15
1.638755e+15
1.521386e+15
1.384717e+15
1.232891e+15
1.069069e+15
9.002328e+14
6.878079e+14
5.343931e+14
3.703673e+14
2.509159e+14
1.91179e+14
3.160654e+14
4.078345e+14
5.724334e+14
7.907291e+14
9.744333e+14
1.148519e+15
1.319565e+15
1.470795e+15
1.612971e+15
1.730177e+15
1.819301e+15
1.883604e+15
1.925421e+15
1.946071e+15
1.94606e+15
1.925397e+15
1.883625e+15
1.819434e+15
1.730465e+15
1.613433e+15
1.471387e+15
1.320184e+15
1.149033e+15
9.748284e+14
7.909675e+14
5.728268e+14
4.080688e+14
3.160518e+14
1.911689e+14
2.166529e+14
3.277523e+14
4.25441e+14
5.949126e+14
8.388892e+14
1.029748e+15
1.213001e+15
1.384519e+15
1.542802e+15
1.684241e+15
1.79761e+15
1.883658e+15
1.945558e+15
1.98572e+15
2.005541e+15
2.005567e+15
1.98581e+15
1.945765e+15
1.884006e+15
1.798086e+15
1.684779e+15
1.543348e+15
1.385045e+15
1.213521e+15
1.030106e+15
8.391e+14
5.95171e+14
4.255951e+14
3.278417e+14
2.167113e+14
2.231368e+14
3.347187e+14
4.362827e+14
6.099206e+14
8.673502e+14
1.067357e+15
1.259166e+15
1.430821e+15
1.593561e+15
1.732234e+15
1.842104e+15
1.925586e+15
1.985795e+15
2.02488e+15
2.04416e+15
2.044161e+15
2.024911e+15
1.985882e+15
1.925755e+15
1.842372e+15
1.732585e+15
1.593958e+15
1.431245e+15
1.2596e+15
1.067649e+15
8.674856e+14
6.10042e+14
4.363897e+14
3.347942e+14
2.231666e+14
2.256888e+14
3.379805e+14
4.414361e+14
6.177495e+14
8.815695e+14
1.086157e+15
1.278208e+15
1.457608e+15
1.621135e+15
1.756882e+15
1.86443e+15
1.946381e+15
2.005714e+15
2.044282e+15
2.063337e+15
2.063355e+15
2.044384e+15
2.0059e+15
1.946625e+15
1.86472e+15
1.757232e+15
1.621535e+15
1.458061e+15
1.278666e+15
1.086468e+15
8.816787e+14
6.177916e+14
4.414833e+14
3.379997e+14
2.257061e+14
2.257034e+14
3.379949e+14
4.414475e+14
6.177823e+14
8.816051e+14
1.086221e+15
1.278286e+15
1.457684e+15
1.621246e+15
1.757065e+15
1.864612e+15
1.946466e+15
2.005701e+15
2.044242e+15
2.063347e+15
2.063437e+15
2.044532e+15
2.006096e+15
1.946844e+15
1.864938e+15
1.757433e+15
1.621716e+15
1.458211e+15
1.278776e+15
1.086564e+15
8.817503e+14
6.178112e+14
4.414816e+14
3.37997e+14
2.25717e+14
2.23201e+14
3.347975e+14
4.36342e+14
6.10023e+14
8.674522e+14
1.067584e+15
1.259462e+15
1.431093e+15
1.59389e+15
1.732631e+15
1.842483e+15
1.925843e+15
1.985894e+15
2.024876e+15
2.044178e+15
2.044292e+15
2.025197e+15
1.98631e+15
1.926272e+15
1.842914e+15
1.733104e+15
1.594423e+15
1.431632e+15
1.259927e+15
1.067956e+15
8.67672e+14
6.100612e+14
4.363997e+14
3.348261e+14
2.232294e+14
2.167858e+14
3.278801e+14
4.255433e+14
5.951006e+14
8.390362e+14
1.030049e+15
1.213446e+15
1.384976e+15
1.543293e+15
1.684751e+15
1.798055e+15
1.883959e+15
1.945696e+15
1.985744e+15
2.005547e+15
2.005627e+15
1.985994e+15
1.946073e+15
1.884419e+15
1.798571e+15
1.685299e+15
1.543844e+15
1.385481e+15
1.213846e+15
1.0304e+15
8.392896e+14
5.950966e+14
4.256052e+14
3.279367e+14
2.168223e+14
1.913303e+14
3.16135e+14
4.080384e+14
5.727515e+14
7.908537e+14
9.747161e+14
1.148889e+15
1.320054e+15
1.471314e+15
1.613465e+15
1.73057e+15
1.819561e+15
1.883754e+15
1.925524e+15
1.9462e+15
1.946284e+15
1.925789e+15
1.884178e+15
1.820108e+15
1.731191e+15
1.614095e+15
1.471897e+15
1.320574e+15
1.149349e+15
9.750547e+14
7.911303e+14
5.726694e+14
4.080839e+14
3.162543e+14
1.913546e+14
2.509552e+14
3.70372e+14
5.344143e+14
6.877383e+14
9.001911e+14
1.068968e+15
1.232924e+15
1.384881e+15
1.52167e+15
1.639115e+15
1.730368e+15
1.797718e+15
1.842111e+15
1.864298e+15
1.864412e+15
1.842455e+15
1.798265e+15
1.731068e+15
1.639894e+15
1.522436e+15
1.385554e+15
1.233528e+15
1.069487e+15
9.005129e+14
6.880683e+14
5.342767e+14
3.703745e+14
2.510176e+14
2.291148e+14
3.358649e+14
4.591e+14
6.223864e+14
8.143143e+14
9.754428e+14
1.129845e+15
1.280044e+15
1.408253e+15
1.52152e+15
1.613191e+15
1.684464e+15
1.732419e+15
1.756938e+15
1.757074e+15
1.732815e+15
1.685086e+15
1.613986e+15
1.522417e+15
1.40914e+15
1.280824e+15
1.130526e+15
9.759726e+14
8.145996e+14
6.226875e+14
4.590872e+14
3.359273e+14
2.292309e+14
1.909168e+14
3.065408e+14
3.91941e+14
5.441506e+14
6.816098e+14
8.607468e+14
1.010511e+15
1.151601e+15
1.280003e+15
1.384752e+15
1.471166e+15
1.543241e+15
1.594009e+15
1.621499e+15
1.621635e+15
1.594377e+15
1.543802e+15
1.471882e+15
1.385594e+15
1.280867e+15
1.152385e+15
1.011184e+15
8.612353e+14
6.817926e+14
5.444094e+14
3.919308e+14
3.065362e+14
1.91088e+14
2.106826e+14
3.296071e+14
4.339732e+14
5.839131e+14
7.044011e+14
8.746997e+14
1.010578e+15
1.129899e+15
1.232952e+15
1.32011e+15
1.385174e+15
1.431491e+15
1.458238e+15
1.45835e+15
1.431775e+15
1.385577e+15
1.320629e+15
1.233591e+15
1.130562e+15
1.011202e+15
8.752533e+14
7.048156e+14
5.842285e+14
4.341186e+14
3.29669e+14
2.107705e+14
2.453613e+14
3.488944e+14
4.515881e+14
5.932781e+14
7.044337e+14
8.609127e+14
9.756551e+14
1.069188e+15
1.149088e+15
1.213764e+15
1.259986e+15
1.279027e+15
1.279091e+15
1.260152e+15
1.214024e+15
1.149448e+15
1.06957e+15
9.760538e+14
8.613156e+14
7.047999e+14
5.935462e+14
4.517401e+14
3.489425e+14
2.453865e+14
1.974168e+14
3.004982e+14
3.602252e+14
4.516117e+14
5.841516e+14
6.817919e+14
8.144634e+14
9.004069e+14
9.749814e+14
1.030423e+15
1.068088e+15
1.086873e+15
1.086905e+15
1.068206e+15
1.030577e+15
9.751812e+14
9.006667e+14
8.147911e+14
6.820648e+14
5.843569e+14
4.517584e+14
3.602996e+14
3.005298e+14
1.974063e+14
1.992272e+14
3.005197e+14
3.489922e+14
4.340153e+14
5.441789e+14
6.223871e+14
6.879363e+14
7.910677e+14
8.392803e+14
8.677532e+14
8.819324e+14
8.819415e+14
8.67882e+14
8.394889e+14
7.912942e+14
6.881164e+14
6.227024e+14
5.44497e+14
4.342146e+14
3.490652e+14
3.005699e+14
1.992476e+14
1.974286e+14
2.45467e+14
3.296288e+14
3.919362e+14
4.590287e+14
5.343382e+14
5.726343e+14
5.949823e+14
6.099777e+14
6.180399e+14
6.179847e+14
6.10175e+14
5.952886e+14
5.729629e+14
5.346461e+14
4.592727e+14
3.920819e+14
3.297372e+14
2.454618e+14
1.974569e+14
2.107281e+14
3.064669e+14
3.358648e+14
3.703277e+14
4.079623e+14
4.254556e+14
4.362838e+14
4.415208e+14
4.414449e+14
4.363619e+14
4.255625e+14
4.080744e+14
3.703911e+14
3.358806e+14
3.066236e+14
2.107352e+14
1.909245e+14
2.291407e+14
2.509137e+14
3.161172e+14
3.277964e+14
3.347269e+14
3.381123e+14
3.380824e+14
3.347225e+14
3.277832e+14
3.161582e+14
2.509117e+14
2.291039e+14
1.910074e+14
1.912574e+14
2.166943e+14
2.231097e+14
2.257034e+14
2.256826e+14
2.230802e+14
2.166355e+14
1.911206e+14
1.696329e+14
1.911798e+14
1.959959e+14
1.959402e+14
1.910083e+14
1.695136e+14
1.630588e+14
2.027389e+14
2.268513e+14
2.543157e+14
3.158955e+14
3.292543e+14
3.34395e+14
3.342689e+14
3.28929e+14
3.155124e+14
2.542317e+14
2.268189e+14
2.026758e+14
1.630768e+14
1.643833e+14
2.128174e+14
2.955606e+14
3.458158e+14
3.899717e+14
4.533028e+14
4.883525e+14
5.029095e+14
5.100088e+14
5.098486e+14
5.025038e+14
4.879678e+14
4.531735e+14
3.898029e+14
3.455546e+14
2.95452e+14
2.128267e+14
1.644805e+14
1.838948e+14
2.855289e+14
3.573423e+14
4.58738e+14
5.178472e+14
5.764146e+14
6.289072e+14
7.161742e+14
7.497972e+14
7.632224e+14
7.630835e+14
7.494316e+14
7.157308e+14
6.28536e+14
5.760005e+14
5.17493e+14
4.582892e+14
3.572864e+14
2.854577e+14
1.840145e+14
1.970379e+14
3.171726e+14
4.124632e+14
5.274638e+14
6.187288e+14
7.443812e+14
8.259407e+14
8.885951e+14
9.410152e+14
9.732169e+14
9.88085e+14
9.879762e+14
9.729224e+14
9.406219e+14
8.882135e+14
8.25629e+14
7.441483e+14
6.185278e+14
5.271473e+14
4.12396e+14
3.17078e+14
1.970762e+14
2.043545e+14
3.430068e+14
4.750523e+14
5.767983e+14
6.77357e+14
8.41795e+14
9.598285e+14
1.053064e+15
1.119295e+15
1.169567e+15
1.202196e+15
1.218045e+15
1.217972e+15
1.202001e+15
1.169304e+15
1.119019e+15
1.052801e+15
9.596177e+14
8.417087e+14
6.772985e+14
5.765838e+14
4.748571e+14
3.428809e+14
2.043189e+14
1.970942e+14
3.430566e+14
4.961934e+14
6.142134e+14
7.809387e+14
9.189315e+14
1.057036e+15
1.172368e+15
1.268241e+15
1.34911e+15
1.408581e+15
1.446575e+15
1.465096e+15
1.465063e+15
1.446502e+15
1.408516e+15
1.349094e+15
1.268273e+15
1.172403e+15
1.05706e+15
9.188726e+14
7.808593e+14
6.140856e+14
4.958478e+14
3.429204e+14
1.970456e+14
1.839916e+14
3.172203e+14
4.752516e+14
6.14252e+14
8.01262e+14
9.652502e+14
1.117692e+15
1.25259e+15
1.378928e+15
1.486191e+15
1.574364e+15
1.639665e+15
1.68206e+15
1.702814e+15
1.70281e+15
1.682075e+15
1.639718e+15
1.57448e+15
1.486367e+15
1.379114e+15
1.252744e+15
1.117775e+15
9.652772e+14
8.011824e+14
6.14117e+14
4.750215e+14
3.171198e+14
1.839314e+14
1.644628e+14
2.855931e+14
4.127314e+14
5.769598e+14
7.811371e+14
9.653996e+14
1.138607e+15
1.292745e+15
1.442165e+15
1.578022e+15
1.692715e+15
1.785914e+15
1.856309e+15
1.90248e+15
1.924465e+15
1.924449e+15
1.902463e+15
1.856342e+15
1.786048e+15
1.692952e+15
1.578306e+15
1.442429e+15
1.292922e+15
1.138652e+15
9.653385e+14
7.809798e+14
5.767854e+14
4.12619e+14
2.854923e+14
1.644023e+14
2.129305e+14
3.576195e+14
5.275551e+14
6.778401e+14
9.193004e+14
1.118039e+15
1.292953e+15
1.462745e+15
1.621833e+15
1.763569e+15
1.884142e+15
1.981721e+15
2.055644e+15
2.105422e+15
2.130848e+15
2.130811e+15
2.105332e+15
2.055561e+15
1.981721e+15
1.884253e+15
1.763772e+15
1.622076e+15
1.462941e+15
1.293048e+15
1.117976e+15
9.191657e+14
6.776595e+14
5.274465e+14
3.575152e+14
2.129189e+14
1.631928e+14
2.956482e+14
4.587933e+14
6.190776e+14
8.424516e+14
1.057644e+15
1.253207e+15
1.44267e+15
1.622124e+15
1.786784e+15
1.93296e+15
2.057657e+15
2.159584e+15
2.238976e+15
2.293491e+15
2.321543e+15
2.321469e+15
2.293293e+15
2.238727e+15
2.159373e+15
2.057532e+15
1.932949e+15
1.78686e+15
1.622209e+15
1.442706e+15
1.253156e+15
1.057506e+15
8.422712e+14
6.18721e+14
4.587203e+14
2.955918e+14
1.632812e+14
2.027197e+14
3.458706e+14
5.179919e+14
7.450364e+14
9.605846e+14
1.173221e+15
1.379797e+15
1.57882e+15
1.764159e+15
1.933269e+15
2.083164e+15
2.213754e+15
2.321387e+15
2.40447e+15
2.46083e+15
2.489386e+15
2.489278e+15
2.460541e+15
2.404089e+15
2.321023e+15
2.213486e+15
2.083043e+15
1.933289e+15
1.764251e+15
1.578929e+15
1.379851e+15
1.173156e+15
9.60474e+14
7.446832e+14
5.177505e+14
3.457876e+14
2.027719e+14
2.269607e+14
3.902037e+14
5.768798e+14
8.268349e+14
1.053954e+15
1.269342e+15
1.487304e+15
1.693744e+15
1.884961e+15
2.058212e+15
2.213991e+15
2.349939e+15
2.460894e+15
2.545044e+15
2.601432e+15
2.6297e+15
2.629606e+15
2.601185e+15
2.544746e+15
2.460666e+15
2.349872e+15
2.214132e+15
2.058553e+15
1.885418e+15
1.694187e+15
1.487621e+15
1.26946e+15
1.053967e+15
8.264963e+14
5.764744e+14
3.899139e+14
2.26834e+14
2.545231e+14
4.539441e+14
6.297942e+14
8.896927e+14
1.12042e+15
1.350404e+15
1.575656e+15
1.78709e+15
1.982714e+15
2.160328e+15
2.321796e+15
2.461039e+15
2.57326e+15
2.657292e+15
2.713107e+15
2.74094e+15
2.740915e+15
2.71305e+15
2.657292e+15
2.573439e+15
2.461476e+15
2.322506e+15
2.161217e+15
1.983628e+15
1.787873e+15
1.576213e+15
1.350686e+15
1.120499e+15
8.893799e+14
6.292387e+14
4.532713e+14
2.542423e+14
1.697862e+14
3.160852e+14
4.890762e+14
7.172566e+14
9.422813e+14
1.170926e+15
1.410048e+15
1.641073e+15
1.857587e+15
2.056806e+15
2.239938e+15
2.405101e+15
2.545373e+15
2.657439e+15
2.740834e+15
2.796015e+15
2.823488e+15
2.82352e+15
2.79613e+15
2.741126e+15
2.657975e+15
2.546127e+15
2.405977e+15
2.240865e+15
2.057716e+15
1.858377e+15
1.641603e+15
1.410261e+15
1.170906e+15
9.419206e+14
7.166229e+14
4.883941e+14
3.157271e+14
1.695841e+14
1.911906e+14
3.295026e+14
5.035986e+14
7.509361e+14
9.746066e+14
1.20376e+15
1.448229e+15
1.683618e+15
1.903923e+15
2.10683e+15
2.294762e+15
2.461793e+15
2.602056e+15
2.713495e+15
2.796198e+15
2.850841e+15
2.878027e+15
2.878049e+15
2.850932e+15
2.796396e+15
2.71384e+15
2.602567e+15
2.462442e+15
2.295503e+15
2.107611e+15
1.90464e+15
1.684056e+15
1.448295e+15
1.203577e+15
9.741954e+14
7.503513e+14
5.030408e+14
3.291786e+14
1.911287e+14
1.960983e+14
3.34743e+14
5.10705e+14
7.64448e+14
9.896209e+14
1.219786e+15
1.466924e+15
1.704544e+15
1.926089e+15
2.132498e+15
2.32316e+15
2.49075e+15
2.630698e+15
2.741604e+15
2.823849e+15
2.87819e+15
2.905248e+15
2.905308e+15
2.878379e+15
2.824157e+15
2.74201e+15
2.631214e+15
2.491378e+15
2.32389e+15
2.133313e+15
1.926844e+15
1.704979e+15
1.466948e+15
1.219531e+15
9.891934e+14
7.639562e+14
5.103547e+14
3.345371e+14
1.960504e+14
1.961059e+14
3.347812e+14
5.107971e+14
7.644775e+14
9.896531e+14
1.219837e+15
1.467009e+15
1.704688e+15
1.926255e+15
2.132642e+15
2.323323e+15
2.491003e+15
2.630995e+15
2.74177e+15
2.823875e+15
2.878145e+15
2.905219e+15
2.905357e+15
2.878527e+15
2.824389e+15
2.742294e+15
2.631513e+15
2.491663e+15
2.324145e+15
2.133542e+15
1.927064e+15
1.705205e+15
1.467159e+15
1.219711e+15
9.893639e+14
7.641124e+14
5.104916e+14
3.346381e+14
1.96117e+14
1.912991e+14
3.295716e+14
5.036229e+14
7.509383e+14
9.746714e+14
1.203892e+15
1.448449e+15
1.684013e+15
1.904399e+15
2.107291e+15
2.295272e+15
2.462394e+15
2.602674e+15
2.713971e+15
2.796444e+15
2.850889e+15
2.878019e+15
2.87814e+15
2.851217e+15
2.79689e+15
2.714496e+15
2.603306e+15
2.463176e+15
2.296167e+15
2.108192e+15
1.905188e+15
1.684602e+15
1.448784e+15
1.203998e+15
9.746662e+14
7.508478e+14
5.035085e+14
3.295349e+14
1.913264e+14
1.699388e+14
3.159892e+14
4.889165e+14
7.171831e+14
9.423286e+14
1.171111e+15
1.410332e+15
1.641574e+15
1.858246e+15
2.057532e+15
2.240714e+15
2.405922e+15
2.546147e+15
2.658047e+15
2.741211e+15
2.796197e+15
2.823586e+15
2.823655e+15
2.79641e+15
2.741573e+15
2.658575e+15
2.546852e+15
2.406775e+15
2.24163e+15
2.058388e+15
1.858974e+15
1.642172e+15
1.410769e+15
1.171361e+15
9.425552e+14
7.173457e+14
4.890404e+14
3.160981e+14
1.699792e+14
2.545305e+14
4.536361e+14
6.297214e+14
8.897343e+14
1.12065e+15
1.350679e+15
1.576122e+15
1.787721e+15
1.98349e+15
2.161186e+15
2.322664e+15
2.461812e+15
2.573873e+15
2.65775e+15
2.713484e+15
2.741332e+15
2.741419e+15
2.713757e+15
2.658217e+15
2.574539e+15
2.462652e+15
2.323609e+15
2.162149e+15
1.984383e+15
1.788494e+15
1.576755e+15
1.351186e+15
1.120952e+15
8.900803e+14
6.299812e+14
4.539452e+14
2.54608e+14
2.269696e+14
3.901978e+14
5.768793e+14
8.268227e+14
1.054186e+15
1.269567e+15
1.487693e+15
1.694245e+15
1.885604e+15
2.058949e+15
2.21473e+15
2.350622e+15
2.46153e+15
2.545686e+15
2.602158e+15
2.630581e+15
2.630731e+15
2.602604e+15
2.546409e+15
2.462492e+15
2.351745e+15
2.215902e+15
2.06007e+15
1.886635e+15
1.695132e+15
1.488404e+15
1.270169e+15
1.054525e+15
8.272377e+14
5.771143e+14
3.903216e+14
2.269884e+14
2.028801e+14
3.460512e+14
5.181813e+14
7.45019e+14
9.607446e+14
1.173452e+15
1.380147e+15
1.579221e+15
1.764662e+15
1.933873e+15
2.083836e+15
2.214521e+15
2.322303e+15
2.405587e+15
2.462192e+15
2.491004e+15
2.491197e+15
2.46276e+15
2.406495e+15
2.323493e+15
2.215894e+15
2.085253e+15
1.9352e+15
1.76585e+15
1.580218e+15
1.380929e+15
1.174126e+15
9.61189e+14
7.454782e+14
5.182582e+14
3.460341e+14
2.028171e+14
1.633352e+14
2.957862e+14
4.591584e+14
6.190744e+14
8.424822e+14
1.057845e+15
1.253516e+15
1.443044e+15
1.622611e+15
1.787447e+15
1.93384e+15
2.058806e+15
2.161058e+15
2.240778e+15
2.295608e+15
2.323932e+15
2.324119e+15
2.29615e+15
2.241639e+15
2.162198e+15
2.060151e+15
1.935259e+15
1.78882e+15
1.623859e+15
1.444091e+15
1.254344e+15
1.058586e+15
8.430274e+14
6.195327e+14
4.589935e+14
2.958167e+14
1.632839e+14
2.130083e+14
3.576736e+14
5.278063e+14
6.77745e+14
9.195352e+14
1.118358e+15
1.293413e+15
1.4634e+15
1.622764e+15
1.764822e+15
1.885749e+15
1.983718e+15
2.057999e+15
2.108083e+15
2.133738e+15
2.133884e+15
2.108502e+15
2.058658e+15
1.9846e+15
1.886812e+15
1.765973e+15
1.623925e+15
1.46451e+15
1.294404e+15
1.119204e+15
9.202102e+14
6.783055e+14
5.280021e+14
3.577523e+14
2.130149e+14
1.644673e+14
2.857357e+14
4.128889e+14
5.773613e+14
7.815611e+14
9.658638e+14
1.139234e+15
1.293616e+15
1.44337e+15
1.579585e+15
1.694642e+15
1.788199e+15
1.858928e+15
1.905376e+15
1.927539e+15
1.927637e+15
1.905664e+15
1.859391e+15
1.78883e+15
1.695406e+15
1.580437e+15
1.444259e+15
1.294486e+15
1.140007e+15
9.664682e+14
7.819494e+14
5.775297e+14
4.12959e+14
2.85791e+14
1.645656e+14
1.839948e+14
3.174656e+14
4.756273e+14
6.145932e+14
8.017149e+14
9.659527e+14
1.118682e+15
1.253908e+15
1.380543e+15
1.488162e+15
1.576681e+15
1.642277e+15
1.684906e+15
1.705788e+15
1.70585e+15
1.685115e+15
1.642619e+15
1.57715e+15
1.488762e+15
1.381239e+15
1.254605e+15
1.119328e+15
9.665328e+14
8.021679e+14
6.149114e+14
4.756101e+14
3.174719e+14
1.840811e+14
1.971341e+14
3.432137e+14
4.966715e+14
6.145432e+14
7.81668e+14
9.198335e+14
1.058202e+15
1.173788e+15
1.27e+15
1.351166e+15
1.410884e+15
1.449097e+15
1.467757e+15
1.467791e+15
1.449277e+15
1.411206e+15
1.351599e+15
1.270532e+15
1.174388e+15
1.058739e+15
9.20259e+14
7.820568e+14
6.1484e+14
4.968065e+14
3.432892e+14
1.971621e+14
2.04388e+14
3.43199e+14
4.756983e+14
5.774775e+14
6.781725e+14
8.428605e+14
9.610494e+14
1.054483e+15
1.120971e+15
1.171472e+15
1.204337e+15
1.220421e+15
1.220408e+15
1.204479e+15
1.171746e+15
1.121345e+15
1.054954e+15
9.614771e+14
8.431531e+14
6.782538e+14
5.776819e+14
4.758658e+14
3.433115e+14
2.044277e+14
1.970716e+14
3.173624e+14
4.130352e+14
5.279734e+14
6.192137e+14
7.452551e+14
8.271141e+14
8.900724e+14
9.426973e+14
9.75068e+14
9.900468e+14
9.899911e+14
9.750661e+14