/*--------------------------------*- C++ -*----------------------------------*\
  =========                 |
  \\      /  F ield         | OpenFOAM: The Open Source CFD Toolbox
   \\    /   O peration     | Website:  https://openfoam.org
    \\  /    A nd           | Version:  6
     \\/     M anipulation  |
\*---------------------------------------------------------------------------*/
FoamFile
{
    version     2.0;
    format      ascii;
    class       volScalarField;
    location    "50/region0/neutronTransport";
    object      precursor4.dnp;
}
// * * * * * * * * * * * * * * * * * * * * * * * * * * * * * * * * * * * * * //

dimensions      [0 -3 0 0 0 0 0];

internalField   nonuniform List<scalar> 
203709
(
2.730057e+13
3.003617e+13
3.003284e+13
2.730716e+13
2.853042e+13
3.1939e+13
3.953961e+13
3.912388e+13
3.911952e+13
3.953829e+13
3.193653e+13
2.853316e+13
2.787439e+13
3.205221e+13
4.005423e+13
3.994045e+13
4.107653e+13
4.136002e+13
4.135879e+13
4.107483e+13
3.993723e+13
4.005452e+13
3.2053e+13
2.787883e+13
2.787444e+13
3.893269e+13
3.97639e+13
4.132427e+13
4.213598e+13
4.284948e+13
4.316547e+13
4.3167e+13
4.284839e+13
4.213444e+13
4.13272e+13
3.976926e+13
3.894326e+13
2.78856e+13
3.204672e+13
3.975947e+13
4.155702e+13
4.283296e+13
4.379981e+13
4.449843e+13
4.484631e+13
4.484814e+13
4.449871e+13
4.380222e+13
4.284011e+13
4.156694e+13
3.977319e+13
3.206026e+13
2.852575e+13
4.004643e+13
4.131847e+13
4.282938e+13
4.414402e+13
4.518183e+13
4.590234e+13
4.626028e+13
4.626159e+13
4.590595e+13
4.518938e+13
4.415325e+13
4.284228e+13
4.133608e+13
4.00676e+13
2.853942e+13
3.192857e+13
3.9928e+13
4.21249e+13
4.379063e+13
4.517796e+13
4.625663e+13
4.697589e+13
4.731686e+13
4.73184e+13
4.698218e+13
4.626453e+13
4.518777e+13
4.38055e+13
4.214208e+13
3.994498e+13
3.194425e+13
2.730197e+13
3.953434e+13
4.1068e+13
4.283967e+13
4.449089e+13
4.589701e+13
4.697417e+13
4.764348e+13
4.797531e+13
4.797533e+13
4.76447e+13
4.69741e+13
4.59002e+13
4.449806e+13
4.285042e+13
4.108169e+13
3.955304e+13
2.730739e+13
3.002853e+13
3.911494e+13
4.13498e+13
4.315709e+13
4.483803e+13
4.625232e+13
4.731416e+13
4.797756e+13
4.833903e+13
4.832887e+13
4.797671e+13
4.731691e+13
4.625918e+13
4.484582e+13
4.316652e+13
4.136388e+13
3.912909e+13
3.003866e+13
3.003173e+13
3.912287e+13
4.13539e+13
4.315768e+13
4.483734e+13
4.625064e+13
4.730998e+13
4.797499e+13
4.834657e+13
4.833727e+13
4.797887e+13
4.731781e+13
4.625875e+13
4.484661e+13
4.316709e+13
4.13644e+13
3.9134e+13
3.004387e+13
2.729539e+13
3.954213e+13
4.107199e+13
4.2841e+13
4.44894e+13
4.589297e+13
4.696832e+13
4.763959e+13
4.797595e+13
4.797581e+13
4.764686e+13
4.697891e+13
4.590305e+13
4.449951e+13
4.285063e+13
4.10815e+13
3.954922e+13
2.730891e+13
3.192851e+13
3.993013e+13
4.212606e+13
4.379011e+13
4.517247e+13
4.624895e+13
4.69675e+13
4.731177e+13
4.731069e+13
4.697589e+13
4.625913e+13
4.518371e+13
4.38001e+13
4.213502e+13
3.994059e+13
3.194109e+13
2.852499e+13
4.004681e+13
4.131436e+13
4.282343e+13
4.41344e+13
4.517181e+13
4.588984e+13
4.625264e+13
4.625258e+13
4.589881e+13
4.518226e+13
4.414755e+13
4.283693e+13
4.132798e+13
4.005985e+13
2.853472e+13
3.204335e+13
3.975221e+13
4.154821e+13
4.282312e+13
4.378881e+13
4.448934e+13
4.485804e+13
4.485872e+13
4.449435e+13
4.379775e+13
4.283487e+13
4.156252e+13
3.977022e+13
3.205738e+13
2.787115e+13
3.892796e+13
3.97542e+13
4.131518e+13
4.212459e+13
4.28408e+13
4.317585e+13
4.317735e+13
4.284523e+13
4.213219e+13
4.132378e+13
3.976421e+13
3.894077e+13
2.787725e+13
2.787346e+13
3.204646e+13
4.004765e+13
3.992881e+13
4.107163e+13
4.136706e+13
4.137153e+13
4.107576e+13
3.993752e+13
4.005411e+13
3.204903e+13
2.787607e+13
2.852902e+13
3.193239e+13
3.954124e+13
3.914041e+13
3.914687e+13
3.954478e+13
3.193589e+13
2.852967e+13
2.730503e+13
3.003684e+13
3.003951e+13
2.730529e+13
2.287635e+13
2.600296e+13
2.706219e+13
2.778919e+13
2.82439e+13
2.824435e+13
2.779078e+13
2.706452e+13
2.600685e+13
2.28824e+13
2.333297e+13
2.718806e+13
3.463087e+13
3.576161e+13
3.70523e+13
3.847375e+13
3.959901e+13
3.959994e+13
3.847836e+13
3.705339e+13
3.575762e+13
3.462416e+13
2.718071e+13
2.332739e+13
2.388243e+13
3.405924e+13
3.597296e+13
3.874042e+13
4.136568e+13
4.35504e+13
4.637169e+13
4.869932e+13
4.869951e+13
4.637339e+13
4.354268e+13
4.135402e+13
3.873418e+13
3.596988e+13
3.406443e+13
2.388659e+13
2.411854e+13
3.469662e+13
3.781522e+13
4.121948e+13
4.474935e+13
4.977353e+13
5.599559e+13
6.218016e+13
6.440023e+13
6.439903e+13
6.217143e+13
5.598703e+13
4.97688e+13
4.474911e+13
4.12219e+13
3.781938e+13
3.469917e+13
2.412431e+13
2.388138e+13
3.469273e+13
3.8197e+13
4.218519e+13
4.881087e+13
5.679852e+13
6.539282e+13
7.171355e+13
7.641882e+13
8.405949e+13
8.405632e+13
7.641518e+13
7.170663e+13
6.538272e+13
5.679728e+13
4.880878e+13
4.218936e+13
3.82e+13
3.469575e+13
2.38866e+13
2.333508e+13
3.406879e+13
3.78175e+13
4.218803e+13
5.1257e+13
6.336719e+13
7.168229e+13
7.852162e+13
8.952563e+13
9.445304e+13
9.73604e+13
9.735571e+13
9.444082e+13
8.950918e+13
7.850766e+13
7.166901e+13
6.335367e+13
5.125275e+13
4.2186e+13
3.781999e+13
3.407394e+13
2.334186e+13
2.718358e+13
3.597299e+13
4.1221e+13
4.881265e+13
6.336645e+13
7.498966e+13
8.820554e+13
9.552325e+13
1.012402e+14
1.047695e+14
1.065656e+14
1.065606e+14
1.047552e+14
1.012224e+14
9.5506e+13
8.818996e+13
7.498144e+13
6.336632e+13
4.881621e+13
4.123161e+13
3.598667e+13
2.719478e+13
2.288492e+13
3.463086e+13
3.873544e+13
4.474828e+13
5.679639e+13
7.168745e+13
8.820402e+13
9.813855e+13
1.045511e+14
1.089874e+14
1.118048e+14
1.131944e+14
1.131915e+14
1.117963e+14
1.089795e+14
1.045471e+14
9.814055e+13
8.821596e+13
7.171025e+13
5.682516e+13
4.477395e+13
3.875536e+13
3.464226e+13
2.2888e+13
2.601072e+13
3.57704e+13
4.136092e+13
4.977635e+13
6.540627e+13
7.85323e+13
9.552307e+13
1.045487e+14
1.103709e+14
1.143016e+14
1.167885e+14
1.180018e+14
1.180023e+14
1.167904e+14
1.143085e+14
1.103843e+14
1.045708e+14
9.555406e+13
7.85677e+13
6.544095e+13
4.979727e+13
4.138239e+13
3.578051e+13
2.601465e+13
2.706932e+13
3.706452e+13
4.35482e+13
5.599184e+13
7.173353e+13
8.953826e+13
1.012416e+14
1.089843e+14
1.143003e+14
1.179526e+14
1.202734e+14
1.214104e+14
1.21413e+14
1.202823e+14
1.179685e+14
1.143229e+14
1.090134e+14
1.012726e+14
8.956479e+13
7.174674e+13
5.601972e+13
4.357109e+13
3.707108e+13
2.707259e+13
2.779506e+13
3.848845e+13
4.638496e+13
6.219931e+13
7.644699e+13
9.447552e+13
1.047788e+14
1.118069e+14
1.167893e+14
1.202741e+14
1.224913e+14
1.235796e+14
1.235786e+14
1.224919e+14
1.202763e+14
1.167961e+14
1.118199e+14
1.047966e+14
9.449356e+13
7.646068e+13
6.221973e+13
4.639742e+13
3.849565e+13
2.780204e+13
2.824591e+13
3.960677e+13
4.870793e+13
6.442471e+13
8.40949e+13
9.739347e+13
1.065872e+14
1.132057e+14
1.180065e+14
1.214141e+14
1.235874e+14
1.246624e+14
1.24658e+14
1.235901e+14
1.214229e+14
1.180197e+14
1.132212e+14
1.066055e+14
9.741349e+13
8.411533e+13
6.444653e+13
4.872811e+13
3.962152e+13
2.825668e+13
2.824124e+13
3.959965e+13
4.870075e+13
6.442068e+13
8.40978e+13
9.740027e+13
1.065978e+14
1.132138e+14
1.180083e+14
1.214099e+14
1.235841e+14
1.246672e+14
1.246678e+14
1.236008e+14
1.214349e+14
1.180317e+14
1.132324e+14
1.066157e+14
9.742352e+13
8.412401e+13
6.444531e+13
4.87234e+13
3.96175e+13
2.825389e+13
2.778354e+13
3.847883e+13
4.638611e+13
6.220701e+13
7.645002e+13
9.449039e+13
1.047982e+14
1.118227e+14
1.167966e+14
1.202724e+14
1.224872e+14
1.235824e+14
1.235891e+14
1.225112e+14
1.203033e+14
1.168258e+14
1.118486e+14
1.048229e+14
9.451806e+13
7.64806e+13
6.223147e+13
4.640806e+13
3.849987e+13
2.779843e+13
2.705974e+13
3.706065e+13
4.355946e+13
5.600762e+13
7.174207e+13
8.955665e+13
1.012625e+14
1.090002e+14
1.143063e+14
1.179496e+14
1.202658e+14
1.214056e+14
1.214109e+14
1.202872e+14
1.179797e+14
1.143394e+14
1.090331e+14
1.01294e+14
8.958717e+13
7.177305e+13
5.602526e+13
4.357449e+13
3.708293e+13
2.707598e+13
2.600447e+13
3.576976e+13
4.137242e+13
4.97826e+13
6.54243e+13
7.855031e+13
9.553943e+13
1.045579e+14
1.10371e+14
1.142962e+14
1.167815e+14
1.179992e+14
1.180044e+14
1.168024e+14
1.143278e+14
1.10409e+14
1.04598e+14
9.557644e+13
7.857592e+13
6.544356e+13
4.980466e+13
4.138567e+13
3.578982e+13
2.601952e+13
2.287924e+13
3.463226e+13
3.874366e+13
4.475193e+13
5.681147e+13
7.169974e+13
8.821247e+13
9.814025e+13
1.045482e+14
1.089836e+14
1.118061e+14
1.132012e+14
1.132077e+14
1.118277e+14
1.09018e+14
1.045907e+14
9.81858e+13
8.82536e+13
7.172574e+13
5.682965e+13
4.477303e+13
3.875534e+13
3.464823e+13
2.289252e+13
2.719035e+13
3.597559e+13
4.121924e+13
4.881453e+13
6.337143e+13
7.499068e+13
8.820577e+13
9.552653e+13
1.012479e+14
1.047879e+14
1.065886e+14
1.065961e+14
1.048098e+14
1.012821e+14
9.556832e+13
8.825095e+13
7.50298e+13
6.33976e+13
4.883364e+13
4.12413e+13
3.598639e+13
2.719254e+13
2.33402e+13
3.406514e+13
3.781554e+13
4.218747e+13
5.125903e+13
6.337048e+13
7.169601e+13
7.854513e+13
8.955432e+13
9.449592e+13
9.740957e+13
9.741841e+13
9.451536e+13
8.958165e+13
7.857257e+13
7.172804e+13
6.3402e+13
5.128047e+13
4.220378e+13
3.7834e+13
3.40765e+13
2.333547e+13
2.388758e+13
3.470469e+13
3.82052e+13
4.218741e+13
4.881398e+13
5.681211e+13
6.542857e+13
7.175597e+13
7.646899e+13
8.41161e+13
8.412469e+13
7.648293e+13
7.176807e+13
6.54377e+13
5.683e+13
4.883224e+13
4.220159e+13
3.821604e+13
3.471467e+13
2.388828e+13
2.412633e+13
3.470359e+13
3.782096e+13
4.123069e+13
4.476319e+13
4.978407e+13
5.601642e+13
6.222704e+13
6.4449e+13
6.445194e+13
6.222583e+13
5.601979e+13
4.979531e+13
4.476707e+13
4.123366e+13
3.782558e+13
3.47097e+13
2.412904e+13
2.388261e+13
3.407224e+13
3.598303e+13
3.874687e+13
4.137275e+13
4.356985e+13
4.640308e+13
4.872973e+13
4.872981e+13
4.640139e+13
4.356369e+13
4.137497e+13
3.875305e+13
3.598583e+13
3.407251e+13
2.388323e+13
2.334221e+13
2.719289e+13
3.463994e+13
3.578051e+13
3.70765e+13
3.849861e+13
3.962354e+13
3.962406e+13
3.849822e+13
3.707272e+13
3.577648e+13
3.46459e+13
2.719705e+13
2.334247e+13
2.288273e+13
2.600915e+13
2.706661e+13
2.779268e+13
2.82495e+13
2.824933e+13
2.779768e+13
2.707212e+13
2.601285e+13
2.28823e+13
1.938812e+13
2.198362e+13
2.263411e+13
2.288447e+13
2.287951e+13
2.261931e+13
2.195706e+13
1.93669e+13
1.936701e+13
2.322963e+13
2.543885e+13
3.204497e+13
3.324338e+13
3.394476e+13
3.426429e+13
3.425947e+13
3.392938e+13
3.321869e+13
3.203371e+13
2.543295e+13
2.32266e+13
1.937367e+13
2.135904e+13
3.107003e+13
3.404511e+13
3.754296e+13
4.136852e+13
4.314499e+13
4.423703e+13
4.474983e+13
4.474576e+13
4.42249e+13
4.312586e+13
4.134848e+13
3.753247e+13
3.403816e+13
3.106717e+13
2.13698e+13
2.001453e+13
2.487655e+13
3.341849e+13
3.972723e+13
4.653806e+13
5.417106e+13
5.805611e+13
6.031971e+13
6.182672e+13
6.260854e+13
6.260402e+13
6.181408e+13
6.030109e+13
5.803531e+13
5.415308e+13
4.652557e+13
3.972657e+13
3.34135e+13
2.487984e+13
2.001541e+13
2.020355e+13
3.046217e+13
3.536875e+13
4.400167e+13
5.516889e+13
6.308547e+13
6.970777e+13
8.0155e+13
8.503573e+13
8.791099e+13
8.93427e+13
8.933928e+13
8.790293e+13
8.50269e+13
8.01514e+13
6.971599e+13
6.309648e+13
5.517312e+13
4.399662e+13
3.537579e+13
3.046121e+13
2.020511e+13
2.001369e+13
3.046828e+13
3.652329e+13
4.578551e+13
5.920581e+13
6.90918e+13
8.253904e+13
9.123925e+13
9.878604e+13
1.043916e+14
1.081942e+14
1.100918e+14
1.100887e+14
1.081885e+14
1.043811e+14
9.877611e+13
9.123671e+13
8.254049e+13
6.909354e+13
5.921062e+13
4.579281e+13
3.651913e+13
3.046459e+13
2.001444e+13
2.488601e+13
3.53793e+13
4.579182e+13
6.015634e+13
7.142688e+13
8.727086e+13
9.888833e+13
1.083587e+14
1.164474e+14
1.229864e+14
1.276505e+14
1.295689e+14
1.295646e+14
1.27638e+14
1.229699e+14
1.164359e+14
1.083572e+14
9.889306e+13
8.727796e+13
7.143287e+13
6.015392e+13
4.579058e+13
3.537874e+13
2.488594e+13
2.137897e+13
3.342346e+13
4.400328e+13
5.922187e+13
7.142833e+13
8.86986e+13
1.02469e+14
1.145573e+14
1.249904e+14
1.338035e+14
1.403818e+14
1.450606e+14
1.477606e+14
1.477547e+14
1.450451e+14
1.403603e+14
1.337829e+14
1.249768e+14
1.145514e+14
1.024726e+14
8.870482e+13
7.143643e+13
5.922086e+13
4.40047e+13
3.342457e+13
2.137383e+13
1.937167e+13
3.107937e+13
3.973678e+13
5.517929e+13
6.912214e+13
8.729821e+13
1.02485e+14
1.167875e+14
1.298025e+14
1.404121e+14
1.49156e+14
1.564479e+14
1.615764e+14
1.643496e+14
1.643418e+14
1.615549e+14
1.564176e+14
1.491243e+14
1.403826e+14
1.297811e+14
1.167776e+14
1.024808e+14
8.729683e+13
6.912075e+13
5.517149e+13
3.974312e+13
3.107895e+13
1.936744e+13
2.324037e+13
3.405905e+13
4.654484e+13
6.311975e+13
8.25787e+13
9.893147e+13
1.145856e+14
1.29815e+14
1.428199e+14
1.543063e+14
1.635964e+14
1.708144e+14
1.75663e+14
1.781368e+14
1.781277e+14
1.75638e+14
1.707806e+14
1.63561e+14
1.542749e+14
1.427993e+14
1.298072e+14
1.145855e+14
9.893673e+13
8.258504e+13
6.311384e+13
4.655791e+13
3.406636e+13
2.323958e+13
2.54471e+13
3.754978e+13
5.417043e+13
6.975767e+13
9.128807e+13
1.084078e+14
1.250238e+14
1.404341e+14
1.543139e+14
1.662345e+14
1.754963e+14
1.823286e+14
1.86826e+14
1.890678e+14
1.89061e+14
1.86808e+14
1.82307e+14
1.754785e+14
1.662265e+14
1.543213e+14
1.404583e+14
1.250579e+14
1.084407e+14
9.131483e+13
6.976758e+13
5.420599e+13
3.756808e+13
2.545157e+13
1.939218e+13
3.205999e+13
4.136856e+13
5.806459e+13
8.020735e+13
9.884132e+13
1.164996e+14
1.338497e+14
1.491896e+14
1.636111e+14
1.754999e+14
1.845402e+14
1.910627e+14
1.953044e+14
1.973991e+14
1.97398e+14
1.95302e+14
1.910648e+14
1.845537e+14
1.755291e+14
1.636581e+14
1.492497e+14
1.339124e+14
1.165518e+14
9.88814e+13
8.023153e+13
5.81045e+13
4.139233e+13
3.205862e+13
1.939115e+13
2.197612e+13
3.324545e+13
4.315447e+13
6.034477e+13
8.509245e+13
1.044522e+14
1.230404e+14
1.404382e+14
1.564936e+14
1.708404e+14
1.8234e+14
1.910682e+14
1.973471e+14
2.014208e+14
2.034314e+14
2.03434e+14
2.0143e+14
1.97368e+14
1.911035e+14
1.823883e+14
1.70895e+14
1.565491e+14
1.404916e+14
1.230931e+14
1.044885e+14
8.511384e+13
6.037098e+13
4.31701e+13
3.325452e+13
2.198204e+13
2.263381e+13
3.395209e+13
4.425419e+13
6.18671e+13
8.797939e+13
1.082671e+14
1.277231e+14
1.451348e+14
1.616423e+14
1.757086e+14
1.868532e+14
1.953212e+14
2.014285e+14
2.05393e+14
2.073487e+14
2.073488e+14
2.053962e+14
2.014373e+14
1.953383e+14
1.868804e+14
1.757442e+14
1.616826e+14
1.451778e+14
1.277672e+14
1.082967e+14
8.799312e+13
6.187942e+13
4.426505e+13
3.395974e+13
2.263683e+13
2.289267e+13
3.428294e+13
4.477692e+13
6.266122e+13
8.942172e+13
1.10174e+14
1.296546e+14
1.47852e+14
1.644393e+14
1.782087e+14
1.891178e+14
1.974306e+14
2.034489e+14
2.073611e+14
2.092939e+14
2.092957e+14
2.073715e+14
2.034678e+14
1.974553e+14
1.891473e+14
1.782443e+14
1.644799e+14
1.478979e+14
1.297011e+14
1.102056e+14
8.943279e+13
6.266549e+13
4.478172e+13
3.428489e+13
2.289442e+13
2.289415e+13
3.428441e+13
4.477808e+13
6.266454e+13
8.942533e+13
1.101804e+14
1.296626e+14
1.478597e+14
1.644505e+14
1.782273e+14
1.891363e+14
1.974391e+14
2.034477e+14
2.073571e+14
2.092949e+14
2.093041e+14
2.073865e+14
2.034877e+14
1.974775e+14
1.891693e+14
1.782647e+14
1.644983e+14
1.479132e+14
1.297123e+14
1.102153e+14
8.944006e+13
6.266748e+13
4.478154e+13
3.428462e+13
2.289553e+13
2.264032e+13
3.396008e+13
4.426021e+13
6.187748e+13
8.798974e+13
1.0829e+14
1.277531e+14
1.451624e+14
1.616758e+14
1.757488e+14
1.868916e+14
1.953473e+14
2.014385e+14
2.053927e+14
2.073506e+14
2.073621e+14
2.054252e+14
2.014807e+14
1.953908e+14
1.869354e+14
1.757969e+14
1.617297e+14
1.452171e+14
1.278003e+14
1.083278e+14
8.801203e+13
6.188136e+13
4.426606e+13
3.396298e+13
2.26432e+13
2.19896e+13
3.325841e+13
4.316485e+13
6.036383e+13
8.510737e+13
1.044827e+14
1.230855e+14
1.404846e+14
1.565434e+14
1.708922e+14
1.823851e+14
1.910987e+14
1.973611e+14
2.014233e+14
2.03432e+14
2.034401e+14
2.014487e+14
1.973992e+14
1.911454e+14
1.824374e+14
1.709478e+14
1.565994e+14
1.405358e+14
1.231261e+14
1.045183e+14
8.513307e+13
6.036343e+13
4.317113e+13
3.326416e+13
2.19933e+13
1.940753e+13
3.206705e+13
4.138924e+13
5.809686e+13
8.021998e+13
9.887002e+13
1.165371e+14
1.338992e+14
1.492423e+14
1.636613e+14
1.755398e+14
1.845666e+14
1.910779e+14
1.953149e+14
1.974122e+14
1.974206e+14
1.953418e+14
1.91121e+14
1.846221e+14
1.756028e+14
1.637252e+14
1.493014e+14
1.33952e+14
1.165838e+14
9.890436e+13
8.024805e+13
5.808854e+13
4.139386e+13
3.207915e+13
1.940999e+13
2.545556e+13
3.756856e+13
5.420814e+13
6.976052e+13
9.131059e+13
1.084304e+14
1.250612e+14
1.40475e+14
1.543501e+14
1.662631e+14
1.755193e+14
1.823509e+14
1.86854e+14
1.891045e+14
1.89116e+14
1.868889e+14
1.824064e+14
1.755903e+14
1.663422e+14
1.544278e+14
1.405432e+14
1.251225e+14
1.084831e+14
9.134324e+13
6.979398e+13
5.419418e+13
3.756882e+13
2.546189e+13
2.324018e+13
3.406835e+13
4.656866e+13
6.313156e+13
8.259971e+13
9.894372e+13
1.146054e+14
1.298409e+14
1.428456e+14
1.543349e+14
1.636335e+14
1.708631e+14
1.757274e+14
1.782145e+14
1.782282e+14
1.757676e+14
1.709261e+14
1.637141e+14
1.544258e+14
1.429357e+14
1.299199e+14
1.146745e+14
9.899747e+13
8.262864e+13
6.31621e+13
4.656736e+13
3.407468e+13
2.325196e+13
1.936559e+13
3.109387e+13
3.975641e+13
5.519574e+13
6.913886e+13
8.730957e+13
1.025008e+14
1.168122e+14
1.298367e+14
1.404618e+14
1.492272e+14
1.565382e+14
1.616877e+14
1.644762e+14
1.6449e+14
1.617252e+14
1.56595e+14
1.492999e+14
1.405473e+14
1.299243e+14
1.168918e+14
1.025691e+14
8.735913e+13
6.915742e+13
5.522199e+13
3.975538e+13
3.10934e+13
1.938294e+13
2.137052e+13
3.343359e+13
4.401993e+13
5.922903e+13
7.14507e+13
8.872488e+13
1.025076e+14
1.146109e+14
1.250641e+14
1.33905e+14
1.405047e+14
1.452028e+14
1.479159e+14
1.479273e+14
1.452316e+14
1.405456e+14
1.339576e+14
1.251289e+14
1.146782e+14
1.02571e+14
8.878103e+13
7.149274e+13
5.926103e+13
4.403468e+13
3.343987e+13
2.137944e+13
2.488814e+13
3.538999e+13
4.580669e+13
6.017897e+13
7.1454e+13
8.73264e+13
9.896526e+13
1.084527e+14
1.165573e+14
1.231178e+14
1.278063e+14
1.297377e+14
1.297442e+14
1.278231e+14
1.231441e+14
1.165939e+14
1.084914e+14
9.90057e+13
8.736726e+13
7.149115e+13
6.020617e+13
4.582212e+13
3.539487e+13
2.48907e+13
2.002491e+13
3.048094e+13
3.653933e+13
4.580909e+13
5.925323e+13
6.915734e+13
8.261483e+13
9.133248e+13
9.889692e+13
1.045206e+14
1.083411e+14
1.102466e+14
1.102498e+14
1.083531e+14
1.045362e+14
9.891719e+13
9.135883e+13
8.264807e+13
6.918502e+13
5.927405e+13
4.582396e+13
3.654687e+13
3.048414e+13
2.002384e+13
2.020855e+13
3.048312e+13
3.539991e+13
4.40242e+13
5.519861e+13
6.313164e+13
6.97806e+13
8.02417e+13
8.513213e+13
8.802027e+13
8.945853e+13
8.945945e+13
8.803333e+13
8.515329e+13
8.026468e+13
6.979886e+13
6.316362e+13
5.523087e+13
4.404442e+13
3.540732e+13
3.048821e+13
2.021062e+13
2.00261e+13
2.489887e+13
3.343579e+13
3.975592e+13
4.656142e+13
5.420042e+13
5.808497e+13
6.035184e+13
6.187289e+13
6.269068e+13
6.268507e+13
6.18929e+13
6.038291e+13
5.81183e+13
5.423165e+13
4.658618e+13
3.97707e+13
3.344679e+13
2.489833e+13
2.002897e+13
2.137514e+13
3.108637e+13
3.406833e+13
3.756407e+13
4.138153e+13
4.315595e+13
4.425431e+13
4.478552e+13
4.477782e+13
4.426223e+13
4.316679e+13
4.139289e+13
3.75705e+13
3.406994e+13
3.110226e+13
2.137586e+13
1.936636e+13
2.324281e+13
2.545135e+13
3.206524e+13
3.324992e+13
3.395291e+13
3.429631e+13
3.429328e+13
3.395247e+13
3.324858e+13
3.206941e+13
2.545115e+13
2.323908e+13
1.937477e+13
1.940014e+13
2.198031e+13
2.263106e+13
2.289415e+13
2.289204e+13
2.262807e+13
2.197435e+13
1.938625e+13
1.720665e+13
1.939226e+13
1.988078e+13
1.987513e+13
1.937486e+13
1.719456e+13
1.653982e+13
2.056475e+13
2.301059e+13
2.579643e+13
3.204276e+13
3.339781e+13
3.391925e+13
3.390646e+13
3.33648e+13
3.20039e+13
2.578791e+13
2.30073e+13
2.055836e+13
1.654164e+13
1.667416e+13
2.158707e+13
2.99801e+13
3.507771e+13
3.955666e+13
4.598062e+13
4.953588e+13
5.101246e+13
5.173258e+13
5.171633e+13
5.097131e+13
4.949686e+13
4.596751e+13
3.953953e+13
3.505122e+13
2.996908e+13
2.158801e+13
1.668402e+13
1.865331e+13
2.896254e+13
3.62469e+13
4.653194e+13
5.252767e+13
5.846843e+13
6.3793e+13
7.26449e+13
7.605544e+13
7.741721e+13
7.740313e+13
7.601835e+13
7.259993e+13
6.375535e+13
5.842642e+13
5.249173e+13
4.648642e+13
3.624123e+13
2.895531e+13
1.866545e+13
1.998648e+13
3.21723e+13
4.183807e+13
5.350312e+13
6.276056e+13
7.550607e+13
8.377903e+13
9.013436e+13
9.545157e+13
9.871794e+13
1.002261e+14
1.00215e+14
9.868807e+13
9.541168e+13
9.009565e+13
8.374741e+13
7.548244e+13
6.274016e+13
5.347102e+13
4.183125e+13
3.216271e+13
1.999036e+13
2.072863e+13
3.479278e+13
4.818678e+13
5.850735e+13
6.870749e+13
8.538721e+13
9.735989e+13
1.068172e+14
1.135353e+14
1.186346e+14
1.219444e+14
1.23552e+14
1.235446e+14
1.219245e+14
1.186079e+14
1.135073e+14
1.067905e+14
9.733852e+13
8.537845e+13
6.870155e+13
5.84856e+13
4.816698e+13
3.478001e+13
2.072502e+13
1.999219e+13
3.479783e+13
5.033121e+13
6.230253e+13
7.921427e+13
9.321152e+13
1.072201e+14
1.189187e+14
1.286436e+14
1.368466e+14
1.428789e+14
1.467329e+14
1.486115e+14
1.486082e+14
1.467254e+14
1.428724e+14
1.368449e+14
1.286468e+14
1.189223e+14
1.072225e+14
9.320555e+13
7.920621e+13
6.228957e+13
5.029616e+13
3.478402e+13
1.998725e+13
1.866313e+13
3.217714e+13
4.8207e+13
6.230645e+13
8.127575e+13
9.790984e+13
1.133727e+14
1.27056e+14
1.398711e+14
1.507513e+14
1.596952e+14
1.663189e+14
1.706192e+14
1.727244e+14
1.72724e+14
1.706207e+14
1.663243e+14
1.597069e+14
1.507691e+14
1.3989e+14
1.270717e+14
1.133812e+14
9.791258e+13
8.126768e+13
6.229275e+13
4.818365e+13
3.216694e+13
1.865703e+13
1.668223e+13
2.896904e+13
4.186528e+13
5.852373e+13
7.923439e+13
9.7925e+13
1.154942e+14
1.311291e+14
1.462855e+14
1.600661e+14
1.717e+14
1.811536e+14
1.882941e+14
1.929774e+14
1.952075e+14
1.952059e+14
1.929757e+14
1.882975e+14
1.811672e+14
1.71724e+14
1.60095e+14
1.463124e+14
1.311471e+14
1.154988e+14
9.791879e+13
7.921844e+13
5.850604e+13
4.185388e+13
2.895882e+13
1.667609e+13
2.159853e+13
3.627502e+13
5.351238e+13
6.875649e+13
9.324894e+13
1.134079e+14
1.311503e+14
1.48373e+14
1.645101e+14
1.788871e+14
1.911173e+14
2.010152e+14
2.085136e+14
2.135628e+14
2.161419e+14
2.161382e+14
2.135537e+14
2.085052e+14
2.010153e+14
1.911286e+14
1.789076e+14
1.645347e+14
1.48393e+14
1.3116e+14
1.134015e+14
9.323528e+13
6.873818e+13
5.350137e+13
3.626443e+13
2.159735e+13
1.655341e+13
2.998898e+13
4.653755e+13
6.279593e+13
8.545381e+13
1.072818e+14
1.271187e+14
1.463367e+14
1.645396e+14
1.812419e+14
1.960692e+14
2.087178e+14
2.190567e+14
2.271099e+14
2.326395e+14
2.35485e+14
2.354774e+14
2.326194e+14
2.270845e+14
2.190353e+14
2.087051e+14
1.96068e+14
1.812496e+14
1.645483e+14
1.463404e+14
1.271135e+14
1.072678e+14
8.543551e+13
6.275976e+13
4.653014e+13
2.998326e+13
1.656237e+13
2.056281e+13
3.508327e+13
5.254234e+13
7.557253e+13
9.743659e+13
1.190053e+14
1.399592e+14
1.601471e+14
1.789469e+14
1.961005e+14
2.11305e+14
2.245514e+14
2.354691e+14
2.438966e+14
2.496135e+14
2.5251e+14
2.524991e+14
2.495842e+14
2.43858e+14
2.354322e+14
2.245243e+14
2.112928e+14
1.961026e+14
1.789562e+14
1.601582e+14
1.399647e+14
1.189987e+14
9.742537e+13
7.55367e+13
5.251785e+13
3.507485e+13
2.05681e+13
2.302169e+13
3.958019e+13
5.851562e+13
8.386973e+13
1.069074e+14
1.287553e+14
1.508642e+14
1.718044e+14
1.912004e+14
2.087741e+14
2.245755e+14
2.383653e+14
2.4962e+14
2.581557e+14
2.638754e+14
2.667428e+14
2.667332e+14
2.638504e+14
2.581255e+14
2.495968e+14
2.383585e+14
2.245898e+14
2.088087e+14
1.912468e+14
1.718493e+14
1.508964e+14
1.287673e+14
1.069088e+14
8.383538e+13
5.847449e+13
3.955079e+13
2.300883e+13
2.581747e+13
4.604568e+13
6.388297e+13
9.024569e+13
1.136495e+14
1.369778e+14
1.598261e+14
1.812729e+14
2.01116e+14
2.191322e+14
2.355106e+14
2.496347e+14
2.610178e+14
2.695416e+14
2.752031e+14
2.780264e+14
2.780239e+14
2.751974e+14
2.695416e+14
2.610359e+14
2.496791e+14
2.355826e+14
2.192223e+14
2.012086e+14
1.813524e+14
1.598826e+14
1.370064e+14
1.136575e+14
9.021396e+13
6.382662e+13
4.597743e+13
2.578898e+13
1.722221e+13
3.2062e+13
4.960929e+13
7.275469e+13
9.558e+13
1.187725e+14
1.430278e+14
1.664617e+14
1.884238e+14
2.086315e+14
2.272074e+14
2.439607e+14
2.581891e+14
2.695565e+14
2.780156e+14
2.836129e+14
2.863996e+14
2.864028e+14
2.836246e+14
2.780453e+14
2.696108e+14
2.582656e+14
2.440495e+14
2.273014e+14
2.087237e+14
1.885039e+14
1.665155e+14
1.430494e+14
1.187705e+14
9.554341e+13
7.269041e+13
4.95401e+13
3.202568e+13
1.72017e+13
1.939336e+13
3.342299e+13
5.108236e+13
7.617096e+13
9.88589e+13
1.22103e+14
1.469007e+14
1.707772e+14
1.931238e+14
2.137057e+14
2.327684e+14
2.497112e+14
2.639387e+14
2.752425e+14
2.836315e+14
2.891742e+14
2.919318e+14
2.91934e+14
2.891834e+14
2.836515e+14
2.752774e+14
2.639906e+14
2.49777e+14
2.328436e+14
2.137848e+14
1.931966e+14
1.708217e+14
1.469074e+14
1.220845e+14
9.881719e+13
7.611164e+13
5.102578e+13
3.339012e+13
1.938708e+13
1.989117e+13
3.395455e+13
5.18032e+13
7.754154e+13
1.003819e+14
1.237286e+14
1.487969e+14
1.728999e+14
1.953722e+14
2.163092e+14
2.35649e+14
2.526484e+14
2.66844e+14
2.780937e+14
2.864362e+14
2.919483e+14
2.946929e+14
2.946989e+14
2.919675e+14
2.864675e+14
2.781349e+14
2.668963e+14
2.527121e+14
2.35723e+14
2.163919e+14
1.954488e+14
1.72944e+14
1.487994e+14
1.237028e+14
1.003385e+14
7.749165e+13
5.176766e+13
3.393366e+13
1.988631e+13
1.989194e+13
3.395842e+13
5.181253e+13
7.754452e+13
1.003851e+14
1.237337e+14
1.488056e+14
1.729145e+14
1.953891e+14
2.163238e+14
2.356655e+14
2.526741e+14
2.668741e+14
2.781106e+14
2.864389e+14
2.919437e+14
2.9469e+14
2.947039e+14
2.919824e+14
2.86491e+14
2.781637e+14
2.669267e+14
2.52741e+14
2.357489e+14
2.164151e+14
1.954711e+14
1.72967e+14
1.488208e+14
1.23721e+14
1.003558e+14
7.750749e+13
5.178155e+13
3.394391e+13
1.989306e+13
1.940437e+13
3.342999e+13
5.108483e+13
7.617118e+13
9.886547e+13
1.221164e+14
1.46923e+14
1.708174e+14
1.931721e+14
2.137524e+14
2.328202e+14
2.497721e+14
2.640014e+14
2.752908e+14
2.836564e+14
2.89179e+14
2.919309e+14
2.919432e+14
2.892123e+14
2.837016e+14
2.75344e+14
2.640655e+14
2.498515e+14
2.32911e+14
2.138437e+14
1.932521e+14
1.708771e+14
1.469569e+14
1.221271e+14
9.886495e+13
7.616201e+13
5.107322e+13
3.342627e+13
1.940713e+13
1.723768e+13
3.205226e+13
4.959309e+13
7.274724e+13
9.55848e+13
1.187912e+14
1.430565e+14
1.665125e+14
1.884906e+14
2.087051e+14
2.272861e+14
2.440439e+14
2.582676e+14
2.696181e+14
2.780539e+14
2.836313e+14
2.864096e+14
2.864165e+14
2.83653e+14
2.780906e+14
2.696717e+14
2.583391e+14
2.441305e+14
2.273791e+14
2.087919e+14
1.885644e+14
1.665732e+14
1.431009e+14
1.188166e+14
9.560779e+13
7.276373e+13
4.960566e+13
3.20633e+13
1.724179e+13
2.581822e+13
4.601443e+13
6.387559e+13
9.024991e+13
1.136727e+14
1.370057e+14
1.598735e+14
1.813369e+14
2.011946e+14
2.192192e+14
2.355987e+14
2.497131e+14
2.6108e+14
2.69588e+14
2.752414e+14
2.780661e+14
2.78075e+14
2.752691e+14
2.696354e+14
2.611476e+14
2.497983e+14
2.356945e+14
2.193169e+14
2.012852e+14
1.814153e+14
1.599377e+14
1.370571e+14
1.137034e+14
9.028501e+13
6.390194e+13
4.604579e+13
2.582608e+13
2.302259e+13
3.957959e+13
5.851557e+13
8.386849e+13
1.06931e+14
1.287781e+14
1.509037e+14
1.718552e+14
1.912657e+14
2.088488e+14
2.246504e+14
2.384346e+14
2.496845e+14
2.582208e+14
2.639491e+14
2.668322e+14
2.668473e+14
2.639943e+14
2.582942e+14
2.49782e+14
2.385485e+14
2.247693e+14
2.089625e+14
1.913702e+14
1.719452e+14
1.509757e+14
1.288391e+14
1.069654e+14
8.391059e+13
5.85394e+13
3.959214e+13
2.302449e+13
2.057907e+13
3.510159e+13
5.256155e+13
7.557077e+13
9.745281e+13
1.190287e+14
1.399947e+14
1.601878e+14
1.789979e+14
1.961618e+14
2.113732e+14
2.246293e+14
2.355621e+14
2.4401e+14
2.497517e+14
2.526742e+14
2.526938e+14
2.498093e+14
2.44102e+14
2.356828e+14
2.247685e+14
2.11517e+14
1.962964e+14
1.791184e+14
1.602889e+14
1.400741e+14
1.190971e+14
9.74979e+13
7.561734e+13
5.256936e+13
3.509985e+13
2.057269e+13
1.656786e+13
3.000298e+13
4.657458e+13
6.279561e+13
8.545691e+13
1.073022e+14
1.2715e+14
1.463747e+14
1.64589e+14
1.813091e+14
1.961584e+14
2.088344e+14
2.192062e+14
2.272926e+14
2.328543e+14
2.357273e+14
2.357462e+14
2.329093e+14
2.273799e+14
2.193218e+14
2.089707e+14
1.963024e+14
1.814484e+14
1.647156e+14
1.464809e+14
1.27234e+14
1.073774e+14
8.551222e+13
6.28421e+13
4.655786e+13
3.000607e+13
1.656265e+13
2.160642e+13
3.628051e+13
5.353786e+13
6.874684e+13
9.327276e+13
1.134403e+14
1.311969e+14
1.484395e+14
1.646046e+14
1.790141e+14
1.912803e+14
2.012177e+14
2.087525e+14
2.138328e+14
2.16435e+14
2.164499e+14
2.138752e+14
2.088193e+14
2.013073e+14
1.913882e+14
1.791309e+14
1.647223e+14
1.485521e+14
1.312974e+14
1.135261e+14
9.334123e+13
6.88037e+13
5.355773e+13
3.628849e+13
2.16071e+13
1.668268e+13
2.898351e+13
4.188126e+13
5.856446e+13
7.927739e+13
9.797208e+13
1.155579e+14
1.312175e+14
1.464078e+14
1.602247e+14
1.718954e+14
1.813854e+14
1.885597e+14
1.932712e+14
1.955193e+14
1.955292e+14
1.933004e+14
1.886067e+14
1.814493e+14
1.71973e+14
1.603111e+14
1.46498e+14
1.313058e+14
1.156362e+14
9.803339e+13
7.931679e+13
5.858154e+13
4.188837e+13
2.898912e+13
1.669266e+13
1.866345e+13
3.220202e+13
4.82451e+13
6.234106e+13
8.132169e+13
9.79811e+13
1.134731e+14
1.271897e+14
1.400349e+14
1.509512e+14
1.599301e+14
1.665838e+14
1.709079e+14
1.73026e+14
1.730324e+14
1.709291e+14
1.666185e+14
1.599777e+14
1.510121e+14
1.401055e+14
1.272604e+14
1.135387e+14
9.803994e+13
8.136764e+13
6.237334e+13
4.824336e+13
3.220266e+13
1.86722e+13
1.999623e+13
3.481377e+13
5.037971e+13
6.233599e+13
7.928824e+13
9.330301e+13
1.073384e+14
1.190628e+14
1.288221e+14
1.37055e+14
1.431126e+14
1.469887e+14
1.488815e+14
1.488849e+14
1.47007e+14
1.431452e+14
1.37099e+14
1.28876e+14
1.191237e+14
1.073928e+14
9.334617e+13
7.932768e+13
6.23661e+13
5.03934e+13
3.482143e+13
1.999907e+13
2.073203e+13
3.481228e+13
4.825231e+13
5.857624e+13
6.879021e+13
8.549529e+13
9.748374e+13
1.069611e+14
1.137054e+14
1.188279e+14
1.221616e+14
1.23793e+14
1.237917e+14
1.22176e+14
1.188557e+14
1.137433e+14
1.070089e+14
9.752712e+13
8.552496e+13
6.879846e+13
5.859697e+13
4.82693e+13
3.482369e+13
2.073605e+13
1.998989e+13
3.219155e+13
4.189609e+13
5.355481e+13
6.280974e+13
7.559471e+13
8.389805e+13
9.028421e+13
9.56222e+13
9.890571e+13
1.004251e+14
1.004194e+14
9.890552e+13
9.562698e+13
9.029494e+13
8.392246e+13
7.562753e+13