/*--------------------------------*- C++ -*----------------------------------*\
  =========                 |
  \\      /  F ield         | OpenFOAM: The Open Source CFD Toolbox
   \\    /   O peration     | Website:  https://openfoam.org
    \\  /    A nd           | Version:  6
     \\/     M anipulation  |
\*---------------------------------------------------------------------------*/
FoamFile
{
    version     2.0;
    format      ascii;
    class       volScalarField;
    location    "50/region0/neutronTransport";
    object      precursor0.dnp;
}
// * * * * * * * * * * * * * * * * * * * * * * * * * * * * * * * * * * * * * //

dimensions      [0 -3 0 0 0 0 0];

internalField   nonuniform List<scalar> 
203709
(
1.590415e+16
1.7213e+16
1.771133e+16
1.684436e+16
1.387377e+16
1.498323e+16
1.681238e+16
1.747957e+16
1.7806e+16
1.8074e+16
1.824478e+16
1.6402e+16
1.3638e+16
1.43188e+16
1.474392e+16
1.497959e+16
1.605692e+16
1.710652e+16
1.744857e+16
1.687685e+16
1.70933e+16
1.67026e+16
1.590065e+16
1.430541e+16
1.643042e+16
1.584063e+16
1.673868e+16
1.681359e+16
1.697137e+16
1.745559e+16
1.756999e+16
1.672575e+16
1.703015e+16
1.842314e+16
1.746397e+16
1.696834e+16
1.6636e+16
1.57168e+16
1.887688e+16
1.884405e+16
1.949048e+16
1.962935e+16
1.956875e+16
1.947857e+16
1.922777e+16
1.876025e+16
1.83723e+16
1.746481e+16
1.648964e+16
1.667402e+16
1.532767e+16
1.506348e+16
1.860639e+16
1.887017e+16
1.819578e+16
1.78277e+16
1.749389e+16
1.745696e+16
1.811114e+16
1.815583e+16
1.787218e+16
1.746747e+16
1.686763e+16
1.606177e+16
1.537937e+16
1.459092e+16
1.524054e+16
1.443265e+16
1.857046e+16
1.866137e+16
1.692282e+16
1.385455e+16
1.100597e+16
1.66911e+16
1.822961e+16
1.881215e+16
1.868694e+16
1.80275e+16
1.7276e+16
1.643076e+16
1.58111e+16
1.523794e+16
1.492484e+16
1.475809e+16
1.767469e+16
1.791018e+16
1.83826e+16
1.755263e+16
1.55259e+16
1.524439e+16
1.679528e+16
1.812234e+16
1.85873e+16
1.856937e+16
1.816535e+16
1.76067e+16
1.685977e+16
1.625137e+16
1.565796e+16
1.521365e+16
1.475828e+16
1.506154e+16
1.748974e+16
1.767248e+16
1.808855e+16
1.806792e+16
1.781125e+16
1.842968e+16
1.876787e+16
1.899315e+16
1.878248e+16
1.845396e+16
1.776882e+16
1.718973e+16
1.643801e+16
1.589951e+16
1.542372e+16
1.503497e+16
1.482647e+16
1.493272e+16
1.746579e+16
1.758338e+16
1.787916e+16
1.809545e+16
1.830294e+16
1.863911e+16
1.864789e+16
1.8656e+16
1.82681e+16
1.779152e+16
1.708148e+16
1.645881e+16
1.576055e+16
1.528715e+16
1.491646e+16
1.463694e+16
1.457393e+16
1.48732e+16
1.790855e+16
1.758636e+16
1.778443e+16
1.798304e+16
1.816639e+16
1.834122e+16
1.828401e+16
1.801536e+16
1.756508e+16
1.695068e+16
1.622134e+16
1.555129e+16
1.498708e+16
1.461229e+16
1.436294e+16
1.418604e+16
1.439767e+16
1.499142e+16
1.746624e+16
1.76066e+16
1.778914e+16
1.789209e+16
1.78392e+16
1.760822e+16
1.711823e+16
1.644569e+16
1.575103e+16
1.511075e+16
1.456975e+16
1.419387e+16
1.399126e+16
1.388388e+16
1.384762e+16
1.432351e+16
1.715392e+16
1.717002e+16
1.72366e+16
1.715481e+16
1.690371e+16
1.645683e+16
1.585164e+16
1.51957e+16
1.456323e+16
1.405745e+16
1.371038e+16
1.355214e+16
1.353905e+16
1.350881e+16
1.372106e+16
1.447493e+16
1.65555e+16
1.648513e+16
1.610268e+16
1.556714e+16
1.494831e+16
1.429087e+16
1.377483e+16
1.333754e+16
1.316589e+16
1.309769e+16
1.318297e+16
1.335537e+16
1.336141e+16
1.377475e+16
1.46886e+16
1.495696e+16
1.433042e+16
1.374539e+16
1.324517e+16
1.290022e+16
1.275977e+16
1.266596e+16
1.275945e+16
1.290113e+16
1.316324e+16
1.344982e+16
1.343037e+16
1.382844e+16
1.215687e+16
1.199157e+16
1.22796e+16
1.211998e+16
1.223371e+16
1.235803e+16
1.248784e+16
1.276512e+16
1.305942e+16
1.33432e+16
1.347485e+16
1.300117e+16
1.132176e+16
1.147147e+16
1.225256e+16
1.246082e+16
1.271225e+16
1.290526e+16
1.308678e+16
1.264976e+16
1.152309e+16
1.216216e+16
1.251691e+16
1.209382e+16
1.655586e+16
1.670948e+16
1.705892e+16
1.760936e+16
1.825647e+16
1.871294e+16
1.890598e+16
1.893259e+16
1.892029e+16
1.755531e+16
1.617547e+16
1.630296e+16
1.678381e+16
1.684747e+16
1.713584e+16
1.764062e+16
1.823161e+16
1.868451e+16
1.895103e+16
1.901941e+16
1.908405e+16
1.861788e+16
1.781688e+16
1.578244e+16
1.589182e+16
1.665288e+16
1.649991e+16
1.673938e+16
1.680978e+16
1.704435e+16
1.74925e+16
1.801026e+16
1.839417e+16
1.875454e+16
1.892188e+16
1.912546e+16
1.880482e+16
1.841062e+16
1.755574e+16
1.569906e+16
1.543069e+16
1.674135e+16
1.680086e+16
1.637655e+16
1.649313e+16
1.679196e+16
1.6856e+16
1.757176e+16
1.834365e+16
1.877131e+16
1.915167e+16
1.863347e+16
1.885855e+16
1.873444e+16
1.855343e+16
1.786177e+16
1.713652e+16
1.647281e+16
1.547868e+16
1.659572e+16
1.687505e+16
1.644115e+16
1.602113e+16
1.612887e+16
1.720693e+16
1.745128e+16
1.76415e+16
1.819988e+16
1.859093e+16
1.918571e+16
1.932973e+16
1.957034e+16
1.853685e+16
1.845867e+16
1.804152e+16
1.750187e+16
1.73378e+16
1.704906e+16
1.610367e+16
1.679435e+16
1.678388e+16
1.637033e+16
1.653158e+16
1.651065e+16
1.650613e+16
1.717716e+16
1.707773e+16
1.707287e+16
1.775297e+16
1.814331e+16
1.821744e+16
1.842283e+16
1.899517e+16
1.922257e+16
1.868374e+16
1.808178e+16
1.763261e+16
1.73381e+16
1.723144e+16
1.727659e+16
1.620361e+16
1.702526e+16
1.669505e+16
1.657726e+16
1.684688e+16
1.651453e+16
1.707828e+16
1.743929e+16
1.774854e+16
1.806511e+16
1.847225e+16
1.80387e+16
1.826926e+16
1.899966e+16
1.858751e+16
1.829902e+16
1.777138e+16
1.748858e+16
1.715295e+16
1.667475e+16
1.606161e+16
1.608604e+16
1.654094e+16
1.732645e+16
1.724695e+16
1.694829e+16
1.702778e+16
1.77335e+16
1.777678e+16
1.844113e+16
1.864457e+16
1.859817e+16
1.829743e+16
1.813896e+16
1.793671e+16
1.814376e+16
1.763753e+16
1.754708e+16
1.834391e+16
1.726408e+16
1.632813e+16
1.531307e+16
1.469464e+16
1.42116e+16
1.421144e+16
1.392204e+16
1.674659e+16
1.749146e+16
1.724524e+16
1.723962e+16
1.721537e+16
1.763525e+16
1.723004e+16
1.70331e+16
1.623739e+16
1.567249e+16
1.592984e+16
1.590424e+16
1.577924e+16
1.565242e+16
1.533555e+16
1.49989e+16
1.447096e+16
1.376479e+16
1.434782e+16
1.354287e+16
1.36636e+16
1.34778e+16
1.336591e+16
1.38192e+16
1.686589e+16
1.738229e+16
1.739561e+16
1.721151e+16
1.698743e+16
1.707136e+16
1.564515e+16
1.409004e+16
1.255723e+16
1.467752e+16
1.563924e+16
1.584769e+16
1.56516e+16
1.521956e+16
1.467556e+16
1.412832e+16
1.380208e+16
1.352925e+16
1.346498e+16
1.348402e+16
1.375267e+16
1.345475e+16
1.337922e+16
1.390209e+16
1.696879e+16
1.735385e+16
1.744926e+16
1.700296e+16
1.716668e+16
1.694895e+16
1.55008e+16
1.366445e+16
1.283126e+16
1.416001e+16
1.518211e+16
1.557552e+16
1.552593e+16
1.522455e+16
1.480746e+16
1.437009e+16
1.397924e+16
1.367096e+16
1.359984e+16
1.366043e+16
1.385225e+16
1.351778e+16
1.337621e+16
1.388739e+16
1.70037e+16
1.732246e+16
1.747896e+16
1.701769e+16
1.713727e+16
1.69994e+16
1.612077e+16
1.522573e+16
1.528043e+16
1.557128e+16
1.570576e+16
1.563742e+16
1.536459e+16
1.493878e+16
1.445352e+16
1.400179e+16
1.364392e+16
1.340251e+16
1.327753e+16
1.335216e+16
1.361362e+16
1.347023e+16
1.340244e+16
1.382257e+16
1.692388e+16
1.725593e+16
1.74267e+16
1.707169e+16
1.708438e+16
1.699471e+16
1.653146e+16
1.609059e+16
1.595186e+16
1.593045e+16
1.582525e+16
1.55648e+16
1.514085e+16
1.461369e+16
1.407923e+16
1.362747e+16
1.330843e+16
1.312963e+16
1.305605e+16
1.318083e+16
1.345367e+16
1.339392e+16
1.338309e+16
1.375557e+16
1.666396e+16
1.708156e+16
1.726544e+16
1.711876e+16
1.701435e+16
1.696789e+16
1.67034e+16
1.644244e+16
1.626724e+16
1.607204e+16
1.57693e+16
1.532222e+16
1.475908e+16
1.416942e+16
1.365215e+16
1.327848e+16
1.306671e+16
1.298631e+16
1.297035e+16
1.324526e+16
1.329959e+16
1.334171e+16
1.338041e+16
1.375629e+16
1.628784e+16
1.678996e+16
1.703376e+16
1.711177e+16
1.700098e+16
1.686548e+16
1.667379e+16
1.645321e+16
1.621372e+16
1.587824e+16
1.540378e+16
1.480821e+16
1.417446e+16
1.362129e+16
1.322856e+16
1.30312e+16
1.299366e+16
1.302079e+16
1.308246e+16
1.341729e+16
1.338053e+16
1.345701e+16
1.345373e+16
1.380316e+16
1.573063e+16
1.630659e+16
1.661174e+16
1.676856e+16
1.678387e+16
1.67326e+16
1.658538e+16
1.633076e+16
1.593595e+16
1.538582e+16
1.472075e+16
1.404097e+16
1.346925e+16
1.310848e+16
1.295668e+16
1.300649e+16
1.31451e+16
1.322274e+16
1.343162e+16
1.357374e+16
1.349668e+16
1.350354e+16
1.349659e+16
1.384725e+16
1.446356e+16
1.544282e+16
1.581182e+16
1.618772e+16
1.608881e+16
1.625464e+16
1.60198e+16
1.55776e+16
1.499265e+16
1.430577e+16
1.36444e+16
1.312847e+16
1.284899e+16
1.284577e+16
1.298015e+16
1.326638e+16
1.347564e+16
1.352081e+16
1.379719e+16
1.367493e+16
1.363271e+16
1.352773e+16
1.363288e+16
1.404007e+16
1.461087e+16
1.500915e+16
1.527403e+16
1.543701e+16
1.497755e+16
1.477243e+16
1.410802e+16
1.349844e+16
1.298532e+16
1.265152e+16
1.253699e+16
1.266748e+16
1.303001e+16
1.331678e+16
1.37477e+16
1.386603e+16
1.400832e+16
1.414797e+16
1.369e+16
1.364389e+16
1.343975e+16
1.347996e+16
1.255917e+16
1.35643e+16
1.352212e+16
1.328445e+16
1.287785e+16
1.258149e+16
1.233655e+16
1.23237e+16
1.221882e+16
1.231147e+16
1.256504e+16
1.297257e+16
1.354401e+16
1.374106e+16
1.431822e+16
1.420281e+16
1.424583e+16
1.386056e+16
1.369292e+16
1.367265e+16
1.350516e+16
1.344396e+16
1.096212e+16
1.195289e+16
1.180713e+16
1.18435e+16
1.170895e+16
1.178634e+16
1.201233e+16
1.22473e+16
1.261438e+16
1.2969e+16
1.342141e+16
1.409626e+16
1.403502e+16
1.45122e+16
1.393842e+16
1.370583e+16
1.384111e+16
1.37667e+16
1.36451e+16
1.28626e+16
1.028346e+16
1.149612e+16
1.172082e+16
1.157372e+16
1.184192e+16
1.196275e+16
1.218457e+16
1.26657e+16
1.325679e+16
1.364523e+16
1.421792e+16
1.373589e+16
1.398965e+16
1.401347e+16
1.374658e+16
1.389448e+16
1.365603e+16
1.292263e+16
1.00174e+16
1.169333e+16
1.150466e+16
1.192091e+16
1.20846e+16
1.235982e+16
1.264656e+16
1.3051e+16
1.335624e+16
1.373664e+16
1.38345e+16
1.409204e+16
1.405563e+16
1.364275e+16
1.372491e+16
1.310615e+16
1.054151e+16
1.109159e+16
1.200707e+16
1.219329e+16
1.241067e+16
1.273426e+16
1.315615e+16
1.35143e+16
1.377351e+16
1.388078e+16
1.397333e+16
1.393583e+16
1.346772e+16
1.349976e+16
1.089334e+16
1.189789e+16
1.212585e+16
1.242379e+16
1.27917e+16
1.31284e+16
1.341105e+16
1.360003e+16
1.375912e+16
1.369177e+16
1.795885e+16
1.758941e+16
1.809759e+16
1.871377e+16
1.918851e+16
1.939954e+16
1.948812e+16
1.990271e+16
1.755136e+16
1.697132e+16
1.706837e+16
1.708177e+16
1.737907e+16
1.788014e+16
1.847076e+16
1.892889e+16
1.915212e+16
1.925859e+16
1.92545e+16
1.883831e+16
1.858316e+16
1.801301e+16
1.742323e+16
1.680238e+16
1.680551e+16
1.697303e+16
1.689704e+16
1.721311e+16
1.769627e+16
1.827854e+16
1.871792e+16
1.892677e+16
1.903327e+16
1.906233e+16
1.884332e+16
1.839416e+16
1.777649e+16
1.585306e+16
1.736399e+16
1.706594e+16
1.720404e+16
1.671852e+16
1.654373e+16
1.685681e+16
1.694275e+16
1.725324e+16
1.76778e+16
1.823131e+16
1.865582e+16
1.889141e+16
1.906844e+16
1.916238e+16
1.884171e+16
1.783192e+16
1.758914e+16
1.624852e+16
1.480087e+16
1.388127e+16
1.699825e+16
1.719307e+16
1.709714e+16
1.699051e+16
1.675588e+16
1.676262e+16
1.683283e+16
1.676681e+16
1.703341e+16
1.741447e+16
1.794823e+16
1.835739e+16
1.859566e+16
1.879208e+16
1.89701e+16
1.89651e+16
1.836411e+16
1.796475e+16
1.582298e+16
1.518505e+16
1.519902e+16
1.238483e+16
1.718159e+16
1.728008e+16
1.717805e+16
1.692103e+16
1.716431e+16
1.67955e+16
1.664431e+16
1.664206e+16
1.664485e+16
1.689403e+16
1.722881e+16
1.773243e+16
1.813678e+16
1.839122e+16
1.861268e+16
1.882904e+16
1.879507e+16
1.843283e+16
1.830191e+16
1.718339e+16
1.460752e+16
1.471954e+16
1.337803e+16
1.12861e+16
1.694115e+16
1.728996e+16
1.700427e+16
1.71947e+16
1.729819e+16
1.668008e+16
1.663235e+16
1.661178e+16
1.660402e+16
1.674955e+16
1.692574e+16
1.73856e+16
1.777708e+16
1.807368e+16
1.837604e+16
1.866474e+16
1.869483e+16
1.848905e+16
1.833018e+16
1.767059e+16
1.668711e+16
1.529387e+16
1.408914e+16
1.276605e+16
1.671242e+16
1.738434e+16
1.715639e+16
1.733651e+16
1.739602e+16
1.71817e+16
1.676476e+16
1.667228e+16
1.655188e+16
1.628315e+16
1.644156e+16
1.660976e+16
1.703265e+16
1.743726e+16
1.773101e+16
1.804378e+16
1.844549e+16
1.855663e+16
1.85082e+16
1.840554e+16
1.7921e+16
1.724455e+16
1.716576e+16
1.663208e+16
1.595149e+16
1.450625e+16
1.710487e+16
1.732321e+16
1.734096e+16
1.765471e+16
1.754927e+16
1.71841e+16
1.722421e+16
1.680945e+16
1.649087e+16
1.639225e+16
1.615049e+16
1.617421e+16
1.625902e+16
1.677069e+16
1.716259e+16
1.724097e+16
1.753735e+16
1.791376e+16
1.81794e+16
1.833613e+16
1.832106e+16
1.809018e+16
1.764767e+16
1.718399e+16
1.713873e+16
1.680068e+16
1.63137e+16
1.602883e+16
1.716855e+16
1.745682e+16
1.727843e+16
1.779518e+16
1.736334e+16
1.723758e+16
1.731352e+16
1.69597e+16
1.677255e+16
1.687162e+16
1.691361e+16
1.7101e+16
1.7346e+16
1.771424e+16
1.751591e+16
1.758135e+16
1.80599e+16
1.785942e+16
1.774933e+16
1.755663e+16
1.759725e+16
1.754874e+16
1.725902e+16
1.658572e+16
1.626876e+16
1.555067e+16
1.512513e+16
1.510591e+16
1.716437e+16
1.73408e+16
1.754916e+16
1.790732e+16
1.725164e+16
1.743586e+16
1.7551e+16
1.760848e+16
1.79081e+16
1.83322e+16
1.853505e+16
1.856853e+16
1.833598e+16
1.810933e+16
1.785847e+16
1.793764e+16
1.759081e+16
1.766705e+16
1.82811e+16
1.776177e+16
1.708158e+16
1.628403e+16
1.553681e+16
1.477969e+16
1.432433e+16
1.388944e+16
1.367451e+16
1.385446e+16
1.700325e+16
1.7584e+16
1.744721e+16
1.763498e+16
1.7662e+16
1.720364e+16
1.749104e+16
1.754304e+16
1.775335e+16
1.763865e+16
1.72723e+16
1.64757e+16
1.582904e+16
1.587316e+16
1.592135e+16
1.586042e+16
1.577011e+16
1.549067e+16
1.512522e+16
1.451438e+16
1.394544e+16
1.405961e+16
1.378023e+16
1.376106e+16
1.357151e+16
1.336575e+16
1.339344e+16
1.331267e+16
1.348585e+16
1.355939e+16
1.693763e+16
1.740767e+16
1.73799e+16
1.759299e+16
1.751291e+16
1.716141e+16
1.732703e+16
1.740736e+16
1.743394e+16
1.643047e+16
1.497135e+16
1.37067e+16
1.466813e+16
1.574735e+16
1.59606e+16
1.58056e+16
1.541127e+16
1.488526e+16
1.435281e+16
1.403701e+16
1.373309e+16
1.35727e+16
1.344514e+16
1.357526e+16
1.342359e+16
1.325291e+16
1.331577e+16
1.332224e+16
1.334062e+16
1.383741e+16
1.685467e+16
1.726729e+16
1.726243e+16
1.747362e+16
1.737891e+16
1.713066e+16
1.71773e+16
1.736613e+16
1.735427e+16
1.626942e+16
1.418258e+16
1.262781e+16
1.430605e+16
1.558812e+16
1.605861e+16
1.60511e+16
1.576919e+16
1.534296e+16
1.487622e+16
1.444041e+16
1.405829e+16
1.380268e+16
1.359822e+16
1.361926e+16
1.350337e+16
1.330928e+16
1.338336e+16
1.344924e+16
1.353455e+16
1.409867e+16
1.663799e+16
1.704498e+16
1.709141e+16
1.730164e+16
1.722722e+16
1.707344e+16
1.709423e+16
1.725763e+16
1.734679e+16
1.676875e+16
1.56981e+16
1.571734e+16
1.612862e+16
1.639352e+16
1.639687e+16
1.615934e+16
1.573659e+16
1.523388e+16
1.473393e+16
1.431074e+16
1.397811e+16
1.37289e+16
1.360429e+16
1.360881e+16
1.355487e+16
1.339351e+16
1.349478e+16
1.355453e+16
1.36761e+16
1.424579e+16
1.629353e+16
1.671786e+16
1.682896e+16
1.706483e+16
1.703627e+16
1.696224e+16
1.700537e+16
1.713559e+16
1.72679e+16
1.711185e+16
1.679671e+16
1.682207e+16
1.688635e+16
1.680183e+16
1.652165e+16
1.6075e+16
1.55213e+16
1.495923e+16
1.446311e+16
1.40859e+16
1.382185e+16
1.364172e+16
1.357542e+16
1.361914e+16
1.360009e+16
1.346305e+16
1.360431e+16
1.363979e+16
1.379323e+16
1.429655e+16
1.588008e+16
1.627852e+16
1.643475e+16
1.67199e+16
1.676019e+16
1.676182e+16
1.683834e+16
1.697354e+16
1.710558e+16
1.713076e+16
1.71094e+16
1.708327e+16
1.695241e+16
1.664649e+16
1.61751e+16
1.559471e+16
1.499142e+16
1.445979e+16
1.406115e+16
1.381e+16
1.366343e+16
1.357626e+16
1.361086e+16
1.36797e+16
1.366506e+16
1.352954e+16
1.371573e+16
1.371808e+16
1.388505e+16
1.433027e+16
1.550593e+16
1.582256e+16
1.59848e+16
1.630624e+16
1.639696e+16
1.645998e+16
1.654595e+16
1.668871e+16
1.680633e+16
1.68578e+16
1.685656e+16
1.673193e+16
1.643647e+16
1.596529e+16
1.537586e+16
1.476725e+16
1.424145e+16
1.38669e+16
1.366532e+16
1.359974e+16
1.357787e+16
1.357695e+16
1.367895e+16
1.371655e+16
1.371801e+16
1.359331e+16
1.384176e+16
1.380031e+16
1.399666e+16
1.437507e+16
1.488667e+16
1.513977e+16
1.534876e+16
1.569521e+16
1.584412e+16
1.599095e+16
1.610837e+16
1.624085e+16
1.633978e+16
1.638743e+16
1.624065e+16
1.591549e+16
1.543396e+16
1.485942e+16
1.428852e+16
1.381884e+16
1.352208e+16
1.340949e+16
1.344923e+16
1.354992e+16
1.358725e+16
1.365565e+16
1.377109e+16
1.382227e+16
1.376532e+16
1.369316e+16
1.400448e+16
1.388003e+16
1.422897e+16
1.438677e+16
1.449213e+16
1.474987e+16
1.51645e+16
1.531874e+16
1.536261e+16
1.542952e+16
1.547719e+16
1.553695e+16
1.536891e+16
1.499089e+16
1.450999e+16
1.400928e+16
1.356156e+16
1.323713e+16
1.308141e+16
1.31062e+16
1.325779e+16
1.347233e+16
1.362103e+16
1.361907e+16
1.370869e+16
1.375799e+16
1.385985e+16
1.376369e+16
1.399992e+16
1.422559e+16
1.40206e+16
1.43388e+16
1.420208e+16
1.423576e+16
1.39032e+16
1.439995e+16
1.446705e+16
1.455825e+16
1.452459e+16
1.425642e+16
1.385328e+16
1.340931e+16
1.30495e+16
1.280046e+16
1.268245e+16
1.269905e+16
1.285291e+16
1.310277e+16
1.33754e+16
1.361438e+16
1.368418e+16
1.364933e+16
1.370589e+16
1.37759e+16
1.38644e+16
1.377803e+16
1.419101e+16
1.411157e+16
1.428417e+16
1.46864e+16
1.343464e+16
1.369772e+16
1.344934e+16
1.345617e+16
1.352616e+16
1.326275e+16
1.302123e+16
1.276299e+16
1.253344e+16
1.240684e+16
1.237209e+16
1.239391e+16
1.249925e+16
1.270128e+16
1.299531e+16
1.328679e+16
1.354746e+16
1.373435e+16
1.37242e+16
1.368481e+16
1.360853e+16
1.373488e+16
1.385772e+16
1.404355e+16
1.440837e+16
1.426578e+16
1.468387e+16
1.461365e+16
1.21406e+16
1.290273e+16
1.255726e+16
1.262478e+16
1.2597e+16
1.242152e+16
1.242148e+16
1.242483e+16
1.244577e+16
1.245109e+16
1.254779e+16
1.26754e+16
1.291033e+16
1.321868e+16
1.346812e+16
1.372836e+16
1.386179e+16
1.382637e+16
1.377175e+16
1.357853e+16
1.37282e+16
1.396368e+16
1.394595e+16
1.393901e+16
1.462463e+16
1.44187e+16
1.193873e+16
1.229059e+16
1.209957e+16
1.223089e+16
1.245747e+16
1.248252e+16
1.247144e+16
1.25401e+16
1.262746e+16
1.275775e+16
1.285981e+16
1.316416e+16
1.347939e+16
1.370275e+16
1.39538e+16
1.404597e+16
1.389941e+16
1.377823e+16
1.354668e+16
1.383111e+16
1.38381e+16
1.354835e+16
1.413627e+16
1.461712e+16
1.151881e+16
1.216431e+16
1.222296e+16
1.181941e+16
1.225442e+16
1.253205e+16
1.242518e+16
1.252807e+16
1.265398e+16
1.284081e+16
1.307063e+16
1.34346e+16
1.375278e+16
1.39583e+16
1.405194e+16
1.405421e+16
1.391466e+16
1.37748e+16
1.363598e+16
1.378268e+16
1.354405e+16
1.373224e+16
1.427159e+16
1.454548e+16
1.100539e+16
1.204688e+16
1.189289e+16
1.186701e+16
1.228295e+16
1.239767e+16
1.257271e+16
1.265161e+16
1.284365e+16
1.309551e+16
1.34811e+16
1.378839e+16
1.396804e+16
1.404336e+16
1.406412e+16
1.403504e+16
1.385135e+16
1.366115e+16
1.36358e+16
1.369298e+16
1.381658e+16
1.423933e+16
1.115293e+16
1.146703e+16
1.19064e+16
1.195993e+16
1.180536e+16
1.237306e+16
1.265898e+16
1.288243e+16
1.316146e+16
1.353781e+16
1.38348e+16
1.402092e+16
1.410706e+16
1.413727e+16
1.402509e+16
1.370514e+16
1.364403e+16
1.382793e+16
1.384169e+16
1.423315e+16
1.129155e+16
1.200156e+16
1.200359e+16
1.218172e+16
1.228831e+16
1.252318e+16
1.280788e+16
1.317344e+16
1.349807e+16
1.372566e+16
1.386087e+16
1.399598e+16
1.406999e+16
1.391114e+16
1.375445e+16
1.448617e+16
1.173303e+16
1.199128e+16
1.211664e+16
1.240367e+16
1.264385e+16
1.291908e+16
1.330167e+16
1.362482e+16
1.383257e+16
1.393746e+16
1.405636e+16
1.42069e+16
1.414001e+16
1.477827e+16
1.259952e+16
1.263936e+16
1.287658e+16
1.32602e+16
1.359677e+16
1.385775e+16
1.403827e+16
1.493916e+16
1.904317e+16
1.809422e+16
1.872433e+16
1.931565e+16
1.971365e+16
2.118572e+16
1.828672e+16
1.743286e+16
1.731377e+16
1.726626e+16
1.740067e+16
1.76149e+16
1.823586e+16
1.876212e+16
1.900898e+16
1.922356e+16
1.966022e+16
1.971433e+16
1.978393e+16
2.011288e+16
1.842266e+16
1.746325e+16
1.689068e+16
1.687972e+16
1.689421e+16
1.672524e+16
1.707904e+16
1.729393e+16
1.787382e+16
1.835517e+16
1.862177e+16
1.892393e+16
1.909512e+16
1.905297e+16
1.900738e+16
1.870093e+16
1.854126e+16
1.858647e+16
1.824475e+16
1.746061e+16
1.713157e+16
1.651977e+16
1.651935e+16
1.666448e+16
1.655215e+16
1.690956e+16
1.71768e+16
1.773848e+16
1.817349e+16
1.842334e+16
1.865971e+16
1.886689e+16
1.883271e+16
1.861368e+16
1.822739e+16
1.762159e+16
1.711288e+16
1.700969e+16
1.786203e+16
1.737698e+16
1.706767e+16
1.686871e+16
1.641666e+16
1.629937e+16
1.646086e+16
1.636601e+16
1.677219e+16
1.707806e+16
1.763634e+16
1.802139e+16
1.822598e+16
1.839323e+16
1.847774e+16
1.838578e+16
1.811011e+16
1.777139e+16
1.692153e+16
1.593459e+16
1.529586e+16
1.459497e+16
1.76224e+16
1.727133e+16
1.7027e+16
1.692725e+16
1.673956e+16
1.626612e+16
1.6135e+16
1.627533e+16
1.62072e+16
1.663575e+16
1.699864e+16
1.758222e+16
1.79244e+16
1.806677e+16
1.814076e+16
1.809786e+16
1.793265e+16
1.763773e+16
1.71536e+16
1.664112e+16
1.594641e+16
1.5237e+16
1.477455e+16
1.430421e+16
1.771932e+16
1.732368e+16
1.720109e+16
1.698356e+16
1.671557e+16
1.651348e+16
1.610831e+16
1.598614e+16
1.611595e+16
1.60977e+16
1.651979e+16
1.692464e+16
1.753071e+16
1.786838e+16
1.797734e+16
1.798912e+16
1.785747e+16
1.754469e+16
1.7201e+16
1.669778e+16
1.635165e+16
1.606426e+16
1.60403e+16
1.568047e+16
1.522819e+16
1.501445e+16
1.759816e+16
1.731751e+16
1.73769e+16
1.722155e+16
1.682402e+16
1.65554e+16
1.629259e+16
1.595302e+16
1.584726e+16
1.594997e+16
1.597753e+16
1.637131e+16
1.680205e+16
1.741969e+16
1.778558e+16
1.790674e+16
1.791477e+16
1.778796e+16
1.738837e+16
1.703755e+16
1.637161e+16
1.624066e+16
1.613955e+16
1.619934e+16
1.622375e+16
1.531822e+16
1.570122e+16
1.542519e+16
1.784715e+16
1.767035e+16
1.734407e+16
1.734579e+16
1.707641e+16
1.670439e+16
1.631878e+16
1.605699e+16
1.576866e+16
1.569606e+16
1.578139e+16
1.585205e+16
1.620194e+16
1.663189e+16
1.725097e+16
1.766513e+16
1.783379e+16
1.784813e+16
1.780062e+16
1.750202e+16
1.722643e+16
1.668564e+16
1.631869e+16
1.635701e+16
1.618978e+16
1.495158e+16
1.326438e+16
1.585291e+16
1.561559e+16
1.489677e+16
1.759244e+16
1.751004e+16
1.745078e+16
1.74348e+16
1.695385e+16
1.649683e+16
1.606432e+16
1.583166e+16
1.568319e+16
1.56285e+16
1.569663e+16
1.577048e+16
1.610396e+16
1.650007e+16
1.707534e+16
1.753231e+16
1.776528e+16
1.785798e+16
1.789608e+16
1.77044e+16
1.753452e+16
1.724797e+16
1.693702e+16
1.666402e+16
1.678921e+16
1.662498e+16
1.672875e+16
1.599138e+16
1.645298e+16
1.503664e+16
1.776976e+16
1.746534e+16
1.761491e+16
1.755173e+16
1.726419e+16
1.674757e+16
1.630315e+16
1.592887e+16
1.583505e+16
1.575756e+16
1.564701e+16
1.57163e+16
1.572727e+16
1.592116e+16
1.619344e+16
1.674581e+16
1.717139e+16
1.731255e+16
1.750626e+16
1.766752e+16
1.773002e+16
1.775009e+16
1.764073e+16
1.749184e+16
1.733272e+16
1.704708e+16
1.691695e+16
1.684253e+16
1.656801e+16
1.661878e+16
1.57491e+16
1.601758e+16
1.768601e+16
1.756052e+16
1.766783e+16
1.743199e+16
1.717504e+16
1.660791e+16
1.624636e+16
1.605359e+16
1.604015e+16
1.604514e+16
1.603248e+16
1.616808e+16
1.630774e+16
1.657131e+16
1.689787e+16
1.733943e+16
1.734778e+16
1.746437e+16
1.777621e+16
1.760273e+16
1.747754e+16
1.731386e+16
1.727452e+16
1.720146e+16
1.698896e+16
1.655267e+16
1.614715e+16
1.575099e+16
1.531015e+16
1.510015e+16
1.488301e+16
1.513075e+16
1.789463e+16
1.772171e+16
1.783083e+16
1.744456e+16
1.706814e+16
1.661109e+16
1.636089e+16
1.63044e+16
1.644358e+16
1.676879e+16
1.715543e+16
1.763631e+16
1.800035e+16
1.821847e+16
1.819305e+16
1.795826e+16
1.771338e+16
1.772638e+16
1.74162e+16
1.7524e+16
1.797641e+16
1.762873e+16
1.704916e+16
1.626913e+16
1.553159e+16
1.486422e+16
1.43835e+16
1.410558e+16
1.382419e+16
1.394607e+16
1.363106e+16
1.3966e+16
1.733453e+16
1.759683e+16
1.767068e+16
1.735821e+16
1.701984e+16
1.66283e+16
1.641993e+16
1.64913e+16
1.668767e+16
1.711931e+16
1.724921e+16
1.709931e+16
1.653859e+16
1.594347e+16
1.574589e+16
1.581904e+16
1.577022e+16
1.567548e+16
1.540317e+16
1.501659e+16
1.439486e+16
1.393909e+16
1.391916e+16
1.368088e+16
1.36251e+16
1.353882e+16
1.345804e+16
1.348278e+16
1.33951e+16
1.352527e+16
1.322401e+16
1.362654e+16
1.806939e+16
1.734787e+16
1.76012e+16
1.747045e+16
1.727146e+16
1.699721e+16
1.667187e+16
1.644678e+16
1.64715e+16
1.669479e+16
1.699293e+16
1.641849e+16
1.539716e+16
1.432431e+16
1.46547e+16
1.566416e+16
1.583992e+16
1.569197e+16
1.532331e+16
1.482684e+16
1.432779e+16
1.403091e+16
1.374424e+16
1.356399e+16
1.3418e+16
1.344997e+16
1.340538e+16
1.336829e+16
1.342715e+16
1.348411e+16
1.348792e+16
1.366024e+16
1.399682e+16
1.382488e+16
1.743086e+16
1.70659e+16
1.731004e+16
1.720789e+16
1.710578e+16
1.694106e+16
1.671383e+16
1.651089e+16
1.644723e+16
1.665045e+16
1.684905e+16
1.618413e+16
1.451353e+16
1.253797e+16
1.40389e+16
1.5479e+16
1.595953e+16
1.596156e+16
1.569244e+16
1.527912e+16
1.483188e+16
1.441628e+16
1.405828e+16
1.37982e+16
1.359476e+16
1.352796e+16
1.346345e+16
1.341364e+16
1.347663e+16
1.356681e+16
1.352527e+16
1.392886e+16
1.39243e+16
1.428561e+16
1.708065e+16
1.676605e+16
1.695236e+16
1.686361e+16
1.683902e+16
1.680313e+16
1.670916e+16
1.659118e+16
1.649924e+16
1.661855e+16
1.676945e+16
1.641271e+16
1.541606e+16
1.50928e+16
1.563216e+16
1.606433e+16
1.617042e+16
1.598452e+16
1.559116e+16
1.510582e+16
1.463108e+16
1.423671e+16
1.393588e+16
1.371612e+16
1.35811e+16
1.35238e+16
1.348105e+16
1.34445e+16
1.352909e+16
1.366008e+16
1.366274e+16
1.417115e+16
1.424853e+16
1.482073e+16
1.683005e+16
1.645938e+16
1.658303e+16
1.648831e+16
1.649175e+16
1.655711e+16
1.660415e+16
1.661465e+16
1.656912e+16
1.662046e+16
1.6721e+16
1.660164e+16
1.626063e+16
1.631277e+16
1.647897e+16
1.648583e+16
1.626632e+16
1.584665e+16
1.530585e+16
1.475394e+16
1.428266e+16
1.393941e+16
1.371438e+16
1.357305e+16
1.350304e+16
1.348603e+16
1.346704e+16
1.344622e+16
1.357267e+16
1.3749e+16
1.383987e+16
1.438131e+16
1.456003e+16
1.517117e+16
1.664521e+16
1.607202e+16
1.61548e+16
1.606529e+16
1.606397e+16
1.61817e+16
1.634612e+16
1.649625e+16
1.655412e+16
1.66274e+16
1.670188e+16
1.667739e+16
1.660138e+16
1.661129e+16
1.656898e+16
1.633648e+16
1.589948e+16
1.532258e+16
1.471581e+16
1.419064e+16
1.381724e+16
1.360155e+16
1.349433e+16
1.344345e+16
1.343747e+16
1.344201e+16
1.343149e+16
1.342745e+16
1.362463e+16
1.384661e+16
1.40418e+16
1.456549e+16
1.482799e+16
1.514901e+16
1.689503e+16
1.558528e+16
1.566494e+16
1.556511e+16
1.556756e+16
1.569847e+16
1.593285e+16
1.619202e+16
1.637839e+16
1.650955e+16
1.659668e+16
1.660228e+16
1.659303e+16
1.649441e+16
1.622459e+16
1.574774e+16
1.512574e+16
1.44792e+16
1.393294e+16
1.356576e+16
1.339299e+16
1.335673e+16
1.336608e+16
1.337783e+16
1.338898e+16
1.337111e+16
1.335648e+16
1.339219e+16
1.370867e+16
1.398439e+16
1.433399e+16
1.477218e+16
1.5162e+16
1.472265e+16
1.548371e+16
1.526691e+16
1.522359e+16
1.509167e+16
1.50966e+16
1.530242e+16
1.561179e+16
1.589974e+16
1.610769e+16
1.624089e+16
1.632193e+16
1.620145e+16
1.585104e+16
1.530332e+16
1.464286e+16
1.39955e+16
1.348397e+16
1.318493e+16
1.309882e+16
1.317171e+16
1.328263e+16
1.333718e+16
1.335132e+16
1.331262e+16
1.327773e+16
1.323278e+16
1.33632e+16
1.385458e+16
1.419634e+16
1.486735e+16
1.504317e+16
1.519781e+16
1.54001e+16
1.47807e+16
1.468561e+16
1.442924e+16
1.43047e+16
1.443717e+16
1.469125e+16
1.499209e+16
1.523223e+16
1.542433e+16
1.531158e+16
1.489553e+16
1.433552e+16
1.374214e+16
1.322004e+16
1.285804e+16
1.270688e+16
1.276321e+16
1.295336e+16
1.31916e+16
1.332078e+16
1.332301e+16
1.328028e+16
1.314581e+16
1.31143e+16
1.304877e+16
1.339634e+16
1.405885e+16
1.449149e+16
1.52266e+16
1.535617e+16
1.589207e+16
1.546387e+16
1.454624e+16
1.435016e+16
1.40489e+16
1.381008e+16
1.364046e+16
1.362871e+16
1.37334e+16
1.378859e+16
1.361319e+16
1.330119e+16
1.293948e+16
1.260578e+16
1.23566e+16
1.223329e+16
1.226458e+16
1.245148e+16
1.274979e+16
1.305754e+16
1.330967e+16
1.332903e+16
1.325578e+16
1.313445e+16
1.294958e+16
1.293022e+16
1.287828e+16
1.348286e+16
1.420257e+16
1.486554e+16
1.561859e+16
1.575799e+16
1.632843e+16
1.546387e+16
1.43208e+16
1.405132e+16
1.386844e+16
1.350289e+16
1.322613e+16
1.298565e+16
1.279151e+16
1.259644e+16
1.233777e+16
1.210164e+16
1.193902e+16
1.184658e+16
1.185557e+16
1.196816e+16
1.219896e+16
1.252826e+16
1.289124e+16
1.317685e+16
1.336074e+16
1.324394e+16
1.313363e+16
1.294873e+16
1.276326e+16
1.279373e+16
1.28523e+16
1.359188e+16
1.441438e+16
1.535495e+16
1.591082e+16
1.624525e+16
1.6548e+16
1.427566e+16
1.367622e+16
1.345209e+16
1.343921e+16
1.31667e+16
1.279942e+16
1.251896e+16
1.221451e+16
1.192482e+16
1.172961e+16
1.165969e+16
1.163781e+16
1.176886e+16
1.195244e+16
1.225516e+16
1.261825e+16
1.297292e+16
1.320451e+16
1.331603e+16
1.312147e+16
1.302546e+16
1.284632e+16
1.269428e+16
1.283133e+16
1.301081e+16
1.372015e+16
1.464368e+16
1.536386e+16
1.584338e+16
1.658933e+16
1.39275e+16
1.364867e+16
1.295496e+16
1.321636e+16
1.308814e+16
1.278443e+16
1.250368e+16
1.207884e+16
1.166199e+16
1.151434e+16
1.153231e+16
1.155593e+16
1.176657e+16
1.194509e+16
1.228738e+16
1.264446e+16
1.29794e+16
1.318129e+16
1.325389e+16
1.307781e+16
1.300622e+16
1.286546e+16
1.28194e+16
1.30431e+16
1.318381e+16
1.385925e+16
1.460178e+16
1.538488e+16
1.631602e+16
1.691348e+16
1.318856e+16
1.290238e+16
1.311102e+16
1.308987e+16
1.263527e+16
1.247739e+16
1.198337e+16
1.153295e+16
1.143233e+16
1.148994e+16
1.152249e+16
1.180241e+16
1.197391e+16
1.234063e+16
1.26848e+16
1.299727e+16
1.319901e+16
1.326695e+16
1.316107e+16
1.308664e+16
1.299031e+16
1.298784e+16
1.318355e+16
1.329287e+16
1.395997e+16
1.460821e+16
1.566265e+16
1.608994e+16
1.239434e+16
1.268594e+16
1.285015e+16
1.253946e+16
1.238189e+16
1.200816e+16
1.161896e+16
1.15871e+16
1.160839e+16
1.160051e+16
1.192115e+16
1.20928e+16
1.248344e+16
1.281504e+16
1.309926e+16
1.330482e+16
1.337785e+16
1.331254e+16
1.319979e+16
1.313825e+16
1.310433e+16
1.328964e+16
1.336688e+16
1.393712e+16
1.472824e+16
1.558961e+16
1.212901e+16
1.244441e+16
1.241471e+16
1.236644e+16
1.208458e+16
1.179135e+16
1.177356e+16
1.180145e+16
1.178708e+16
1.211763e+16
1.22898e+16
1.266357e+16
1.298533e+16
1.325239e+16
1.344155e+16
1.351123e+16
1.347888e+16
1.334164e+16
1.327153e+16
1.32343e+16
1.340364e+16
1.343083e+16
1.412787e+16
1.502304e+16
1.209889e+16
1.225962e+16
1.198861e+16
1.199642e+16
1.190476e+16
1.187139e+16
1.2004e+16
1.200592e+16
1.230549e+16
1.247288e+16
1.283197e+16
1.314344e+16
1.339818e+16
1.358317e+16
1.367064e+16
1.36463e+16