/*--------------------------------*- C++ -*----------------------------------*\
  =========                 |
  \\      /  F ield         | OpenFOAM: The Open Source CFD Toolbox
   \\    /   O peration     | Website:  https://openfoam.org
    \\  /    A nd           | Version:  6
     \\/     M anipulation  |
\*---------------------------------------------------------------------------*/
FoamFile
{
    version     2.0;
    format      ascii;
    class       volScalarField;
    location    "50/region0/neutronTransport";
    object      precursor2.dnp;
}
// * * * * * * * * * * * * * * * * * * * * * * * * * * * * * * * * * * * * * //

dimensions      [0 -3 0 0 0 0 0];

internalField   nonuniform List<scalar> 
203709
(
2.734213e+14
3.008075e+14
3.007642e+14
2.734668e+14
2.857763e+14
3.198989e+14
3.960031e+14
3.918295e+14
3.917726e+14
3.959543e+14
3.198241e+14
2.857491e+14
2.792295e+14
3.210537e+14
4.011837e+14
4.000341e+14
4.114023e+14
4.142316e+14
4.142073e+14
4.113531e+14
3.999473e+14
4.011126e+14
3.209839e+14
2.79174e+14
2.792709e+14
3.899935e+14
3.983062e+14
4.139236e+14
4.220341e+14
4.29167e+14
4.323191e+14
4.323208e+14
4.291176e+14
4.219524e+14
4.138534e+14
3.982345e+14
3.899388e+14
2.792271e+14
3.210902e+14
3.983199e+14
4.163056e+14
4.290655e+14
4.387258e+14
4.457039e+14
4.491715e+14
4.491734e+14
4.456542e+14
4.386573e+14
4.289997e+14
4.162239e+14
3.982345e+14
3.210124e+14
2.858534e+14
4.012398e+14
4.139693e+14
4.290834e+14
4.422278e+14
4.525987e+14
4.597895e+14
4.633505e+14
4.633442e+14
4.597625e+14
4.525609e+14
4.421528e+14
4.289909e+14
4.138774e+14
4.011518e+14
2.857688e+14
3.199602e+14
4.000898e+14
4.220915e+14
4.387652e+14
4.526424e+14
4.634199e+14
4.705847e+14
4.739614e+14
4.739488e+14
4.705614e+14
4.633569e+14
4.525554e+14
4.386965e+14
4.22027e+14
4.000149e+14
3.198994e+14
2.736259e+14
3.961599e+14
4.115357e+14
4.292872e+14
4.458274e+14
4.599116e+14
4.706786e+14
4.773443e+14
4.806253e+14
4.805926e+14
4.77265e+14
4.705457e+14
4.597884e+14
4.45736e+14
4.292158e+14
4.114768e+14
3.961364e+14
2.734942e+14
3.009549e+14
3.919771e+14
4.143737e+14
4.324888e+14
4.493333e+14
4.63499e+14
4.741124e+14
4.807168e+14
4.842923e+14
4.841532e+14
4.806029e+14
4.739851e+14
4.633891e+14
4.492313e+14
4.324034e+14
4.143321e+14
3.919268e+14
3.00866e+14
3.01008e+14
3.92082e+14
4.144323e+14
4.325039e+14
4.493468e+14
4.635185e+14
4.741157e+14
4.807296e+14
4.843942e+14
4.842541e+14
4.806365e+14
4.740032e+14
4.633925e+14
4.492472e+14
4.324202e+14
4.143529e+14
3.919951e+14
3.00938e+14
2.736069e+14
3.963079e+14
4.1164e+14
4.293719e+14
4.458986e+14
4.599641e+14
4.70725e+14
4.774156e+14
4.807326e+14
4.806765e+14
4.773413e+14
4.706294e+14
4.598452e+14
4.457838e+14
4.292631e+14
4.11532e+14
3.961633e+14
2.735604e+14
3.200515e+14
4.002288e+14
4.222452e+14
4.389256e+14
4.52771e+14
4.635384e+14
4.707086e+14
4.741211e+14
4.740698e+14
4.706764e+14
4.634644e+14
4.526705e+14
4.387988e+14
4.221111e+14
4.00119e+14
3.199838e+14
2.859621e+14
4.014203e+14
4.141338e+14
4.292552e+14
4.423819e+14
4.527599e+14
4.599329e+14
4.635437e+14
4.635161e+14
4.59942e+14
4.527322e+14
4.423372e+14
4.29184e+14
4.140492e+14
4.013259e+14
2.858745e+14
3.212353e+14
3.984873e+14
4.164844e+14
4.292543e+14
4.389212e+14
4.459282e+14
4.496069e+14
4.49594e+14
4.45919e+14
4.389115e+14
4.292343e+14
4.16458e+14
3.98475e+14
3.211913e+14
2.794285e+14
3.902332e+14
3.985201e+14
4.141661e+14
4.222741e+14
4.294445e+14
4.327897e+14
4.327873e+14
4.294371e+14
4.222661e+14
4.141378e+14
3.98482e+14
3.901983e+14
2.793303e+14
2.794653e+14
3.212923e+14
4.014974e+14
4.003005e+14
4.117496e+14
4.146979e+14
4.147254e+14
4.117413e+14
4.003104e+14
4.014578e+14
3.212079e+14
2.79367e+14
2.860399e+14
3.201524e+14
3.964368e+14
3.924047e+14
3.924552e+14
3.964313e+14
3.201359e+14
2.859795e+14
2.737628e+14
3.011475e+14
3.01168e+14
2.737496e+14
2.290764e+14
2.603749e+14
2.709779e+14
2.782535e+14
2.827993e+14
2.827921e+14
2.782326e+14
2.709362e+14
2.603182e+14
2.290353e+14
2.336825e+14
2.722767e+14
3.467799e+14
3.580983e+14
3.710153e+14
3.852389e+14
3.964917e+14
3.964815e+14
3.852255e+14
3.709234e+14
3.579049e+14
3.465085e+14
2.72028e+14
2.334648e+14
2.39214e+14
3.411145e+14
3.602747e+14
3.879698e+14
4.142473e+14
4.361128e+14
4.643461e+14
4.876285e+14
4.876046e+14
4.642894e+14
4.3592e+14
4.139637e+14
3.876961e+14
3.599854e+14
3.408718e+14
2.390674e+14
2.416067e+14
3.475402e+14
3.78765e+14
4.128543e+14
4.481874e+14
4.984844e+14
5.607677e+14
6.226624e+14
6.448557e+14
6.448028e+14
6.224613e+14
5.605126e+14
4.982357e+14
4.479564e+14
4.126071e+14
3.78514e+14
3.4725e+14
2.414699e+14
2.392526e+14
3.4753e+14
3.826209e+14
4.225528e+14
4.88899e+14
5.688754e+14
6.549135e+14
7.181929e+14
7.652895e+14
8.417591e+14
8.416785e+14
7.651158e+14
7.179246e+14
6.545684e+14
5.685828e+14
4.885941e+14
4.223158e+14
3.823562e+14
3.472588e+14
2.391071e+14
2.337987e+14
3.412988e+14
3.788312e+14
4.225942e+14
5.133932e+14
6.346069e+14
7.178642e+14
7.86357e+14
8.965364e+14
9.458677e+14
9.749584e+14
9.748814e+14
9.456465e+14
8.962128e+14
7.860117e+14
7.174971e+14
6.342265e+14
5.130736e+14
4.223065e+14
3.785797e+14
3.41053e+14
2.336526e+14
2.723632e+14
3.603781e+14
4.129308e+14
4.889463e+14
6.346206e+14
7.50974e+14
8.832808e+14
9.565457e+14
1.013781e+15
1.04912e+15
1.067101e+15
1.067039e+15
1.048932e+15
1.013522e+15
9.562391e+14
8.829362e+14
7.506568e+14
6.343602e+14
4.887156e+14
4.127689e+14
3.602359e+14
2.722303e+14
2.293358e+14
3.469869e+14
3.880752e+14
4.483032e+14
5.689457e+14
7.180069e+14
8.833504e+14
9.827895e+14
1.046966e+15
1.091359e+15
1.119553e+15
1.13346e+15
1.133423e+15
1.119431e+15
1.09119e+15
1.046761e+15
9.825553e+14
8.83125e+14
7.178317e+14
5.688333e+14
4.482031e+14
3.879348e+14
3.46737e+14
2.291139e+14
2.606798e+14
3.584484e+14
4.144227e+14
4.987065e+14
6.551932e+14
7.866103e+14
9.567199e+14
1.047058e+15
1.105311e+15
1.144622e+15
1.169474e+15
1.181582e+15
1.181558e+15
1.169399e+15
1.144505e+15
1.105144e+15
1.04685e+15
9.564861e+14
7.863876e+14
6.549974e+14
4.984755e+14
4.142433e+14
3.581504e+14
2.604098e+14
2.713057e+14
3.714562e+14
4.363858e+14
5.609954e+14
7.185973e+14
8.968926e+14
1.014083e+15
1.091603e+15
1.144804e+15
1.181318e+15
1.204448e+15
1.215724e+15
1.215676e+15
1.204318e+15
1.181121e+15
1.144594e+15
1.091407e+15
1.01389e+15
8.96668e+14
7.182884e+14
5.608773e+14
4.362434e+14
3.711402e+14
2.710366e+14
2.785879e+14
3.857467e+14
4.648411e+14
6.231875e+14
7.658362e+14
9.463838e+14
1.049581e+15
1.119998e+15
1.169934e+15
1.204774e+15
1.22684e+15
1.237579e+15
1.23745e+15
1.226521e+15
1.204348e+15
1.169538e+15
1.11974e+15
1.049422e+15
9.462424e+14
7.656484e+14
6.230408e+14
4.646069e+14
3.854614e+14
2.783753e+14
2.831141e+14
3.969641e+14
4.881434e+14
6.455214e+14
8.4248e+14
9.756318e+14
1.067726e+15
1.134057e+15
1.182182e+15
1.216268e+15
1.237897e+15
1.248479e+15
1.248274e+15
1.237485e+15
1.215768e+15
1.18173e+15
1.133742e+15
1.06755e+15
9.755325e+14
8.42372e+14
6.45397e+14
4.879935e+14
3.967805e+14
2.829597e+14
2.830741e+14
3.968995e+14
4.880889e+14
6.455181e+14
8.425672e+14
9.757485e+14
1.06784e+15
1.134156e+15
1.18226e+15
1.216331e+15
1.237976e+15
1.248616e+15
1.248421e+15
1.237605e+15
1.215872e+15
1.181819e+15
1.133824e+15
1.067636e+15
9.756388e+14
8.424823e+14
6.454148e+14
4.879756e+14
3.967672e+14
2.829532e+14
2.784926e+14
3.856736e+14
4.649096e+14
6.233691e+14
7.66021e+14
9.466835e+14
1.049915e+15
1.120312e+15
1.170184e+15
1.205006e+15
1.227111e+15
1.237917e+15
1.237791e+15
1.22684e+15
1.204649e+15
1.169819e+15
1.12002e+15
1.049726e+15
9.465829e+14
7.659774e+14
6.232706e+14
4.648089e+14
3.85587e+14
2.784025e+14
2.712427e+14
3.714668e+14
4.366007e+14
5.613135e+14
7.18896e+14
8.973352e+14
1.014602e+15
1.092143e+15
1.145314e+15
1.181795e+15
1.20494e+15
1.216262e+15
1.216197e+15
1.204825e+15
1.181625e+15
1.145122e+15
1.091977e+15
1.014496e+15
8.97283e+14
7.188821e+14
5.611799e+14
4.364613e+14
3.714127e+14
2.711766e+14
2.606689e+14
3.585327e+14
4.146916e+14
4.989666e+14
6.556407e+14
7.871398e+14
9.573524e+14
1.047712e+15
1.105947e+15
1.145255e+15
1.170127e+15
1.182289e+15
1.182293e+15
1.170194e+15
1.145339e+15
1.106024e+15
1.047773e+15
9.57389e+14
7.87103e+14
6.555557e+14
4.989272e+14
4.145709e+14
3.584853e+14
2.606084e+14
2.2935e+14
3.471312e+14
3.883526e+14
4.485753e+14
5.694086e+14
7.18547e+14
8.839938e+14
9.834709e+14
1.047687e+15
1.092142e+15
1.120433e+15
1.134415e+15
1.134467e+15
1.120608e+15
1.092405e+15
1.047985e+15
9.837518e+14
8.841937e+14
7.185721e+14
5.693609e+14
4.485671e+14
3.882543e+14
3.470749e+14
2.293043e+14
2.725615e+14
3.606128e+14
4.131783e+14
4.892983e+14
6.351564e+14
7.515931e+14
8.8405e+14
9.574497e+14
1.014819e+15
1.050318e+15
1.06837e+15
1.068432e+15
1.050495e+15
1.015089e+15
9.577632e+14
8.84371e+14
7.518333e+14
6.352339e+14
4.893107e+14
4.132199e+14
3.605435e+14
2.724166e+14
2.339767e+14
3.414752e+14
3.790841e+14
4.229251e+14
5.138638e+14
6.352791e+14
7.187536e+14
7.874291e+14
8.978029e+14
9.473457e+14
9.765432e+14
9.766051e+14
9.474608e+14
8.979515e+14
7.875443e+14
7.188943e+14
6.35401e+14
5.139058e+14
4.229257e+14
3.791155e+14
3.414383e+14
2.337922e+14
2.39473e+14
3.479185e+14
3.830336e+14
4.229733e+14
4.894177e+14
5.696167e+14
6.560127e+14
7.194575e+14
7.667162e+14
8.433724e+14
8.434295e+14
7.667715e+14
7.194633e+14
6.559581e+14
5.696407e+14
4.894423e+14
4.229668e+14
3.830043e+14
3.478931e+14
2.393748e+14
2.418724e+14
3.479224e+14
3.791938e+14
4.133914e+14
4.4882e+14
4.991713e+14
5.616731e+14
6.239487e+14
6.462219e+14
6.462318e+14
6.238806e+14
5.61623e+14
4.991883e+14
4.487588e+14
4.133185e+14
3.79142e+14
3.478894e+14
2.41822e+14
2.394209e+14
3.415937e+14
3.607662e+14
3.884984e+14
4.148411e+14
4.368784e+14
4.652911e+14
4.886162e+14
4.886024e+14
4.652349e+14
4.36762e+14
4.147989e+14
3.884955e+14
3.607343e+14
3.415333e+14
2.393832e+14
2.340091e+14
2.726295e+14
3.47326e+14
3.587759e+14
3.717803e+14
3.860425e+14
3.973166e+14
3.9731e+14
3.86006e+14
3.716958e+14
3.58681e+14
3.473267e+14
2.726354e+14
2.339791e+14
2.2943e+14
2.607941e+14
2.714076e+14
2.786913e+14
2.832693e+14
2.832613e+14
2.787229e+14
2.71435e+14
2.607987e+14
2.294017e+14
1.941062e+14
2.200834e+14
2.265953e+14
2.290972e+14
2.29037e+14
2.264142e+14
2.197617e+14
1.938264e+14
1.939113e+14
2.325709e+14
2.546818e+14
3.207986e+14
3.32796e+14
3.398167e+14
3.430074e+14
3.42939e+14
3.395991e+14
3.324359e+14
3.205196e+14
2.544822e+14
2.323882e+14
1.938416e+14
2.13874e+14
3.110917e+14
3.408658e+14
3.758641e+14
4.141481e+14
4.319268e+14
4.428534e+14
4.479731e+14
4.479027e+14
4.42638e+14
4.31568e+14
4.137046e+14
3.754791e+14
3.405049e+14
3.107571e+14
2.138106e+14
2.004342e+14
2.491208e+14
3.346431e+14
3.978014e+14
4.6596e+14
5.423386e+14
5.811991e+14
6.038419e+14
6.189099e+14
6.26706e+14
6.266069e+14
6.186131e+14
6.033531e+14
5.80548e+14
5.416181e+14
4.653528e+14
3.973599e+14
3.342286e+14
2.489122e+14
2.002569e+14
2.023476e+14
3.050782e+14
3.542221e+14
4.406522e+14
5.524452e+14
6.316685e+14
6.9792e+14
8.024804e+14
8.513093e+14
8.800524e+14
8.943248e+14
8.942014e+14
8.796962e+14
8.507481e+14
8.01781e+14
6.972614e+14
6.309732e+14
5.517178e+14
4.400344e+14
3.538615e+14
3.047004e+14
2.021629e+14
2.004618e+14
3.051676e+14
3.658202e+14
4.5858e+14
5.929493e+14
6.918992e+14
8.265189e+14
9.135795e+14
9.891055e+14
1.045186e+15
1.083196e+15
1.102108e+15
1.101961e+15
1.082788e+15
1.044497e+15
9.881992e+14
9.125721e+14
8.254418e+14
6.909044e+14
5.920655e+14
4.580018e+14
3.652969e+14
3.047354e+14
2.002439e+14
2.492838e+14
3.543934e+14
4.586892e+14
6.025455e+14
7.153743e+14
8.74003e+14
9.903128e+14
1.085102e+15
1.166064e+15
1.231494e+15
1.278124e+15
1.297227e+15
1.297049e+15
1.277594e+15
1.230672e+15
1.165057e+15
1.083994e+15
9.891277e+14
8.728276e+14
7.143247e+14
6.015395e+14
4.580021e+14
3.53911e+14
2.489814e+14
2.141735e+14
3.348219e+14
4.408087e+14
5.93239e+14
7.154614e+14
8.883818e+14
1.026239e+15
1.147265e+15
1.251712e+15
1.33994e+15
1.405779e+15
1.45257e+15
1.479505e+15
1.479314e+15
1.452016e+15
1.404924e+15
1.33888e+15
1.250522e+15
1.146005e+15
1.025014e+15
8.872069e+14
7.144744e+14
5.923297e+14
4.401992e+14
3.34381e+14
2.138691e+14
1.940746e+14
3.113553e+14
3.980966e+14
5.527868e+14
6.924151e+14
8.74406e+14
1.02643e+15
1.169592e+15
1.29988e+15
1.406102e+15
1.493659e+15
1.566669e+15
1.617996e+15
1.645702e+15
1.645527e+15
1.617486e+15
1.565886e+15
1.492687e+15
1.404987e+15
1.298705e+15
1.168429e+15
1.025277e+15
8.733094e+14
6.914688e+14
5.519278e+14
3.976315e+14
3.109465e+14
1.938068e+14
2.328463e+14
3.412377e+14
4.663326e+14
6.323585e+14
8.272043e+14
9.908753e+14
1.147552e+15
1.299975e+15
1.430152e+15
1.545147e+15
1.63817e+15
1.710449e+15
1.759002e+15
1.783756e+15
1.783612e+15
1.758593e+15
1.709846e+15
1.637426e+15
1.544306e+15
1.429281e+15
1.299115e+15
1.146685e+15
9.900075e+14
8.263183e+14
6.314766e+14
4.658553e+14
3.408843e+14
2.325629e+14
2.549749e+14
3.762349e+14
5.427574e+14
6.988779e+14
9.144599e+14
1.085784e+15
1.252094e+15
1.406339e+15
1.545272e+15
1.664598e+15
1.757313e+15
1.825713e+15
1.870746e+15
1.893193e+15
1.893107e+15
1.870495e+15
1.825341e+15
1.756857e+15
1.664097e+15
1.544768e+15
1.405843e+15
1.251548e+15
1.085127e+15
9.136724e+14
6.980382e+14
5.42336e+14
3.759292e+14
2.547115e+14
1.943253e+14
3.212339e+14
4.145178e+14
5.818057e+14
8.036257e+14
9.902065e+14
1.166917e+15
1.34057e+15
1.494123e+15
1.638485e+15
1.757481e+15
1.847948e+15
1.913206e+15
1.955633e+15
1.976562e+15
1.97651e+15
1.95548e+15
1.912979e+15
1.847663e+15
1.757144e+15
1.638107e+15
1.493704e+15
1.340086e+15
1.166287e+15
9.894097e+14
8.027496e+14
5.813461e+14
4.14198e+14
3.208045e+14
1.940759e+14
2.202262e+14
3.331335e+14
4.324319e+14
6.046725e+14
8.526417e+14
1.046536e+15
1.232558e+15
1.406647e+15
1.567368e+15
1.711011e+15
1.826144e+15
1.913499e+15
1.976296e+15
2.016935e+15
2.036907e+15
2.036814e+15
2.016682e+15
1.975953e+15
1.913173e+15
1.825856e+15
1.71075e+15
1.567091e+15
1.406298e+15
1.232105e+15
1.045826e+15
8.51839e+14
6.041623e+14
4.320501e+14
3.328079e+14
2.200076e+14
2.268324e+14
3.402323e+14
4.434662e+14
6.199341e+14
8.815952e+14
1.084855e+15
1.279576e+15
1.453771e+15
1.618993e+15
1.759849e+15
1.871513e+15
1.956392e+15
2.017468e+15
2.056939e+15
2.076256e+15
2.076047e+15
2.056395e+15
2.016759e+15
1.955752e+15
1.87113e+15
1.759666e+15
1.618876e+15
1.453588e+15
1.279225e+15
1.084234e+15
8.809059e+14
6.194336e+14
4.431051e+14
3.399233e+14
2.265828e+14
2.294417e+14
3.435648e+14
4.487162e+14
6.278914e+14
8.960477e+14
1.103994e+15
1.299028e+15
1.48109e+15
1.647059e+15
1.784926e+15
1.894243e+15
1.977583e+15
2.037819e+15
2.07679e+15
2.095839e+15
2.095566e+15
2.076112e+15
2.036975e+15
1.976833e+15
1.893765e+15
1.784717e+15
1.64698e+15
1.480976e+15
1.298751e+15
1.10351e+15
8.954805e+14
6.27438e+14
4.483665e+14
3.43241e+14
2.291916e+14
2.294704e+14
3.435965e+14
4.487397e+14
6.27923e+14
8.960693e+14
1.10405e+15
1.299165e+15
1.481292e+15
1.647293e+15
1.785157e+15
1.894444e+15
1.977743e+15
2.037961e+15
2.076946e+15
2.096032e+15
2.095781e+15
2.076328e+15
2.037182e+15
1.977027e+15
1.893952e+15
1.78491e+15
1.647191e+15
1.481186e+15
1.298928e+15
1.103669e+15
8.95617e+14
6.275219e+14
4.484245e+14
3.432975e+14
2.292433e+14
2.269376e+14
3.403628e+14
4.43564e+14
6.200394e+14
8.816706e+14
1.085087e+15
1.280052e+15
1.454363e+15
1.619654e+15
1.760524e+15
1.872139e+15
1.956907e+15
2.017954e+15
2.057474e+15
2.076857e+15
2.076676e+15
2.057016e+15
2.01736e+15
1.956345e+15
1.871743e+15
1.760324e+15
1.619579e+15
1.454288e+15
1.279859e+15
1.084809e+15
8.813245e+14
6.196444e+14
4.432664e+14
3.400861e+14
2.267293e+14
2.20422e+14
3.333447e+14
4.326031e+14
6.04884e+14
8.527888e+14
1.046927e+15
1.233298e+15
1.407557e+15
1.568364e+15
1.712061e+15
1.827205e+15
1.914518e+15
1.977248e+15
2.017885e+15
2.03789e+15
2.037813e+15
2.017699e+15
1.977004e+15
1.914291e+15
1.827068e+15
1.712044e+15
1.568412e+15
1.407573e+15
1.233193e+15
1.046762e+15
8.525427e+14
6.044496e+14
4.322999e+14
3.33084e+14
2.202271e+14
1.945451e+14
3.21411e+14
4.148238e+14
5.821894e+14
8.038375e+14
9.907012e+14
1.16771e+15
1.341637e+15
1.495328e+15
1.639779e+15
1.758793e+15
1.849236e+15
1.914473e+15
1.956917e+15
1.977911e+15
1.977957e+15
1.957069e+15
1.914703e+15
1.849511e+15
1.759089e+15
1.640072e+15
1.495585e+15
1.341834e+15
1.167836e+15
9.906771e+14
8.037216e+14
5.817209e+14
4.14527e+14
3.212261e+14
1.943662e+14
2.551557e+14
3.765437e+14
5.432495e+14
6.990756e+14
9.149994e+14
1.086535e+15
1.253166e+15
1.407599e+15
1.546632e+15
1.666021e+15
1.758812e+15
1.827323e+15
1.872505e+15
1.895101e+15
1.895234e+15
1.872894e+15
1.827913e+15
1.759518e+15
1.666747e+15
1.547281e+15
1.408113e+15
1.253594e+15
1.086853e+15
9.15074e+14
6.991178e+14
5.427951e+14
3.762611e+14
2.549935e+14
2.329444e+14
3.414703e+14
4.667471e+14
6.326954e+14
8.277785e+14
9.915609e+14
1.148512e+15
1.301216e+15
1.431598e+15
1.546818e+15
1.640096e+15
1.712639e+15
1.761463e+15
1.786431e+15
1.786569e+15
1.761861e+15
1.713251e+15
1.640856e+15
1.547653e+15
1.432403e+15
1.301905e+15
1.149091e+15
9.919508e+14
8.278708e+14
6.327564e+14
4.664695e+14
3.412981e+14
2.328761e+14
1.940994e+14
3.11646e+14
3.984864e+14
5.532321e+14
6.929833e+14
8.751304e+14
1.027446e+15
1.170961e+15
1.301589e+15
1.408173e+15
1.49611e+15
1.569454e+15
1.621111e+15
1.649067e+15
1.649165e+15
1.621369e+15
1.569836e+15
1.49659e+15
1.408753e+15
1.302188e+15
1.171512e+15
1.027906e+15
8.754137e+14
6.929522e+14
5.532607e+14
3.982608e+14
3.114512e+14
1.94138e+14
2.141888e+14
3.350964e+14
4.412295e+14
5.937157e+14
7.162706e+14
8.894986e+14
1.027737e+15
1.149144e+15
1.254008e+15
1.342703e+15
1.408913e+15
1.456033e+15
1.483209e+15
1.48326e+15
1.456139e+15
1.40905e+15
1.342895e+15
1.254303e+15
1.149473e+15
1.028055e+15
8.897643e+14
7.164331e+14
5.938011e+14
4.411803e+14
3.349984e+14
2.141624e+14
2.494355e+14
3.54713e+14
4.591552e+14
6.032642e+14
7.163505e+14
8.755503e+14
9.923131e+14
1.087508e+15
1.16883e+15
1.234649e+15
1.281663e+15
1.30099e+15
1.300982e+15
1.281626e+15
1.234614e+15
1.168853e+15
1.087554e+15
9.923968e+14
8.756619e+14
7.164604e+14
6.033105e+14
4.591178e+14
3.546105e+14
2.493566e+14
2.006688e+14
3.054638e+14
3.662227e+14
4.591769e+14
5.939957e+14
6.933632e+14
8.283664e+14
9.158491e+14
9.917542e+14
1.04817e+15
1.086467e+15
1.105525e+15
1.105487e+15
1.086387e+15
1.048034e+15
9.916231e+14
9.157837e+14
8.283964e+14
6.933766e+14
5.939853e+14
4.591562e+14
3.661669e+14
3.053869e+14
2.005938e+14
2.025109e+14
3.054983e+14
3.548166e+14
4.413188e+14
5.534007e+14
6.32998e+14
6.997251e+14
8.046639e+14
8.537108e+14
8.826471e+14
8.970212e+14
8.969713e+14
8.826061e+14
8.536614e+14
8.045864e+14
6.996205e+14
6.330554e+14
5.534874e+14
4.4134e+14
3.547688e+14
3.054387e+14
2.024753e+14
2.006903e+14
2.495523e+14
3.351597e+14
3.985618e+14
4.668321e+14
5.434644e+14
5.824398e+14
6.051716e+14
6.204054e+14
6.28575e+14
6.28482e+14
6.204956e+14
6.053066e+14
5.825526e+14
5.435563e+14
4.668916e+14
3.985493e+14
3.351414e+14
2.494722e+14
2.006655e+14
2.142517e+14
3.116267e+14
3.415507e+14
3.766272e+14
4.149171e+14
4.327141e+14
4.437215e+14
4.490348e+14
4.489389e+14
4.437436e+14
4.327287e+14
4.149106e+14
3.765721e+14
3.414595e+14
3.11672e+14
2.142051e+14
1.941279e+14
2.330077e+14
2.551695e+14
3.214849e+14
3.333714e+14
3.404198e+14
3.438568e+14
3.438149e+14
3.403799e+14
3.332992e+14
3.214498e+14
2.551111e+14
2.329172e+14
1.941708e+14
1.945075e+14
2.20381e+14
2.269092e+14
2.295464e+14
2.2952e+14
2.268633e+14
2.202962e+14
1.943448e+14
1.72249e+14
1.941194e+14
1.990056e+14
1.98941e+14
1.939208e+14
1.720911e+14
1.655744e+14
2.05857e+14
2.303389e+14
2.582159e+14
3.207164e+14
3.342768e+14
3.394868e+14
3.393376e+14
3.338798e+14
3.202153e+14
2.580148e+14
2.30182e+14
2.056652e+14
1.65489e+14
1.669255e+14
2.161042e+14
3.001148e+14
3.511238e+14
3.959318e+14
4.602016e+14
4.957581e+14
5.105266e+14
5.177127e+14
5.175041e+14
5.099706e+14
4.951153e+14
4.597095e+14
3.954223e+14
3.505129e+14
2.996815e+14
2.159211e+14
1.668813e+14
1.86755e+14
2.899543e+14
3.628669e+14
4.658248e+14
5.257939e+14
5.852147e+14
6.384751e+14
7.270283e+14
7.611333e+14
7.747169e+14
7.744909e+14
7.605003e+14
7.261364e+14
6.375346e+14
5.84148e+14
5.247564e+14
4.647009e+14
3.623536e+14
2.895352e+14
1.866948e+14
2.001197e+14
3.221137e+14
4.188815e+14
5.356625e+14
6.283151e+14
7.558495e+14
8.386011e+14
9.021544e+14
9.553147e+14
9.879517e+14
1.002969e+15
1.002733e+15
9.872681e+14
9.54266e+14
9.008804e+14
8.37244e+14
7.545348e+14
6.271505e+14
5.345261e+14
4.182499e+14
3.216283e+14
1.999636e+14
2.075643e+14
3.483691e+14
4.824862e+14
5.858228e+14
6.879302e+14
8.549017e+14
9.747016e+14
1.069307e+15
1.136474e+15
1.187429e+15
1.220461e+15
1.23643e+15
1.23618e+15
1.21973e+15
1.18627e+15
1.134982e+15
1.06761e+15
9.730092e+14
8.53425e+14
6.867571e+14
5.846845e+14
4.81588e+14
3.47822e+14
2.073227e+14
2.002037e+14
3.484402e+14
5.039867e+14
6.238779e+14
7.932249e+14
9.333559e+14
1.073588e+15
1.190654e+15
1.287946e+15
1.369982e+15
1.430259e+15
1.468695e+15
1.48732e+15
1.487053e+15
1.467918e+15
1.429034e+15
1.368415e+15
1.286163e+15
1.188768e+15
1.071743e+15
9.316416e+14
7.917544e+14
6.227338e+14
5.029203e+14
3.478993e+14
1.999656e+14
1.869047e+14
3.222193e+14
4.827388e+14
6.239595e+14
8.139452e+14
9.805229e+14
1.135336e+15
1.272317e+15
1.400579e+15
1.50946e+15
1.598934e+15
1.665133e+15
1.708011e+15
1.728854e+15
1.728563e+15
1.707169e+15
1.663784e+15
1.597188e+15
1.507456e+15
1.39843e+15
1.270152e+15
1.133267e+15
9.786933e+14
8.124164e+14
6.228578e+14
4.818825e+14
3.217842e+14
1.866708e+14
1.670805e+14
2.901083e+14
4.192644e+14
5.861019e+14
7.935553e+14
9.807702e+14
1.156719e+15
1.313257e+15
1.464995e+15
1.602945e+15
1.719396e+15
1.813999e+15
1.885389e+15
1.932102e+15
1.954179e+15
1.953852e+15
1.931151e+15
1.883907e+15
1.812126e+15
1.717262e+15
1.600646e+15
1.462629e+15
1.310921e+15
1.154493e+15
9.788464e+14
7.920169e+14
5.850331e+14
4.186508e+14
2.897026e+14
1.668515e+14
2.163316e+14
3.632941e+14
5.359235e+14
6.886435e+14
9.339973e+14
1.135932e+15
1.31361e+15
1.486036e+15
1.647584e+15
1.791518e+15
1.91397e+15
2.013058e+15
2.088074e+15
2.138493e+15
2.164096e+15
2.163759e+15
2.137516e+15
2.086564e+15
2.011166e+15
1.911817e+15
1.789206e+15
1.645192e+15
1.483621e+15
1.311259e+15
1.133741e+15
9.321556e+14
6.873164e+14
5.350518e+14
3.627662e+14
2.160874e+14
1.658296e+14
3.003686e+14
4.660776e+14
6.289465e+14
8.559481e+14
1.07464e+15
1.273346e+15
1.465767e+15
1.647957e+15
1.815127e+15
1.96356e+15
2.090217e+15
2.193759e+15
2.274384e+15
2.32968e+15
2.358021e+15
2.357716e+15
2.328795e+15
2.273023e+15
2.192061e+15
2.088286e+15
1.96149e+15
1.812959e+15
1.645702e+15
1.463477e+15
1.27113e+15
1.072635e+15
8.543341e+14
6.276692e+14
4.654214e+14
2.999651e+14
1.657243e+14
2.060032e+14
3.514181e+14
5.262551e+14
7.569666e+14
9.760472e+14
1.192161e+15
1.402028e+15
1.604071e+15
1.792149e+15
1.963795e+15
2.115982e+15
2.248613e+15
2.357957e+15
2.44237e+15
2.499616e+15
2.528566e+15
2.528319e+15
2.498924e+15
2.441336e+15
2.356687e+15
2.247188e+15
2.114465e+15
1.962203e+15
1.790455e+15
1.602226e+15
1.400069e+15
1.190241e+15
9.74415e+14
7.555261e+14
5.253677e+14
3.509246e+14
2.058093e+14
2.306579e+14
3.964885e+14
5.861218e+14
8.401285e+14
1.070989e+15
1.289915e+15
1.511322e+15
1.720802e+15
1.914804e+15
2.090653e+15
2.24881e+15
2.38686e+15
2.499554e+15
2.585044e+15
2.642345e+15
2.671064e+15
2.670922e+15
2.641938e+15
2.584434e+15
2.498818e+15
2.386068e+15
2.247993e+15
2.089781e+15
1.913749e+15
1.719416e+15
1.509596e+15
1.288079e+15
1.069353e+15
8.385717e+14
5.849636e+14
3.957087e+14
2.302404e+14
2.586855e+14
4.612602e+14
6.399225e+14
9.040461e+14
1.138593e+15
1.37238e+15
1.601218e+15
1.815742e+15
2.01419e+15
2.194484e+15
2.358417e+15
2.49979e+15
2.61372e+15
2.699029e+15
2.755696e+15
2.783932e+15
2.783852e+15
2.755471e+15
2.698705e+15
2.613335e+15
2.49936e+15
2.357933e+15
2.193902e+15
2.013409e+15
1.814553e+15
1.599591e+15
1.370588e+15
1.136916e+15
9.02399e+14
6.384817e+14
4.599579e+14
2.580549e+14
1.726029e+14
3.212659e+14
4.96999e+14
7.288316e+14
9.575232e+14
1.189961e+15
1.433076e+15
1.667864e+15
1.88757e+15
2.08962e+15
2.275479e+15
2.443187e+15
2.58563e+15
2.6994e+15
2.784011e+15
2.839883e+15
2.867591e+15
2.867459e+15
2.839531e+15
2.783559e+15
2.698998e+15
2.585312e+15
2.442924e+15
2.27519e+15
2.089135e+15
1.886653e+15
1.666457e+15
1.431462e+15
1.188358e+15
9.558807e+14
7.272097e+14
4.956022e+14
3.204293e+14
1.721454e+14
1.943702e+14
3.349292e+14
5.117998e+14
7.631002e+14
9.904043e+14
1.223349e+15
1.471918e+15
1.711221e+15
1.934845e+15
2.140596e+15
2.33126e+15
2.500858e+15
2.64339e+15
2.756688e+15
2.840589e+15
2.895781e+15
2.92303e+15
2.922754e+15
2.895051e+15
2.839641e+15
2.755868e+15
2.642958e+15
2.500722e+15
2.331206e+15
2.140359e+15
1.93417e+15
1.710074e+15
1.470561e+15
1.221947e+15
9.88953e+14
7.616272e+14
5.105434e+14
3.341102e+14
1.940177e+14
1.993694e+14
3.402778e+14
5.190619e+14
7.768792e+14
1.005694e+15
1.239642e+15
1.490915e+15
1.732517e+15
1.957512e+15
2.166851e+15
2.360202e+15
2.530314e+15
2.672525e+15
2.785296e+15
2.868819e+15
2.92376e+15
2.950833e+15
2.950483e+15
2.92285e+15
2.867684e+15
2.784323e+15
2.671968e+15
2.530143e+15
2.36019e+15
2.166701e+15
1.95699e+15
1.731612e+15
1.489817e+15
1.238485e+15
1.004493e+15
7.756813e+14
5.181088e+14
3.396142e+14
1.990455e+14
1.993845e+14
3.403342e+14
5.191918e+14
7.769601e+14
1.005766e+15
1.2397e+15
1.490975e+15
1.732635e+15
1.957749e+15
2.16719e+15
2.360576e+15
2.530672e+15
2.672833e+15
2.785539e+15
2.869038e+15
2.923997e+15
2.951108e+15
2.950789e+15
2.923171e+15
2.868001e+15
2.784631e+15
2.672272e+15
2.530457e+15
2.360523e+15
2.167048e+15
1.957333e+15
1.731943e+15
1.490123e+15
1.238774e+15
1.004802e+15
7.759939e+14
5.183781e+14
3.397903e+14
1.9913e+14
1.945003e+14
3.350474e+14
5.119273e+14
7.632498e+14
9.905898e+14
1.22352e+15
1.472094e+15
1.71157e+15
1.93554e+15
2.141565e+15
2.332326e+15
2.501906e+15
2.644353e+15
2.757498e+15
2.841357e+15
2.896608e+15
2.923926e+15
2.92369e+15
2.895994e+15
2.840578e+15
2.756813e+15
2.643944e+15
2.501774e+15
2.332322e+15
2.141494e+15
1.935268e+15
1.711105e+15
1.471475e+15
1.222784e+15
9.898359e+14
7.624998e+14
5.112899e+14
3.346193e+14
1.942774e+14
1.727858e+14
3.212363e+14
4.969886e+14
7.28979e+14
9.577732e+14
1.190249e+15
1.433366e+15
1.668409e+15
1.888617e+15
2.09107e+15
2.277085e+15
2.44483e+15
2.587274e+15
2.700991e+15
2.785509e+15
2.841348e+15
2.869077e+15
2.868984e+15
2.841111e+15
2.785222e+15
2.700781e+15
2.58724e+15
2.444978e+15
2.2773e+15
2.091207e+15
1.888585e+15
1.668206e+15
1.432979e+15
1.189673e+15
9.572137e+14
7.284471e+14
4.965838e+14
3.209789e+14
1.726188e+14
2.587667e+14
4.611272e+14
6.401026e+14
9.043627e+14
1.139026e+15
1.372792e+15
1.601914e+15
1.816963e+15
2.015888e+15
2.196416e+15
2.36047e+15
2.501866e+15
2.615763e+15
2.701038e+15
2.757718e+15
2.786046e+15
2.786131e+15
2.757969e+15
2.701431e+15
2.616273e+15
2.502457e+15
2.361091e+15
2.197006e+15
2.01637e+15
1.817271e+15
1.601998e+15
1.37265e+15
1.138605e+15
9.039963e+14
6.397666e+14
4.609673e+14
2.585657e+14
2.307409e+14
3.966447e+14
5.863881e+14
8.404403e+14
1.07153e+15
1.290434e+15
1.512126e+15
1.722052e+15
1.916529e+15
2.092692e+15
2.251031e+15
2.389198e+15
2.502016e+15
2.587675e+15
2.645202e+15
2.674196e+15
2.674401e+15
2.645793e+15
2.588581e+15
2.503134e+15
2.390398e+15
2.252178e+15
2.0937e+15
1.917368e+15
1.722658e+15
1.512438e+15
1.290517e+15
1.071266e+15
8.402626e+14
5.86131e+14
3.964049e+14
2.30532e+14
2.062357e+14
3.517515e+14
5.267067e+14
7.572941e+14
9.766024e+14
1.192834e+15
1.402948e+15
1.605316e+15
1.79384e+15
1.965908e+15
2.118461e+15
2.251448e+15
2.361172e+15
2.445991e+15
2.503662e+15
2.533028e+15
2.533227e+15
2.504242e+15
2.446895e+15
2.362322e+15
2.252738e+15
2.119758e+15
1.967099e+15
1.794846e+15
1.606038e+15
1.403342e+15
1.193026e+15
9.765252e+14
7.572725e+14
5.26396e+14
3.514524e+14
2.059926e+14
1.660245e+14
3.006285e+14
4.666817e+14
6.292533e+14
8.564012e+14
1.075406e+15
1.274412e+15
1.467194e+15
1.649873e+15
1.817593e+15
1.96657e+15
2.093766e+15
2.197859e+15
2.279021e+15
2.334835e+15
2.363635e+15
2.363751e+15
2.335171e+15
2.279555e+15
2.198573e+15
2.094621e+15
1.967474e+15
1.818456e+15
1.650607e+15
1.467713e+15
1.2747e+15
1.075625e+15
8.564797e+14
6.293447e+14
4.662202e+14
3.004603e+14
1.658499e+14
2.164939e+14
3.635105e+14
5.364482e+14
6.88901e+14
9.347859e+14
1.137045e+15
1.315171e+15
1.488161e+15
1.65036e+15
1.794962e+15
1.918071e+15
2.017813e+15
2.093428e+15
2.144378e+15
2.170411e+15
2.170435e+15
2.144445e+15
2.093557e+15
2.018048e+15
1.918431e+15
1.795396e+15
1.650809e+15
1.488559e+15
1.315477e+15
1.137271e+15
9.349479e+14
6.890889e+14
5.363515e+14
3.63389e+14
2.163746e+14
1.6714e+14
2.903705e+14
4.19608e+14
5.868124e+14
7.944607e+14
9.819422e+14
1.158359e+15
1.315502e+15
1.467957e+15
1.606641e+15
1.723799e+15
1.819053e+15
1.891033e+15
1.938247e+15
1.960689e+15
1.960636e+15
1.938105e+15
1.89085e+15
1.81891e+15
1.723734e+15
1.606658e+15
1.468018e+15
1.315571e+15
1.158406e+15
9.819399e+14
7.943855e+14
5.866681e+14
4.194724e+14
2.902911e+14
1.671629e+14
1.869805e+14
3.226074e+14
4.833565e+14
6.246711e+14
8.149975e+14
9.821213e+14
1.137582e+15
1.275261e+15
1.404197e+15
1.51378e+15
1.603885e+15
1.670607e+15
1.7139e+15
1.735016e+15
1.734925e+15
1.713663e+15
1.670265e+15
1.603518e+15
1.513466e+15
1.403967e+15
1.275045e+15
1.137396e+15
9.820096e+14
8.149251e+14
6.246384e+14
4.830996e+14
3.224726e+14
1.869947e+14
2.003296e+14
3.487798e+14
5.047853e+14
6.246888e+14
7.947192e+14
9.353409e+14
1.076183e+15
1.193844e+15
1.291793e+15
1.374381e+15
1.435092e+15
1.473876e+15
1.492735e+15
1.492632e+15
1.473651e+15
1.434775e+15
1.374009e+15
1.291427e+15
1.193548e+15
1.07586e+15
9.350337e+14
7.945342e+14
6.245919e+14
5.046473e+14
3.486976e+14
2.002909e+14
2.077089e+14
3.488042e+14
4.835334e+14
5.870898e+14
6.895559e+14
8.571122e+14
9.773719e+14
1.072453e+15
1.140081e+15
1.191401e+15
1.22475e+15
1.241009e+15
1.240886e+15
1.224566e+15
1.191155e+15
1.139796e+15
1.072192e+15
9.770949e+14
8.567593e+14
6.891465e+14
5.869141e+14
4.834216e+14
3.4875e+14
2.076816e+14
2.002893e+14
3.225776e+14
4.19883e+14
5.367896e+14
6.296112e+14
7.578154e+14
8.410907e+14
9.051102e+14
9.585895e+14
9.914522e+14
1.006616e+15
1.006484e+15
9.912227e+14
9.582772e+14
9.047746e+14