/*--------------------------------*- C++ -*----------------------------------*\
  =========                 |
  \\      /  F ield         | OpenFOAM: The Open Source CFD Toolbox
   \\    /   O peration     | Website:  https://openfoam.org
    \\  /    A nd           | Version:  6
     \\/     M anipulation  |
\*---------------------------------------------------------------------------*/
FoamFile
{
    version     2.0;
    format      ascii;
    class       volScalarField;
    location    "50/region0/neutronTransport";
    object      precursor5.dnp;
}
// * * * * * * * * * * * * * * * * * * * * * * * * * * * * * * * * * * * * * //

dimensions      [0 -3 0 0 0 0 0];

internalField   nonuniform List<scalar> 
203709
(
1.767941e+12
1.837835e+12
1.820457e+12
1.581235e+12
1.577513e+12
1.777054e+12
2.051783e+12
1.897147e+12
1.853781e+12
1.882033e+12
1.802106e+12
1.391796e+12
1.384534e+12
1.675433e+12
1.792522e+12
1.788675e+12
1.869726e+12
1.850543e+12
1.843703e+12
1.814467e+12
1.775164e+12
1.734832e+12
1.549416e+12
1.300448e+12
1.498311e+12
1.720327e+12
1.821738e+12
1.872155e+12
1.892573e+12
1.928125e+12
1.931482e+12
1.899125e+12
1.899232e+12
1.900326e+12
1.836638e+12
1.770528e+12
1.731853e+12
1.389819e+12
1.617199e+12
1.832036e+12
1.911352e+12
1.960986e+12
1.999954e+12
2.032171e+12
2.045579e+12
2.036323e+12
2.020622e+12
1.971102e+12
1.923553e+12
1.884294e+12
1.793433e+12
1.518427e+12
1.751162e+12
1.783608e+12
1.859982e+12
1.919013e+12
1.976521e+12
2.022191e+12
2.060048e+12
2.07027e+12
2.065944e+12
2.054336e+12
2.023576e+12
1.97302e+12
1.911205e+12
1.836187e+12
1.795834e+12
1.3481e+12
1.705815e+12
1.809687e+12
1.857546e+12
1.877189e+12
1.946535e+12
2.059109e+12
2.106088e+12
2.13053e+12
2.131011e+12
2.108235e+12
2.070046e+12
2.017727e+12
1.955812e+12
1.882158e+12
1.795657e+12
1.533961e+12
2.062122e+12
2.134539e+12
1.943135e+12
1.907328e+12
1.935684e+12
1.994304e+12
2.079408e+12
2.127296e+12
2.147259e+12
2.154728e+12
2.146511e+12
2.120086e+12
2.071118e+12
2.010487e+12
1.934697e+12
1.856383e+12
1.773875e+12
1.340073e+12
1.977623e+12
2.038921e+12
1.983343e+12
1.952907e+12
1.992681e+12
2.062776e+12
2.109107e+12
2.147163e+12
2.162599e+12
2.171806e+12
2.155502e+12
2.135981e+12
2.088167e+12
2.032589e+12
1.959994e+12
1.879819e+12
1.785935e+12
1.475237e+12
1.985821e+12
2.015107e+12
1.999487e+12
1.984114e+12
2.006912e+12
2.059155e+12
2.095965e+12
2.136101e+12
2.151526e+12
2.161381e+12
2.148892e+12
2.130534e+12
2.085215e+12
2.03211e+12
1.962891e+12
1.884595e+12
1.79182e+12
1.511675e+12
1.870607e+12
2.060031e+12
2.035198e+12
2.009301e+12
2.008693e+12
2.045297e+12
2.08119e+12
2.111205e+12
2.133308e+12
2.141332e+12
2.130913e+12
2.107707e+12
2.066947e+12
2.013852e+12
1.947352e+12
1.868188e+12
1.775559e+12
1.532246e+12
2.200457e+12
2.110865e+12
2.052494e+12
2.020215e+12
2.028228e+12
2.055145e+12
2.07872e+12
2.093044e+12
2.09942e+12
2.092967e+12
2.06939e+12
2.030996e+12
1.979684e+12
1.915167e+12
1.826775e+12
1.619e+12
2.074366e+12
2.23842e+12
2.122119e+12
2.04373e+12
2.012899e+12
2.020807e+12
2.038425e+12
2.052309e+12
2.054343e+12
2.043002e+12
2.017467e+12
1.980943e+12
1.93313e+12
1.868049e+12
1.782998e+12
1.600636e+12
2.244118e+12
2.13357e+12
2.043056e+12
2.007312e+12
1.995298e+12
1.993786e+12
1.9976e+12
1.989015e+12
1.979942e+12
1.95513e+12
1.924528e+12
1.885505e+12
1.808519e+12
1.606569e+12
1.966997e+12
2.172225e+12
2.036899e+12
2.035911e+12
2.00049e+12
1.980006e+12
1.958412e+12
1.934008e+12
1.920725e+12
1.900139e+12
1.886191e+12
1.873876e+12
1.77429e+12
1.552917e+12
1.899174e+12
1.869794e+12
2.191398e+12
2.042325e+12
2.029761e+12
1.955912e+12
1.89769e+12
1.89522e+12
1.904395e+12
1.925939e+12
1.954142e+12
1.660697e+12
1.944784e+12
1.94104e+12
2.16838e+12
1.987899e+12
1.918575e+12
1.931872e+12
1.959388e+12
1.724794e+12
1.838668e+12
1.868625e+12
1.863272e+12
1.670909e+12
1.680253e+12
1.779324e+12
1.840863e+12
1.900686e+12
1.936258e+12
1.932373e+12
1.887506e+12
1.810854e+12
1.716669e+12
1.51287e+12
1.645466e+12
1.800387e+12
1.918443e+12
1.839128e+12
1.895362e+12
1.975219e+12
2.032652e+12
2.031066e+12
1.968587e+12
1.872836e+12
1.781464e+12
1.789067e+12
1.647742e+12
1.363957e+12
1.597548e+12
1.844791e+12
1.795114e+12
1.888278e+12
1.943741e+12
2.043279e+12
2.178737e+12
2.281159e+12
2.27988e+12
2.178181e+12
2.03015e+12
1.904347e+12
1.805691e+12
1.682815e+12
1.616624e+12
1.224298e+12
1.544782e+12
1.818203e+12
1.820178e+12
1.872746e+12
2.015301e+12
2.211104e+12
2.418752e+12
2.68044e+12
2.821012e+12
2.821202e+12
2.702904e+12
2.404278e+12
2.189707e+12
1.98201e+12
1.831306e+12
1.694987e+12
1.539158e+12
1.218412e+12
1.504527e+12
1.774009e+12
1.792435e+12
1.88526e+12
2.105535e+12
2.383911e+12
2.774153e+12
3.064345e+12
3.253202e+12
3.500272e+12
3.49928e+12
3.2406e+12
3.067533e+12
2.818058e+12
2.426692e+12
2.163782e+12
1.910166e+12
1.726388e+12
1.564937e+12
1.248675e+12
1.474478e+12
1.725964e+12
1.756852e+12
1.891903e+12
2.24056e+12
2.73787e+12
3.063694e+12
3.352387e+12
3.758359e+12
3.93943e+12
4.086087e+12
4.086331e+12
3.920848e+12
3.747467e+12
3.360257e+12
3.14417e+12
2.775088e+12
2.333053e+12
1.976358e+12
1.756127e+12
1.578537e+12
1.266917e+12
1.374977e+12
1.688338e+12
1.875906e+12
2.224547e+12
2.827328e+12
3.249957e+12
3.81414e+12
4.100128e+12
4.353994e+12
4.495585e+12
4.575355e+12
4.530869e+12
4.444282e+12
4.329003e+12
4.032929e+12
3.746432e+12
3.217371e+12
2.821959e+12
2.357596e+12
2.005865e+12
1.739519e+12
1.424206e+12
1.516458e+12
1.723145e+12
1.773149e+12
2.070412e+12
2.576347e+12
3.142411e+12
3.880686e+12
4.358584e+12
4.623818e+12
4.797523e+12
4.893755e+12
4.930966e+12
4.897325e+12
4.846932e+12
4.686034e+12
4.507036e+12
4.320635e+12
3.902992e+12
3.218835e+12
2.725391e+12
2.190119e+12
1.858377e+12
1.650886e+12
1.230096e+12
1.460598e+12
1.688842e+12
1.860108e+12
2.243007e+12
2.946114e+12
3.51151e+12
4.215872e+12
4.611505e+12
4.806084e+12
4.929978e+12
5.020556e+12
5.060648e+12
5.07116e+12
5.055865e+12
4.975523e+12
4.838146e+12
4.591816e+12
4.190915e+12
3.489051e+12
2.893045e+12
2.372303e+12
1.947539e+12
1.670993e+12
1.287777e+12
1.511884e+12
1.721199e+12
1.980367e+12
2.461408e+12
3.122364e+12
3.849457e+12
4.363925e+12
4.640523e+12
4.819829e+12
5.013115e+12
5.126371e+12
5.173067e+12
5.176159e+12
5.134928e+12
5.04551e+12
4.906604e+12
4.709265e+12
4.40127e+12
3.927835e+12
3.177824e+12
2.615178e+12
2.054088e+12
1.731713e+12
1.316161e+12
1.597903e+12
1.804885e+12
2.111677e+12
2.669236e+12
3.350944e+12
4.027117e+12
4.462692e+12
4.676835e+12
4.870733e+12
5.080817e+12
5.189569e+12
5.249054e+12
5.271108e+12
5.251162e+12
5.180303e+12
5.053339e+12
4.860966e+12
4.575187e+12
4.157432e+12
3.36072e+12
2.736359e+12
2.215076e+12
1.816036e+12
1.364292e+12
1.681119e+12
1.890519e+12
2.233501e+12
2.796176e+12
3.563461e+12
4.144262e+12
4.530489e+12
4.780229e+12
4.98834e+12
5.14148e+12
5.24309e+12
5.305382e+12
5.332263e+12
5.312562e+12
5.247071e+12
5.122312e+12
4.93714e+12
4.66757e+12
4.277141e+12
3.708209e+12
2.868776e+12
2.337672e+12
1.894322e+12
1.417657e+12
1.735259e+12
1.934663e+12
2.275625e+12
2.824492e+12
3.582226e+12
4.145848e+12
4.506928e+12
4.773914e+12
4.975333e+12
5.131138e+12
5.246545e+12
5.317317e+12
5.348793e+12
5.331392e+12
5.266736e+12
5.141075e+12
4.953185e+12
4.679831e+12
4.279419e+12
3.677802e+12
2.883606e+12
2.356357e+12
1.914777e+12
1.450098e+12
1.747182e+12
1.917986e+12
2.212184e+12
2.744955e+12
3.312584e+12
3.986199e+12
4.405173e+12
4.697827e+12
4.917358e+12
5.082704e+12
5.202992e+12
5.280525e+12
5.313083e+12
5.295023e+12
5.224989e+12
5.094295e+12
4.894163e+12
4.597387e+12
4.137437e+12
3.386955e+12
2.883457e+12
2.280088e+12
1.873171e+12
1.449648e+12
1.722347e+12
1.859935e+12
2.088992e+12
2.527477e+12
3.15984e+12
3.804872e+12
4.259298e+12
4.562282e+12
4.798734e+12
4.977439e+12
5.105162e+12
5.184243e+12
5.214945e+12
5.193211e+12
5.114493e+12
4.971243e+12
4.750395e+12
4.410927e+12
3.853833e+12
3.109355e+12
2.629468e+12
2.148516e+12
1.797643e+12
1.419135e+12
1.663116e+12
1.7871e+12
1.969585e+12
2.321775e+12
2.88487e+12
3.405768e+12
3.981544e+12
4.346692e+12
4.614909e+12
4.80981e+12
4.945207e+12
5.025623e+12
5.050994e+12
5.018943e+12
4.925037e+12
4.759463e+12
4.510007e+12
4.109162e+12
3.398708e+12
2.955095e+12
2.375094e+12
1.982424e+12
1.701086e+12
1.365919e+12
1.462461e+12
1.777101e+12
1.863653e+12
2.107262e+12
2.509017e+12
3.138918e+12
3.700763e+12
4.081672e+12
4.343927e+12
4.551544e+12
4.697115e+12
4.780872e+12
4.801139e+12
4.75574e+12
4.638693e+12
4.435253e+12
4.152975e+12
3.693032e+12
3.020126e+12
2.55882e+12
2.121456e+12
1.818275e+12
1.590117e+12
1.323553e+12
1.713823e+12
1.76184e+12
1.921594e+12
2.232078e+12
2.697169e+12
3.176804e+12
3.619282e+12
3.924351e+12
4.157394e+12
4.330316e+12
4.436638e+12
4.458832e+12
4.384897e+12
4.229762e+12
3.955535e+12
3.646661e+12
3.169105e+12
2.763515e+12
2.203769e+12
1.90113e+12
1.68197e+12
1.37691e+12
1.463073e+12
1.764197e+12
1.80499e+12
1.940113e+12
2.220774e+12
2.641826e+12
2.980835e+12
3.302949e+12
3.623523e+12
3.81727e+12
3.967074e+12
3.999576e+12
3.863182e+12
3.6575e+12
3.276542e+12
2.992393e+12
2.68764e+12
2.219823e+12
1.936946e+12
1.779165e+12
1.662276e+12
1.348629e+12
1.449382e+12
1.785054e+12
1.809688e+12
1.917956e+12
2.113071e+12
2.38656e+12
2.707685e+12
2.976903e+12
3.188073e+12
3.382444e+12
3.39419e+12
3.166307e+12
2.985042e+12
2.758356e+12
2.38266e+12
2.156884e+12
1.975284e+12
1.881249e+12
1.838616e+12
1.554457e+12
1.456739e+12
1.788991e+12
1.797146e+12
1.851028e+12
1.98817e+12
2.153431e+12
2.352879e+12
2.598254e+12
2.73632e+12
2.742466e+12
2.656303e+12
2.358127e+12
2.204226e+12
2.074063e+12
1.959539e+12
1.948995e+12
1.956819e+12
1.716647e+12
1.444825e+12
1.781172e+12
1.72873e+12
1.829996e+12
1.885165e+12
1.98721e+12
2.113725e+12
2.215527e+12
2.225213e+12
2.156904e+12
2.046267e+12
1.986217e+12
1.997738e+12
1.936443e+12
2.029253e+12
1.827208e+12
1.489365e+12
1.660811e+12
1.868581e+12
1.800602e+12
1.860445e+12
1.943301e+12
2.00963e+12
2.028588e+12
2.000787e+12
1.958389e+12
1.942325e+12
2.077223e+12
2.016522e+12
1.920764e+12
1.564971e+12
1.747343e+12
1.816497e+12
1.878862e+12
1.921317e+12
1.94491e+12
1.952672e+12
1.950034e+12
1.944474e+12
1.906646e+12
1.575072e+12
1.609861e+12
1.655316e+12
1.675508e+12
1.669769e+12
1.63804e+12
1.585051e+12
1.528162e+12
1.524616e+12
1.677342e+12
1.807383e+12
1.85509e+12
1.789922e+12
1.822747e+12
1.83902e+12
1.833887e+12
1.806827e+12
1.769523e+12
1.829308e+12
1.663578e+12
1.514258e+12
1.409144e+12
1.603811e+12
1.775845e+12
1.821766e+12
1.968537e+12
2.088173e+12
2.117528e+12
2.168108e+12
2.19269e+12
2.186842e+12
2.149548e+12
2.088257e+12
2.038733e+12
1.862923e+12
1.703621e+12
1.68929e+12
1.432804e+12
1.472893e+12
1.68811e+12
1.871577e+12
1.992811e+12
2.189187e+12
2.439731e+12
2.621612e+12
2.706291e+12
2.779067e+12
2.81677e+12
2.811046e+12
2.761683e+12
2.677648e+12
2.575542e+12
2.369132e+12
2.067825e+12
1.881579e+12
1.728001e+12
1.411031e+12
1.251706e+12
1.421318e+12
1.690711e+12
1.8052e+12
2.104123e+12
2.452643e+12
2.792367e+12
3.030118e+12
3.395331e+12
3.572965e+12
3.696774e+12
3.763553e+12
3.760575e+12
3.686877e+12
3.551361e+12
3.359922e+12
2.97345e+12
2.715163e+12
2.386197e+12
1.956931e+12
1.620734e+12
1.500849e+12
1.081756e+12
1.389972e+12
1.656299e+12
1.797428e+12
2.096536e+12
2.590456e+12
2.996081e+12
3.483564e+12
3.793621e+12
4.12398e+12
4.356828e+12
4.524318e+12
4.616456e+12
4.617432e+12
4.524896e+12
4.347966e+12
4.10188e+12
3.757139e+12
3.43551e+12
2.936274e+12
2.560676e+12
1.956645e+12
1.625707e+12
1.374672e+12
9.225156e+11
1.423236e+12
1.725281e+12
2.067239e+12
2.597275e+12
3.091832e+12
3.642746e+12
4.124712e+12
4.491991e+12
4.830991e+12
5.099277e+12
5.290477e+12
5.391572e+12
5.393446e+12
5.303404e+12
5.131852e+12
4.884704e+12
4.551346e+12
4.168322e+12
3.687161e+12
3.085344e+12
2.628395e+12
2.048448e+12
1.618009e+12
1.169533e+12
1.434702e+12
1.748575e+12
1.994951e+12
2.545256e+12
3.077265e+12
3.691304e+12
4.2924e+12
4.816241e+12
5.238832e+12
5.578533e+12
5.861025e+12
6.060671e+12
6.183805e+12
6.199588e+12
6.103216e+12
5.933216e+12
5.656098e+12
5.296164e+12
4.871702e+12
4.367417e+12
3.793003e+12
3.091244e+12
2.636866e+12
2.101076e+12
1.61056e+12
1.108485e+12
1.330402e+12
1.654415e+12
1.864849e+12
2.391798e+12
2.970388e+12
3.638304e+12
4.325088e+12
4.944146e+12
5.489173e+12
5.94631e+12
6.290221e+12
6.574643e+12
6.772363e+12
6.883969e+12
6.885086e+12
6.758102e+12
6.578965e+12
6.290449e+12
5.953413e+12
5.50676e+12
4.981175e+12
4.405171e+12
3.79023e+12
3.024335e+12
2.511308e+12
2.015393e+12
1.58605e+12
1.141188e+12
1.384484e+12
1.657272e+12
2.06238e+12
2.697472e+12
3.437929e+12
4.202929e+12
4.909956e+12
5.568066e+12
6.130876e+12
6.628468e+12
6.989195e+12
7.268511e+12
7.452242e+12
7.547908e+12
7.499729e+12
7.386513e+12
7.213551e+12
6.868585e+12
6.485458e+12
5.995025e+12
5.488953e+12
4.92608e+12
4.354483e+12
3.701231e+12
2.844967e+12
2.363231e+12
1.82653e+12
1.364074e+12
1.473992e+12
1.75041e+12
2.330609e+12
2.9887e+12
3.838639e+12
4.699677e+12
5.440688e+12
6.104653e+12
6.747374e+12
7.270065e+12
7.630703e+12
7.877756e+12
8.025034e+12
8.082467e+12
8.034057e+12
7.939906e+12
7.708218e+12
7.438098e+12
7.133198e+12
6.643468e+12
6.068145e+12
5.483107e+12
4.805835e+12
4.095462e+12
3.155402e+12
2.497776e+12
1.957191e+12
1.470592e+12
1.352527e+12
1.703881e+12
1.90258e+12
2.502755e+12
3.308497e+12
4.14928e+12
5.060835e+12
5.86213e+12
6.533858e+12
7.162834e+12
7.637781e+12
7.928293e+12
8.12821e+12
8.277502e+12
8.35291e+12
8.365716e+12
8.324548e+12
8.181519e+12
7.935646e+12
7.536405e+12
7.021529e+12
6.413621e+12
5.785394e+12
5.094288e+12
4.375232e+12
3.596193e+12
2.613255e+12
2.036309e+12
1.594705e+12
1.077023e+12
1.372651e+12
1.63457e+12
1.95976e+12
2.601439e+12
3.527253e+12
4.382592e+12
5.253708e+12
6.096554e+12
6.824125e+12
7.37419e+12
7.753008e+12
8.006118e+12
8.295214e+12
8.502931e+12
8.572776e+12
8.571548e+12
8.49261e+12
8.330129e+12
8.083482e+12
7.756289e+12
7.298833e+12
6.714763e+12
6.036037e+12
5.344218e+12
4.584505e+12
3.786786e+12
2.701007e+12
2.065959e+12
1.591478e+12
1.116969e+12
1.404748e+12
1.638878e+12
2.000011e+12
2.667685e+12
3.663909e+12
4.558835e+12
5.433877e+12
6.242126e+12
6.98605e+12
7.528362e+12
7.822518e+12
8.111408e+12
8.464117e+12
8.655601e+12
8.750895e+12
8.779034e+12
8.730463e+12
8.592982e+12
8.360989e+12
8.024373e+12
7.564743e+12
6.975471e+12
6.240635e+12
5.517691e+12
4.748578e+12
3.913391e+12
2.772841e+12
2.107817e+12
1.610749e+12
1.120587e+12
1.430714e+12
1.654204e+12
2.029071e+12
2.709134e+12
3.734411e+12
4.653377e+12
5.533509e+12
6.336891e+12
7.055539e+12
7.640535e+12
8.015192e+12
8.350198e+12
8.611574e+12
8.778481e+12
8.875605e+12
8.906639e+12
8.858716e+12
8.725404e+12
8.494909e+12
8.162287e+12
7.710403e+12
7.124546e+12
6.407195e+12
5.619431e+12
4.837055e+12
3.982491e+12
2.817123e+12
2.150144e+12
1.637254e+12
1.136574e+12
1.438062e+12
1.660465e+12
2.03969e+12
2.719952e+12
3.742163e+12
4.660558e+12
5.536357e+12
6.33631e+12
7.041741e+12
7.633717e+12
8.050876e+12
8.381033e+12
8.637966e+12
8.814149e+12
8.918116e+12
8.95208e+12
8.904836e+12
8.770582e+12
8.537076e+12
8.198644e+12
7.739817e+12
7.14543e+12
6.417093e+12
5.635078e+12
4.842569e+12
3.98433e+12
2.822479e+12
2.175885e+12
1.660661e+12
1.157374e+12
1.426215e+12
1.650884e+12
2.025845e+12
2.694115e+12
3.685921e+12
4.579499e+12
5.439101e+12
6.22167e+12
6.921967e+12
7.495576e+12
7.951557e+12
8.295677e+12
8.557862e+12
8.74206e+12
8.853893e+12
8.889848e+12
8.840501e+12
8.699308e+12
8.45703e+12
8.105152e+12
7.628184e+12
7.01027e+12
6.27726e+12
5.566315e+12
4.767258e+12
3.913106e+12
2.782705e+12
2.167534e+12
1.664536e+12
1.171962e+12
1.40059e+12
1.63168e+12
1.990054e+12
2.634506e+12
3.568743e+12
4.414908e+12
5.233378e+12
6.012091e+12
6.701498e+12
7.275419e+12
7.747949e+12
8.10536e+12
8.37625e+12
8.568041e+12
8.681368e+12
8.712695e+12
8.65489e+12
8.500863e+12
8.242968e+12
7.87224e+12
7.369615e+12
6.724068e+12
6.014749e+12
5.329017e+12
4.587027e+12
3.751447e+12
2.69905e+12
2.111836e+12
1.632021e+12
1.169098e+12
1.30782e+12
1.674112e+12
1.949983e+12
2.544803e+12
3.38197e+12
4.175582e+12
4.946463e+12
5.7027e+12
6.372457e+12
6.95204e+12
7.421287e+12
7.799141e+12
8.08389e+12
8.282679e+12
8.394272e+12
8.414915e+12
8.34141e+12
8.169269e+12
7.892425e+12
7.504368e+12
6.977856e+12
6.330009e+12
5.70306e+12
5.009189e+12
4.2962e+12
3.46752e+12
2.585452e+12
1.997578e+12
1.538114e+12
1.158116e+12
1.552585e+12
1.806664e+12
2.38253e+12
2.999285e+12
3.815992e+12
4.560868e+12
5.278333e+12
5.951461e+12
6.498795e+12
6.969267e+12
7.377611e+12
7.67706e+12
7.878346e+12
7.982095e+12
7.987107e+12
7.895783e+12
7.705839e+12
7.412978e+12
7.018192e+12
6.481997e+12
5.866643e+12
5.261035e+12
4.615826e+12
3.907296e+12
3.0401e+12
2.483182e+12
1.80974e+12
1.314373e+12
1.401355e+12
1.644461e+12
2.051894e+12
2.73457e+12
3.463301e+12
4.144383e+12
4.792304e+12
5.396695e+12
5.929585e+12
6.409372e+12
6.8228e+12
7.145954e+12
7.354166e+12
7.449573e+12
7.439715e+12
7.330465e+12
7.127044e+12
6.825717e+12
6.444952e+12
5.939028e+12
5.389702e+12
4.767848e+12
4.141749e+12
3.445467e+12
2.684331e+12
2.093022e+12
1.637449e+12
1.213526e+12
1.260268e+12
1.616217e+12
1.846519e+12
2.370188e+12
2.936187e+12
3.584898e+12
4.211097e+12
4.798716e+12
5.334805e+12
5.794164e+12
6.180977e+12
6.488915e+12
6.712674e+12
6.802098e+12
6.784532e+12
6.663398e+12
6.458077e+12
6.166168e+12
5.812651e+12
5.346158e+12
4.810679e+12
4.223628e+12
3.610267e+12
2.958109e+12
2.440733e+12
1.803137e+12
1.525255e+12
1.168469e+12
1.322035e+12
1.689771e+12
1.948163e+12
2.488696e+12
2.997747e+12
3.604884e+12
4.186561e+12
4.698844e+12
5.129768e+12
5.482329e+12
5.757137e+12
5.947954e+12
6.04299e+12
6.035687e+12
5.919179e+12
5.721632e+12
5.441221e+12
5.074501e+12
4.668894e+12
4.174736e+12
3.62181e+12
3.062161e+12
2.598453e+12
1.987455e+12
1.675337e+12
1.406143e+12
1.336813e+12
1.63663e+12
1.968626e+12
2.501813e+12
2.984346e+12
3.537126e+12
4.022922e+12
4.40881e+12
4.737001e+12
4.985215e+12
5.137787e+12
5.20395e+12
5.189973e+12
5.098974e+12
4.932673e+12
4.685202e+12
4.345264e+12
4.0156e+12
3.58166e+12
3.093892e+12
2.680281e+12
2.126572e+12
1.805203e+12
1.365933e+12
1.227778e+12
1.549789e+12
1.697146e+12
1.973612e+12
2.484264e+12
2.890434e+12
3.330043e+12
3.657825e+12
3.977096e+12
4.185819e+12
4.317695e+12
4.378955e+12
4.373931e+12
4.301193e+12
4.165456e+12
3.977719e+12
3.691776e+12
3.439506e+12
3.014642e+12
2.689958e+12
2.243316e+12
1.941932e+12
1.782607e+12
1.530275e+12
1.2557e+12
1.591003e+12
1.701847e+12
1.98779e+12
2.369396e+12
2.693464e+12
2.934827e+12
3.266389e+12
3.4261e+12
3.531838e+12
3.587794e+12
3.588984e+12
3.542096e+12
3.45579e+12
3.326877e+12
3.034474e+12
2.844044e+12
2.566096e+12
2.309066e+12
2.051517e+12
1.898998e+12
1.687697e+12
1.339586e+12
1.592031e+12
1.786733e+12
1.917917e+12
2.097633e+12
2.390565e+12
2.577377e+12
2.650465e+12
2.715638e+12
2.754308e+12
2.762709e+12
2.746555e+12
2.714983e+12
2.673806e+12
2.531297e+12
2.341611e+12
2.215596e+12
2.166614e+12
2.058428e+12
1.808833e+12
1.513855e+12
1.757098e+12
1.805107e+12
1.965227e+12
2.077848e+12
2.097452e+12
2.141891e+12
2.171831e+12
2.189793e+12
2.197901e+12
2.206685e+12
2.241969e+12
2.165315e+12
2.061996e+12
2.075519e+12
2.026963e+12
1.516391e+12
1.718136e+12
1.855994e+12
1.905803e+12
1.843324e+12
1.876263e+12
1.906753e+12
1.926805e+12
1.939062e+12
1.965189e+12
2.099436e+12
2.083546e+12
1.987035e+12
1.952674e+12
1.664552e+12
1.72445e+12
1.769921e+12
1.808246e+12
1.830265e+12
1.842205e+12
1.854805e+12
1.927673e+12
1.370569e+12
1.392395e+12
1.422138e+12
1.418384e+12
1.386892e+12
1.400392e+12
1.319348e+12
1.474948e+12
1.595963e+12
1.748392e+12
1.7881e+12
1.771357e+12
1.794182e+12
1.789799e+12
1.764893e+12
1.81196e+12
1.658141e+12
1.490983e+12
1.345411e+12
1.266631e+12
1.279759e+12
1.486456e+12
1.684055e+12
1.841825e+12
2.003763e+12
2.201187e+12
2.323797e+12
2.3619e+12
2.390133e+12
2.383897e+12
2.348047e+12
2.308563e+12
2.132962e+12
1.911033e+12
1.736466e+12
1.624022e+12
1.347721e+12
1.281376e+12
1.352883e+12
1.600088e+12
1.829477e+12
2.156081e+12
2.426167e+12
2.677502e+12
2.866913e+12
3.200708e+12
3.313919e+12
3.362813e+12
3.353716e+12
3.289264e+12
3.153509e+12
2.814069e+12
2.583896e+12
2.330719e+12
2.087821e+12
1.747736e+12
1.571605e+12
1.327584e+12
1.374394e+12
1.726857e+12
2.000992e+12
2.402757e+12
2.806789e+12
3.304879e+12
3.624267e+12
3.860695e+12
4.114696e+12
4.250755e+12
4.313781e+12
4.30233e+12
4.219345e+12
4.057855e+12
3.788955e+12
3.521567e+12
3.18486e+12
2.728453e+12
2.333459e+12
1.927657e+12
1.645957e+12
1.271484e+12
1.382639e+12
1.806564e+12
2.187205e+12
2.621114e+12
3.045543e+12
3.676915e+12
4.179943e+12
4.548048e+12
4.815338e+12
5.048221e+12
5.204231e+12
5.282956e+12
5.271455e+12
5.173841e+12
4.992479e+12
4.730714e+12
4.432365e+12
4.045755e+12
3.55396e+12
2.968134e+12
2.54423e+12
2.120307e+12
1.674462e+12
1.217199e+12
1.329376e+12
1.788884e+12
2.26381e+12
2.756022e+12
3.404147e+12
3.947699e+12
4.540185e+12
5.038726e+12
5.428752e+12
5.749337e+12
6.005318e+12
6.187087e+12
6.285501e+12
6.280377e+12
6.172747e+12
5.966042e+12
5.669857e+12
5.305524e+12
4.8975e+12
4.403584e+12
3.852851e+12
3.325063e+12
2.707421e+12
2.200747e+12
1.606879e+12
1.116474e+12
1.267123e+12
1.664209e+12
2.168861e+12
2.7459e+12
3.460851e+12
4.147859e+12
4.761643e+12
5.339718e+12
5.862919e+12
6.289327e+12
6.649561e+12
6.932265e+12
7.136823e+12
7.251636e+12
7.254785e+12
7.14365e+12
6.948725e+12
6.672607e+12
6.289161e+12
5.8368e+12
5.295841e+12
4.73802e+12
4.127264e+12
3.455867e+12
2.71643e+12
2.104745e+12
1.475162e+12
9.719399e+11
1.182093e+12
1.529977e+12
1.935035e+12
2.559118e+12
3.358236e+12
4.124445e+12
4.840277e+12
5.482156e+12
6.091354e+12
6.680556e+12
7.165477e+12
7.568794e+12
7.876598e+12
8.091821e+12
8.212389e+12
8.229097e+12
8.14061e+12
7.927005e+12
7.615743e+12
7.201293e+12
6.709478e+12
6.13282e+12
5.504376e+12
4.878498e+12
4.176148e+12
3.399265e+12
2.541481e+12
1.936101e+12
1.324071e+12
8.068013e+11
1.309865e+12
1.713997e+12
2.328683e+12
2.988823e+12
3.912689e+12
4.735068e+12
5.467043e+12
6.202991e+12
6.874322e+12
7.476421e+12
7.988231e+12
8.413572e+12
8.747984e+12
8.977057e+12
9.099961e+12
9.115697e+12
9.017683e+12
8.807855e+12
8.480588e+12
8.049271e+12
7.531198e+12
6.928588e+12
6.261364e+12
5.542713e+12
4.835363e+12
4.032115e+12
3.040704e+12
2.408314e+12
1.80638e+12
1.107235e+12
1.175807e+12
1.569154e+12
2.066797e+12
2.721392e+12
3.566316e+12
4.454226e+12
5.297078e+12
6.123814e+12
6.893897e+12
7.606582e+12
8.222136e+12
8.75454e+12
9.178697e+12
9.502998e+12
9.723341e+12
9.849027e+12
9.856969e+12
9.735049e+12
9.534152e+12
9.213559e+12
8.7986e+12
8.2717e+12
7.653351e+12
6.971168e+12
6.23634e+12
5.431918e+12
4.640787e+12
3.798794e+12
2.845725e+12
2.204848e+12
1.581375e+12
1.042965e+12
1.302336e+12
1.691496e+12
2.309603e+12
3.171624e+12
4.052683e+12
4.931844e+12
5.854991e+12
6.743398e+12
7.572132e+12
8.316823e+12
8.963316e+12
9.513264e+12
9.943122e+12
1.026785e+13
1.04892e+13
1.061063e+13
1.057334e+13
1.045672e+13
1.024674e+13
9.856994e+12
9.403723e+12
8.853635e+12
8.249951e+12
7.589476e+12
6.880391e+12
6.084867e+12
5.197114e+12
4.3556e+12
3.455993e+12
2.451207e+12
1.907438e+12
1.319684e+12
1.418164e+12
1.853495e+12
2.549017e+12
3.503963e+12
4.434711e+12
5.370232e+12
6.345989e+12
7.316461e+12
8.196181e+12
8.982239e+12
9.674564e+12
1.025361e+13
1.06906e+13
1.100421e+13
1.120315e+13
1.128317e+13
1.123322e+13
1.111317e+13
1.083112e+13
1.050074e+13
1.011686e+13
9.560395e+12
8.934982e+12
8.244801e+12
7.459963e+12
6.594512e+12
5.638015e+12
4.727927e+12
3.781333e+12
2.703265e+12
2.10278e+12
1.4603e+12
1.556127e+12
2.083184e+12
2.77034e+12
3.75844e+12
4.720245e+12
5.722637e+12
6.740102e+12
7.754474e+12
8.683647e+12
9.489219e+12
1.017955e+13
1.073115e+13
1.110909e+13
1.13675e+13
1.156453e+13
1.167142e+13
1.168219e+13
1.161356e+13
1.141489e+13
1.108138e+13
1.057214e+13
9.981597e+12
9.333829e+12
8.608389e+12
7.816459e+12
6.945147e+12
5.991902e+12
4.981207e+12
4.006628e+12
2.892837e+12
2.13667e+12
1.513511e+12
1.228367e+12
1.69159e+12
2.241877e+12
3.072753e+12
3.985359e+12
4.939857e+12
5.979873e+12
7.032444e+12
8.053397e+12
8.986665e+12
9.826462e+12
1.04571e+13
1.094307e+13
1.1267e+13
1.163117e+13
1.190846e+13
1.199346e+13
1.198269e+13
1.186651e+13
1.163809e+13
1.130105e+13
1.087242e+13
1.031313e+13
9.6473e+12
8.904103e+12
8.105036e+12
7.213007e+12
6.241234e+12
5.187689e+12
4.222693e+12
3.261602e+12
2.229809e+12
1.61601e+12
9.678611e+11
1.271317e+12
1.65239e+12
2.276898e+12
3.20053e+12
4.124956e+12
5.088975e+12
6.143112e+12
7.211741e+12
8.233756e+12
9.203565e+12
1.001791e+13
1.065107e+13
1.106105e+13
1.139751e+13
1.184823e+13
1.213977e+13
1.225845e+13
1.228495e+13
1.220498e+13
1.200428e+13
1.168019e+13
1.12277e+13
1.064548e+13
9.948464e+12
9.15336e+12
8.315808e+12
7.405311e+12
6.411996e+12
5.331498e+12
4.361272e+12
3.38723e+12
2.283347e+12
1.606158e+12
9.906896e+11
1.291702e+12
1.670124e+12
2.302045e+12
3.252988e+12
4.192533e+12
5.168971e+12
6.223749e+12
7.295286e+12
8.312747e+12
9.278921e+12
1.013664e+13
1.081175e+13
1.128205e+13
1.170181e+13
1.207373e+13
1.230769e+13
1.243023e+13
1.245711e+13
1.237668e+13
1.217817e+13
1.185426e+13
1.140219e+13
1.081796e+13
1.010766e+13
9.294685e+12
8.423711e+12
7.499551e+12
6.493018e+12
5.396432e+12
4.424957e+12
3.444097e+12
2.317234e+12
1.608285e+12
9.783828e+11
1.283254e+12
1.669613e+12
2.304578e+12
3.258654e+12
4.200164e+12
5.180412e+12
6.232535e+12
7.292257e+12
8.297851e+12
9.243705e+12
1.010852e+13
1.082224e+13
1.135106e+13
1.179195e+13
1.214239e+13
1.23693e+13
1.249304e+13
1.251789e+13
1.24334e+13
1.223006e+13
1.189977e+13
1.1439e+13
1.084528e+13
1.012513e+13
9.302686e+12
8.425734e+12
7.493264e+12
6.480808e+12
5.380143e+12
4.414594e+12
3.441101e+12
2.324129e+12
1.616389e+12
9.8165e+11
1.25363e+12
1.653532e+12
2.283968e+12
3.220731e+12
4.149408e+12
5.120749e+12
6.157514e+12
7.199234e+12
8.189788e+12
9.114421e+12
9.958924e+12
1.069223e+13
1.125192e+13
1.169326e+13
1.203616e+13
1.22687e+13
1.239854e+13
1.242314e+13
1.233318e+13
1.212048e+13
1.177905e+13
1.130625e+13
1.070176e+13
9.975642e+12
9.162606e+12
8.308757e+12
7.38109e+12
6.371468e+12
5.282653e+12
4.32791e+12
3.365612e+12
2.298091e+12
1.609289e+12
9.911307e+11
1.246614e+12
1.699975e+12
2.259155e+12
3.125253e+12
4.03515e+12
4.989612e+12
5.996618e+12
7.015153e+12
7.987578e+12
8.884788e+12
9.699006e+12
1.041526e+13
1.100307e+13
1.145144e+13
1.179281e+13
1.202712e+13
1.215429e+13
1.216996e+13
1.206703e+13
1.183919e+13
1.148303e+13
1.099816e+13
1.038571e+13
9.662276e+12
8.875607e+12
8.045856e+12
7.147612e+12
6.155504e+12
5.104781e+12
4.158668e+12
3.18372e+12
2.241259e+12
1.544177e+12
1.000476e+12
1.523793e+12
2.092693e+12
2.802573e+12
3.803221e+12
4.765249e+12
5.734517e+12
6.730419e+12
7.679501e+12
8.552017e+12
9.338447e+12
1.00482e+13
1.061872e+13
1.106366e+13
1.140203e+13
1.163226e+13
1.174958e+13
1.174994e+13
1.163003e+13
1.138659e+13
1.101935e+13
1.053078e+13
9.921046e+12
9.219648e+12
8.474087e+12
7.666144e+12
6.793685e+12
5.830743e+12
4.856599e+12
3.906725e+12
2.843061e+12
2.167002e+12
1.323475e+12
1.367704e+12
1.852781e+12
2.578495e+12
3.54276e+12
4.480129e+12
5.397341e+12
6.349313e+12
7.268773e+12
8.116807e+12
8.89331e+12
9.557606e+12
1.00988e+13
1.053314e+13
1.086357e+13
1.108262e+13
1.118477e+13
1.116863e+13
1.10354e+13
1.078433e+13
1.041811e+13
9.941027e+12
9.34934e+12
8.683933e+12
7.966413e+12
7.192665e+12
6.3412e+12
5.425642e+12
4.548046e+12
3.593641e+12
2.544412e+12
1.861648e+12
1.204936e+12
1.229888e+12
1.672627e+12
2.321988e+12
3.204031e+12
4.082579e+12
4.960787e+12
5.86966e+12
6.757022e+12
7.576059e+12
8.298239e+12
8.921891e+12
9.441964e+12
9.86951e+12
1.018932e+13
1.039624e+13
1.048499e+13
1.045834e+13
1.032121e+13
1.007509e+13
9.7249e+12
9.274746e+12
8.719403e+12
8.093144e+12
7.394108e+12
6.644926e+12
5.824025e+12
4.977378e+12
4.106037e+12
3.207572e+12
2.299314e+12
1.632009e+12
1.070033e+12
1.140821e+12
1.538666e+12
2.061144e+12
2.725797e+12
3.56427e+12
4.42993e+12
5.287636e+12
6.114725e+12
6.874852e+12
7.556182e+12
8.164795e+12
8.684768e+12
9.10578e+12
9.411778e+12
9.60975e+12
9.690047e+12
9.661392e+12
9.530834e+12
9.300618e+12
8.975809e+12
8.554475e+12
8.037335e+12
7.437896e+12
6.771494e+12
6.047232e+12
5.284367e+12
4.491801e+12
3.576807e+12
2.738997e+12
2.092683e+12
1.375818e+12
9.918663e+11
1.209954e+12
1.681104e+12
2.31776e+12
2.958903e+12
3.843565e+12
4.674918e+12
5.440166e+12
6.150614e+12
6.795239e+12
7.37045e+12
7.86374e+12
8.260541e+12
8.559888e+12
8.751668e+12
8.829928e+12
8.806229e+12
8.688639e+12
8.475354e+12
8.16953e+12
7.767379e+12
7.295476e+12
6.728289e+12
6.099677e+12
5.408002e+12
4.695559e+12
3.911912e+12
2.987431e+12
2.396765e+12
1.673287e+12
1.107992e+12
1.105751e+12
1.485443e+12
1.885601e+12
2.523798e+12
3.28726e+12
4.034482e+12
4.755332e+12
5.402005e+12
5.992265e+12
6.531174e+12
6.990259e+12
7.360676e+12
7.646114e+12
7.828706e+12
7.911742e+12
7.893033e+12
7.786563e+12
7.587511e+12
7.305441e+12
6.936824e+12
6.508421e+12
5.965107e+12
5.407854e+12
4.820831e+12
4.119993e+12
3.370236e+12
2.60163e+12
1.944084e+12
1.530026e+12
1.144432e+12
1.193605e+12
1.606081e+12
2.132225e+12
2.694051e+12
3.349682e+12
4.014035e+12
4.596301e+12
5.148625e+12
5.666781e+12
6.085616e+12
6.42613e+12
6.6921e+12
6.858407e+12
6.936513e+12
6.919634e+12
6.828322e+12
6.653016e+12
6.396806e+12
6.074248e+12
5.727399e+12
5.269054e+12
4.744754e+12
4.181034e+12
3.507038e+12
2.798323e+12
2.258598e+12
1.711037e+12
1.357812e+12
1.280911e+12
1.723988e+12
2.237039e+12
2.686281e+12
3.287051e+12
3.764213e+12
4.297289e+12
4.780996e+12
5.160548e+12
5.465211e+12
5.702462e+12
5.838058e+12
5.901262e+12
5.890536e+12
5.835224e+12
5.720391e+12
5.535777e+12
5.285169e+12
4.966756e+12
4.534658e+12
3.99295e+12
3.500864e+12
2.844115e+12
2.37883e+12
1.901283e+12
1.541633e+12
1.364246e+12
1.759555e+12
2.176092e+12
2.585654e+12
2.948666e+12
3.516987e+12
3.991156e+12
4.333436e+12
4.584109e+12
4.803987e+12
4.924366e+12
4.986736e+12
4.992845e+12
4.950962e+12
4.855994e+12
4.686724e+12
4.479963e+12
4.17713e+12
3.74044e+12
3.171029e+12
2.783926e+12
2.345526e+12
1.983538e+12
1.676817e+12
1.400973e+12
1.730603e+12
1.966584e+12
2.388038e+12
2.735102e+12
3.1969e+12
3.504895e+12
3.726318e+12
3.962346e+12
4.07019e+12
4.12585e+12
4.134642e+12
4.103083e+12
4.018955e+12
3.826705e+12