/*--------------------------------*- C++ -*----------------------------------*\
  =========                 |
  \\      /  F ield         | OpenFOAM: The Open Source CFD Toolbox
   \\    /   O peration     | Website:  https://openfoam.org
    \\  /    A nd           | Version:  6
     \\/     M anipulation  |
\*---------------------------------------------------------------------------*/
FoamFile
{
    version     2.0;
    format      ascii;
    class       volScalarField;
    location    "50/region0/neutronTransport";
    object      rho;
}
// * * * * * * * * * * * * * * * * * * * * * * * * * * * * * * * * * * * * * //

dimensions      [1 -3 0 0 0 0 0];

internalField   nonuniform List<scalar> 
203709
(
3295.884
3295.682
3295.456
3295.379
3296.711
3296.591
3296.294
3296.145
3295.974
3295.862
3295.753
3295.97
3296.915
3296.87
3296.853
3296.804
3296.65
3296.555
3296.456
3296.396
3296.345
3296.442
3296.467
3296.552
3297
3296.977
3296.973
3296.967
3296.947
3296.901
3296.858
3296.813
3296.807
3296.807
3296.878
3296.934
3296.985
3297.059
3297.042
3297.034
3297.033
3297.033
3297.036
3297.04
3297.05
3297.066
3297.077
3297.09
3297.132
3297.148
3297.135
3297.144
3297.111
3297.115
3297.105
3297.093
3297.078
3297.066
3297.026
3297.014
3297.062
3297.138
3297.188
3297.194
3297.168
3297.129
3297.084
3297.144
3297.189
3297.25
3297.319
3297.385
3297.401
3297.33
3297.127
3296.954
3296.933
3297.069
3297.262
3297.411
3297.48
3297.483
3297.457
3297.415
3297.519
3297.279
3297.36
3297.495
3297.669
3297.833
3297.743
3297.448
3297.096
3296.876
3296.888
3297.092
3297.368
3297.604
3297.747
3297.799
3297.779
3297.806
3297.679
3297.499
3297.516
3297.633
3297.786
3297.884
3297.82
3297.579
3297.247
3296.97
3296.87
3296.976
3297.233
3297.541
3297.809
3297.982
3298.05
3298.023
3297.893
3297.739
3297.717
3297.788
3297.881
3297.903
3297.783
3297.532
3297.236
3297.011
3296.937
3297.03
3297.255
3297.547
3297.837
3298.069
3298.206
3298.226
3298.032
3297.948
3297.913
3297.938
3297.955
3297.867
3297.66
3297.391
3297.154
3297.03
3297.051
3297.203
3297.441
3297.716
3297.98
3298.196
3298.34
3298.341
3298.057
3298.013
3297.983
3297.883
3297.683
3297.434
3297.216
3297.103
3297.125
3297.272
3297.502
3297.767
3298.028
3298.253
3298.422
3298.505
3298.037
3297.941
3297.812
3297.603
3297.38
3297.21
3297.149
3297.219
3297.403
3297.661
3297.945
3298.214
3298.447
3298.621
3298.734
3298.693
3297.677
3297.469
3297.298
3297.211
3297.238
3297.384
3297.626
3297.923
3298.23
3298.511
3298.743
3298.928
3299.039
3299.064
3297.498
3297.346
3297.378
3297.504
3297.715
3298
3298.317
3298.63
3298.905
3299.13
3299.295
3299.427
3299.467
3299.348
3298.087
3298.086
3298.278
3298.539
3298.844
3299.13
3299.382
3299.578
3299.727
3299.834
3299.94
3299.889
3299.341
3299.382
3299.674
3299.892
3300.065
3300.185
3300.266
3300.265
3300.476
3300.525
3300.621
3300.631
3296.068
3295.558
3295.196
3294.894
3294.643
3294.398
3294.123
3293.821
3293.53
3293.396
3297.35
3296.575
3296.066
3295.677
3295.342
3295.037
3294.768
3294.52
3294.271
3294.016
3293.774
3293.615
3293.624
3293.786
3297.768
3297.258
3296.689
3296.249
3295.911
3295.61
3295.297
3294.99
3294.733
3294.51
3294.303
3294.096
3293.961
3293.936
3294.017
3294.225
3298.217
3297.707
3297.276
3296.865
3296.525
3296.241
3295.932
3295.668
3295.337
3295.065
3294.862
3294.604
3294.488
3294.405
3294.363
3294.415
3294.567
3294.777
3298.592
3298.057
3297.585
3297.24
3296.956
3296.709
3296.535
3296.299
3296.05
3295.783
3295.529
3295.278
3295.125
3295.021
3294.876
3294.886
3294.95
3295.069
3295.219
3295.411
3298.932
3298.341
3297.727
3297.331
3297.091
3296.874
3296.745
3296.659
3296.525
3296.366
3296.178
3295.995
3295.794
3295.651
3295.533
3295.503
3295.657
3295.632
3295.734
3295.893
3296.034
3296.17
3298.648
3297.923
3297.406
3297.105
3296.909
3296.808
3296.729
3296.689
3296.636
3296.573
3296.488
3296.388
3296.27
3296.204
3296.161
3296.176
3296.317
3296.574
3296.622
3296.711
3296.79
3296.844
3299.277
3298.513
3297.636
3297.201
3296.994
3296.885
3296.791
3296.75
3296.736
3296.73
3296.727
3296.72
3296.708
3296.684
3296.669
3296.68
3296.723
3296.814
3296.935
3296.913
3296.902
3296.889
3296.873
3296.825
3299.233
3298.466
3297.594
3297.162
3296.976
3296.897
3296.836
3296.812
3296.801
3296.792
3296.765
3296.749
3296.78
3296.84
3296.89
3296.913
3296.915
3296.91
3296.905
3296.924
3296.907
3296.88
3296.831
3296.769
3299.2
3298.531
3297.743
3297.241
3297.042
3296.987
3297.009
3297.063
3297.088
3297.054
3296.886
3296.73
3296.693
3296.789
3296.952
3297.104
3297.202
3297.25
3297.266
3297.264
3297.27
3297.214
3297.135
3297.022
3299.166
3298.643
3297.97
3297.492
3297.167
3297.117
3297.2
3297.381
3297.571
3297.496
3297.219
3296.894
3296.677
3296.655
3296.811
3297.058
3297.305
3297.497
3297.617
3297.64
3297.672
3297.628
3297.558
3297.437
3299.108
3298.741
3298.221
3297.768
3297.419
3297.314
3297.381
3297.54
3297.667
3297.629
3297.413
3297.097
3296.814
3296.681
3296.741
3296.961
3297.263
3297.563
3297.806
3297.965
3298.011
3298.011
3297.957
3297.859
3299.008
3298.778
3298.412
3298.038
3297.723
3297.578
3297.592
3297.676
3297.721
3297.636
3297.416
3297.132
3296.892
3296.783
3296.84
3297.042
3297.336
3297.658
3297.953
3298.184
3298.275
3298.315
3298.285
3298.214
3298.868
3298.732
3298.498
3298.23
3298.028
3297.863
3297.818
3297.82
3297.753
3297.575
3297.323
3297.081
3296.933
3296.926
3297.063
3297.308
3297.611
3297.924
3298.21
3298.45
3298.517
3298.589
3298.569
3298.506
3298.712
3298.612
3298.47
3298.315
3298.134
3298.001
3297.918
3297.821
3297.638
3297.4
3297.177
3297.046
3297.049
3297.19
3297.438
3297.745
3298.064
3298.358
3298.603
3298.738
3298.865
3298.885
3298.849
3298.772
3298.582
3298.459
3298.342
3298.219
3298.083
3297.957
3297.812
3297.609
3297.383
3297.202
3297.128
3297.188
3297.377
3297.662
3297.996
3298.339
3298.649
3298.901
3299.088
3299.122
3299.225
3299.221
3299.15
3299.034
3298.522
3298.332
3298.178
3298.037
3297.872
3297.724
3297.513
3297.327
3297.232
3297.259
3297.411
3297.667
3297.993
3298.355
3298.708
3299.034
3299.291
3299.478
3299.52
3299.642
3299.643
3299.593
3299.479
3299.29
3298.342
3298.116
3297.912
3297.712
3297.6
3297.472
3297.497
3297.621
3297.844
3298.136
3298.471
3298.82
3299.167
3299.467
3299.731
3299.906
3300.039
3300.033
3300.107
3300.088
3300.005
3299.844
3298.735
3298.466
3298.249
3298.127
3298.12
3298.255
3298.394
3298.548
3298.801
3299.083
3299.379
3299.667
3299.948
3300.149
3300.335
3300.419
3300.46
3300.565
3300.559
3300.531
3300.45
3300.196
3299.039
3298.958
3298.947
3298.986
3299.088
3299.27
3299.498
3299.728
3299.955
3300.186
3300.392
3300.594
3300.685
3300.746
3300.866
3300.879
3300.949
3300.975
3300.952
3300.847
3299.641
3299.645
3299.741
3299.849
3300.019
3300.226
3300.473
3300.658
3300.832
3300.951
3301.008
3301.095
3301.104
3301.146
3301.187
3301.275
3301.259
3301.2
3300.226
3300.391
3300.491
3300.712
3300.898
3301.053
3301.183
3301.276
3301.315
3301.314
3301.304
3301.316
3301.349
3301.368
3301.418
3301.363
3301.001
3301.046
3301.325
3301.442
3301.53
3301.564
3301.551
3301.515
3301.465
3301.418
3301.398
3301.408
3301.414
3301.437
3301.751
3301.794
3301.796
3301.74
3301.653
3301.566
3301.482
3301.414
3301.381
3301.399
3295.901
3295.442
3295.127
3294.865
3294.557
3294.14
3293.635
3293.134
3297.977
3297.027
3296.189
3295.698
3295.297
3295.004
3294.759
3294.472
3294.085
3293.613
3293.153
3292.946
3292.973
3293.105
3298.281
3297.727
3296.863
3296.089
3295.568
3295.179
3294.884
3294.644
3294.379
3294.035
3293.625
3293.235
3293.087
3293.166
3293.391
3293.844
3299.367
3298.754
3298.146
3297.535
3296.74
3296.093
3295.505
3295.107
3294.796
3294.544
3294.291
3293.993
3293.657
3293.337
3293.224
3293.294
3293.593
3294.079
3294.852
3295.484
3299.604
3299.245
3298.671
3298.04
3297.444
3296.64
3296.022
3295.505
3295.111
3294.778
3294.5
3294.246
3293.985
3293.72
3293.474
3293.365
3293.417
3293.704
3294.144
3294.78
3295.5
3296.246
3299.807
3299.539
3299.172
3298.577
3297.972
3297.294
3296.61
3296.077
3295.626
3295.251
3294.907
3294.603
3294.336
3294.093
3293.873
3293.684
3293.575
3293.589
3293.786
3294.117
3294.641
3295.173
3295.724
3295.967
3299.779
3299.5
3299.086
3298.495
3297.815
3297.226
3296.662
3296.23
3295.855
3295.52
3295.189
3294.872
3294.592
3294.349
3294.128
3293.948
3293.843
3293.842
3293.971
3294.231
3294.576
3295.009
3295.418
3295.766
3299.882
3299.711
3299.428
3298.974
3298.291
3297.681
3297.166
3296.711
3296.378
3296.091
3295.82
3295.537
3295.245
3294.965
3294.709
3294.49
3294.34
3294.236
3294.23
3294.335
3294.536
3294.839
3295.152
3295.491
3295.795
3296.036
3299.912
3299.845
3299.674
3299.334
3298.746
3298.054
3297.46
3297.003
3296.652
3296.423
3296.244
3296.064
3295.863
3295.649
3295.431
3295.21
3295.02
3294.881
3294.806
3294.849
3294.946
3295.119
3295.354
3295.673
3295.967
3296.178
3296.385
3296.563
3299.869
3299.808
3299.619
3299.208
3298.498
3297.717
3297.151
3296.773
3296.537
3296.406
3296.319
3296.236
3296.14
3296.026
3295.888
3295.738
3295.629
3295.554
3295.538
3295.622
3295.808
3296.017
3296.225
3296.412
3296.623
3296.693
3296.77
3296.854
3299.796
3299.745
3299.551
3299.033
3298.254
3297.406
3296.904
3296.629
3296.486
3296.426
3296.401
3296.387
3296.372
3296.35
3296.317
3296.27
3296.231
3296.22
3296.266
3296.375
3296.53
3296.596
3296.635
3296.664
3296.729
3296.74
3296.748
3296.815
3299.776
3299.681
3299.648
3299.474
3298.939
3298.126
3297.25
3296.781
3296.593
3296.514
3296.492
3296.485
3296.476
3296.461
3296.446
3296.468
3296.519
3296.571
3296.606
3296.625
3296.641
3296.66
3296.665
3296.673
3296.669
3296.656
3296.634
3296.57
3296.512
3296.439
3299.701
3299.595
3299.545
3299.395
3298.906
3298.129
3297.292
3296.79
3296.642
3296.647
3296.699
3296.729
3296.715
3296.576
3296.436
3296.393
3296.468
3296.616
3296.772
3296.89
3296.963
3297.005
3297.016
3297.023
3297.005
3296.965
3296.888
3296.759
3296.589
3296.404
3299.629
3299.492
3299.426
3299.304
3298.905
3298.229
3297.464
3296.939
3296.755
3296.799
3296.986
3297.202
3297.15
3296.891
3296.591
3296.384
3296.349
3296.482
3296.717
3296.974
3297.195
3297.353
3297.435
3297.466
3297.456
3297.42
3297.332
3297.192
3296.96
3296.644
3299.561
3299.387
3299.293
3299.191
3298.896
3298.364
3297.715
3297.203
3296.97
3296.976
3297.139
3297.3
3297.293
3297.102
3296.805
3296.53
3296.389
3296.432
3296.638
3296.942
3297.265
3297.547
3297.747
3297.838
3297.859
3297.844
3297.785
3297.685
3297.469
3297.105
3299.51
3299.295
3299.158
3299.055
3298.846
3298.466
3297.968
3297.523
3297.269
3297.212
3297.285
3297.355
3297.306
3297.119
3296.856
3296.621
3296.506
3296.553
3296.751
3297.054
3297.401
3297.733
3297.996
3298.141
3298.198
3298.204
3298.172
3298.126
3297.981
3297.67
3299.481
3299.234
3299.041
3298.908
3298.746
3298.492
3298.146
3297.808
3297.575
3297.479
3297.466
3297.423
3297.277
3297.053
3296.826
3296.681
3296.673
3296.81
3297.065
3297.392
3297.739
3298.063
3298.318
3298.463
3298.531
3298.543
3298.51
3298.498
3298.42
3298.202
3299.46
3299.21
3298.966
3298.778
3298.613
3298.428
3298.198
3297.958
3297.766
3297.645
3297.542
3297.375
3297.156
3296.948
3296.824
3296.831
3296.98
3297.244
3297.578
3297.934
3298.269
3298.552
3298.748
3298.868
3298.919
3298.918
3298.855
3298.855
3298.799
3298.625
3299.446
3299.215
3298.945
3298.7
3298.489
3298.305
3298.123
3297.937
3297.765
3297.603
3297.4
3297.184
3297.014
3296.948
3297.018
3297.222
3297.531
3297.897
3298.275
3298.624
3298.915
3299.134
3299.266
3299.347
3299.379
3299.36
3299.259
3299.254
3299.182
3298.956
3299.234
3298.974
3298.692
3298.444
3298.207
3297.997
3297.798
3297.599
3297.384
3297.205
3297.116
3297.15
3297.313
3297.589
3297.944
3298.337
3298.725
3299.075
3299.363
3299.581
3299.725
3299.829
3299.884
3299.902
3299.865
3299.753
3299.713
3299.603
3299.439
3299.176
3298.931
3298.573
3298.267
3297.994
3297.754
3297.575
3297.482
3297.5
3297.626
3297.853
3298.16
3298.519
3298.897
3299.261
3299.581
3299.844
3300.043
3300.186
3300.297
3300.376
3300.418
3300.433
3300.331
3300.324
3300.182
3299.997
3299.665
3299.491
3299.278
3299.045
3298.75
3298.511
3298.366
3298.306
3298.336
3298.456
3298.65
3298.914
3299.22
3299.537
3299.839
3300.104
3300.311
3300.468
3300.588
3300.681
3300.794
3300.849
3300.874
3300.885
3300.81
3300.739
3300.585
3300.349
3299.694
3299.557
3299.467
3299.373
3299.252
3299.189
3299.201
3299.287
3299.442
3299.655
3299.908
3300.164
3300.399
3300.595
3300.742
3300.838
3300.905
3300.978
3301.049
3301.141
3301.158
3301.156
3301.133
3301.117
3301.014
3300.866
3299.891
3299.838
3299.83
3299.836
3299.868
3299.959
3300.097
3300.284
3300.499
3300.713
3300.893
3301.024
3301.106
3301.146
3301.162
3301.177
3301.22
3301.266
3301.318
3301.292
3301.264
3301.251
3301.213
3301.146
3300.133
3300.18
3300.249
3300.343
3300.478
3300.658
3300.819
3301.004
3301.177
3301.314
3301.391
3301.409
3301.396
3301.362
3301.324
3301.305
3301.326
3301.347
3301.373
3301.321
3301.29
3301.258
3301.201
3301.124
3300.547
3300.733
3300.839
3301.089
3301.26
3301.424
3301.568
3301.656
3301.69
3301.658
3301.586
3301.507
3301.428
3301.361
3301.326
3301.345
3301.369
3301.389
3301.333
3301.294
3301.231
3301.184
3301.21
3301.367
3301.585
3301.75
3301.845
3301.882
3301.906
3301.852
3301.744
3301.622
3301.515
3301.42
3301.347
3301.314
3301.348
3301.399
3301.44
3301.368
3301.312
3301.262
3301.968
3302.058
3302.036
3302.034
3301.974
3301.87
3301.73
3301.593
3301.483
3301.394
3301.331
3301.307
3301.358
3301.464
3301.539
3301.497
3302.204
3302.122
3302.054
3301.956
3301.837
3301.685
3301.548
3301.45
3301.379
3301.338
3301.325
3301.394
3301.556
3301.73
3301.936
3301.797
3301.643
3301.513
3301.432
3301.386
3301.378
3301.444
3296.183
3295.772
3295.458
3295.139
3294.712
3294.202
3298.634
3297.788
3297.018
3296.215
3295.814
3295.455
3295.161
3294.836
3294.392
3293.848
3293.183
3292.812
3292.585
3292.508
3299.4
3298.778
3298.332
3297.498
3296.751
3295.999
3295.48
3295.123
3294.839
3294.519
3294.088
3293.571
3293.03
3292.755
3292.651
3292.693
3292.868
3292.957
3299.583
3299.23
3298.65
3298.127
3297.213
3296.401
3295.683
3295.095
3294.722
3294.442
3294.134
3293.742
3293.306
3292.941
3292.764
3292.792
3292.991
3293.29
3293.643
3294.088
3299.766
3299.469
3299.092
3298.532
3297.847
3296.946
3296.13
3295.377
3294.777
3294.385
3294.102
3293.811
3293.47
3293.122
3292.867
3292.801
3292.956
3293.301
3293.771
3294.309
3295.03
3295.676
3299.85
3299.675
3299.394
3298.915
3298.308
3297.598
3296.723
3295.924
3295.177
3294.578
3294.155
3293.851
3293.569
3293.278
3293.014
3292.851
3292.865
3293.098
3293.531
3294.104
3294.781
3295.586
3296.413
3296.796
3299.899
3299.791
3299.621
3299.261
3298.738
3298.112
3297.39
3296.549
3295.796
3295.105
3294.532
3294.089
3293.754
3293.468
3293.209
3293.002
3292.892
3292.931
3293.167
3293.616
3294.214
3294.928
3295.773
3296.566
3297.022
3297.01
3299.934
3299.882
3299.781
3299.541
3299.133
3298.586
3297.942
3297.22
3296.443
3295.776
3295.176
3294.657
3294.217
3293.855
3293.553
3293.302
3293.096
3292.975
3292.994
3293.181
3293.572
3294.12
3294.774
3295.547
3296.338
3296.903
3297.076
3296.803
3299.993
3299.926
3299.875
3299.748
3299.458
3299.023
3298.447
3297.786
3297.093
3296.412
3295.853
3295.354
3294.904
3294.491
3294.121
3293.794
3293.519
3293.312
3293.191
3293.183
3293.312
3293.595
3294.019
3294.532
3295.125
3295.721
3296.214
3296.72
3296.759
3296.601
3300.002
3299.925
3299.85
3299.691
3299.378
3298.914
3298.296
3297.623
3296.981
3296.416
3295.983
3295.604
3295.246
3294.893
3294.553
3294.236
3293.957
3293.738
3293.605
3293.564
3293.638
3293.834
3294.138
3294.527
3294.968
3295.419
3295.899
3296.263
3296.611
3296.741
3300.241
3299.997
3299.895
3299.798
3299.618
3299.296
3298.787
3298.098
3297.401
3296.815
3296.367
3296.063
3295.817
3295.577
3295.323
3295.062
3294.806
3294.562
3294.361
3294.227
3294.174
3294.229
3294.377
3294.606
3294.902
3295.271
3295.656
3295.996
3296.326
3296.573
3296.769
3296.897
3300.16
3299.959
3299.836
3299.72
3299.544
3299.21
3298.626
3297.818
3297.072
3296.566
3296.247
3296.063
3295.936
3295.818
3295.688
3295.541
3295.367
3295.197
3295.07
3294.988
3294.974
3295.05
3295.223
3295.477
3295.749
3295.994
3296.232
3296.412
3296.578
3296.77
3296.856
3296.948
3300.153
3299.926
3299.764
3299.636
3299.464
3299.114
3298.455
3297.504
3296.764
3296.37
3296.172
3296.086
3296.046
3296.02
3295.992
3295.956
3295.908
3295.848
3295.798
3295.784
3295.836
3295.955
3296.118
3296.226
3296.304
3296.368
3296.444
3296.505
3296.573
3296.712
3296.729
3296.847
3300.118
3299.871
3299.679
3299.54
3299.377
3299.028
3298.335
3297.326
3296.583
3296.291
3296.182
3296.153
3296.145
3296.138
3296.128
3296.116
3296.132
3296.177
3296.231
3296.276
3296.309
3296.339
3296.369
3296.384
3296.401
3296.415
3296.424
3296.417
3296.39
3296.4
3296.396
3296.505
3300.426
3300.131
3299.837
3299.592
3299.435
3299.281
3298.958
3298.297
3297.328
3296.584
3296.306
3296.281
3296.322
3296.348
3296.336
3296.225
3296.1
3296.056
3296.12
3296.26
3296.422
3296.555
3296.646
3296.704
3296.731
3296.744
3296.745
3296.729
3296.671
3296.554
3296.397
3296.239
3296.144
3296.075
3300.296
3300.077
3299.79
3299.512
3299.326
3299.173
3298.897
3298.32
3297.459
3296.731
3296.412
3296.403
3296.568
3296.786
3296.756
3296.514
3296.236
3296.04
3296.002
3296.124
3296.355
3296.621
3296.862
3297.043
3297.149
3297.195
3297.206
3297.198
3297.143
3297.007
3296.77
3296.44
3296.165
3295.935
3300.145
3299.99
3299.732
3299.438
3299.217
3299.052
3298.825
3298.365
3297.659
3296.993
3296.627
3296.566
3296.706
3296.88
3296.897
3296.728
3296.45
3296.187
3296.047
3296.085
3296.288
3296.597
3296.938
3297.243
3297.464
3297.58
3297.627
3297.647
3297.635
3297.551
3297.333
3296.922
3296.512
3296.044
3300.001
3299.899
3299.678
3299.379
3299.121
3298.928
3298.73
3298.388
3297.857
3297.306
3296.936
3296.807
3296.851
3296.927
3296.906
3296.75
3296.512
3296.29
3296.179
3296.226
3296.427
3296.741
3297.106
3297.459
3297.741
3297.913
3297.997
3298.043
3298.069
3298.054
3297.92
3297.552
3297.104
3296.439
3299.863
3299.798
3299.624
3299.339
3299.052
3298.816
3298.617
3298.36
3297.989
3297.578
3297.258
3297.092
3297.051
3297.021
3296.906
3296.712
3296.507
3296.374
3296.372
3296.516
3296.784
3297.128
3297.496
3297.84
3298.111
3298.284
3298.378
3298.434
3298.472
3298.496
3298.441
3298.182
3297.82
3297.131
3299.729
3299.661
3299.546
3299.305
3299.016
3298.738
3298.507
3298.283
3298.018
3297.728
3297.479
3297.306
3297.189
3297.038
3296.841
3296.654
3296.545
3296.564
3296.725
3297.004
3297.358
3297.734
3298.089
3298.389
3298.609
3298.748
3298.827
3298.877
3298.905
3298.932
3298.902
3298.726
3298.498
3297.921
3299.556
3299.482
3299.3
3299.022
3298.72
3298.439
3298.192
3297.96
3297.731
3297.52
3297.33
3297.126
3296.921
3296.766
3296.715
3296.8
3297.02
3297.346
3297.731
3298.127
3298.49
3298.794
3299.027
3299.186
3299.287
3299.35
3299.393
3299.406
3299.41
3299.357
3299.209
3299.072
3299.599
3299.529
3299.358
3299.096
3298.785
3298.467
3298.166
3297.898
3297.653
3297.422
3297.2
3297.026
3296.948
3296.994
3297.169
3297.459
3297.828
3298.234
3298.631
3298.985
3299.274
3299.494
3299.658
3299.774
3299.85
3299.906
3299.945
3299.953
3299.92
3299.776
3299.688
3299.505
3299.713
3299.634
3299.5
3299.274
3299.001
3298.672
3298.328
3298.01
3297.744
3297.552
3297.453
3297.461
3297.581
3297.805
3298.115
3298.478
3298.857
3299.215
3299.524
3299.772
3299.959
3300.095
3300.212
3300.298
3300.358
3300.407
3300.443
3300.455
3300.393
3300.202
3300.079
3299.872
3299.811
3299.749
3299.688
3299.544
3299.343
3299.119
3298.877
3298.653
3298.481
3298.389
3298.389
3298.488
3298.675
3298.935
3299.235
3299.542
3299.824
3300.061
3300.241
3300.372
3300.47
3300.546
3300.63
3300.682
3300.717
3300.755
3300.802
3300.798
3300.726
3300.574
3300.409
3300.179
3299.909
3299.861
3299.781
3299.659
3299.526
3299.403
3299.308
3299.26
3299.275
3299.359
3299.517
3299.728
3299.966
3300.198
3300.397
3300.55
3300.654
3300.715
3300.755
3300.792
3300.823
3300.866
3300.872
3300.882
3300.908
3300.959
3300.946
3300.87
3300.769
3300.658
3300.023
3300.019
3300
3299.957
3299.922
3299.906
3299.93
3299.995
3300.097
3300.234
3300.415
3300.602
3300.77
3300.894
3300.966
3300.995
3300.989
3300.964
3300.947
3300.94
3300.929
3300.932
3300.902
3300.889
3300.914
3300.984
3300.968
3300.903
3300.84
3300.761
3300.211
3300.225
3300.265
3300.358
3300.44
3300.569
3300.709
3300.851
3300.983
3301.135
3301.244
3301.302
3301.305
3301.263
3301.199
3301.12
3301.043
3300.993
3300.956
3300.912
3300.891
3300.879
3300.885
3300.924
3301.001
3300.948
3300.882
3300.848
3300.492
3300.653
3300.818
3301.003
3301.193
3301.347
3301.459
3301.529
3301.613
3301.62
3301.567
3301.472
3301.355
3301.24
3301.123
3301.019
3300.949
3300.902
3300.881
3300.911
3300.949
3300.981
3301.025
3301.036
3300.915
3300.866
3301.063
3301.337
3301.49
3301.721
3301.825
3301.866
3301.845
3301.849
3301.762
3301.628
3301.474
3301.321
3301.186
3301.061
3300.964
3300.922
3300.921
3300.961
3301.072
3301.176
3301.228
3301.181
3301.131
3300.984
3301.756
3301.922
3302.093
3302.102
3302.097
3301.996
3301.937
3301.79
3301.615
3301.443
3301.287
3301.16
3301.054
3300.987
3301.001
3301.065
3301.18
3301.387
3301.462
3301.537
3301.392
3301.299
3302.234
3302.309
3302.292
3302.215
3302.088
3301.998
3301.824
3301.63
3301.46
3301.315
3301.212
3301.139
3301.111
3301.203
3301.341
3301.524
3301.731
3301.797
3301.861
3301.681
3302.476
3302.382
3302.293
3302.154
3302.077
3301.873
3301.719
3301.566
3301.44
3301.369
3301.335
3301.333
3301.435
3301.631
3301.85
3302.076
3302.117
3302.227
3302.398
3302.228
3302.143
3301.929
3301.834
3301.71
3301.603
3301.559
3301.557
3301.557
3301.635
3301.903
3302.189
3302.53
3302.036
3301.908
3301.811
3301.792
3301.833
3301.932
3298.209
3297.474
3296.735
3296.261
3295.889
3295.584
3295.212
3294.713
3294.156
3293.694
3299.444
3299.045
3298.345
3297.793
3297.073
3296.32
3295.818
3295.466
3295.146
3294.729
3294.169
3293.631
3293.107
3292.663
3292.504
3292.432
3299.548
3299.276
3298.813
3298.021
3297.319
3296.48
3295.773
3295.16
3294.796
3294.462
3294.051
3293.615
3293.142
3292.752
3292.482
3292.416
3292.413
3292.508
3299.911
3299.705
3299.413
3299.015
3298.482
3297.632
3296.791
3295.826
3295.054
3294.466
3294.102
3293.76
3293.363
3292.969
3292.616
3292.395
3292.332
3292.449
3292.607
3292.854
3293.195
3293.432
3299.878
3299.823
3299.604
3299.21
3298.701
3298.11
3297.259
3296.324
3295.257
3294.437
3293.869
3293.51
3293.172
3292.81
3292.494
3292.278
3292.226
3292.345
3292.626
3293.013
3293.527
3294.078
3294.784
3295.309
3299.828
3299.806
3299.712
3299.397
3298.927
3298.401
3297.776
3296.922
3295.951
3294.851
3293.983
3293.426
3293.069
3292.744
3292.437
3292.22
3292.142
3292.249
3292.539
3292.996
3293.59
3294.315
3295.107
3295.759
3296.298
3296.306
3299.797
3299.779
3299.727
3299.528
3299.119
3298.659
3298.14
3297.496
3296.64
3295.67
3294.607
3293.738
3293.156
3292.786
3292.473
3292.219
3292.092
3292.127
3292.355
3292.771
3293.36
3294.094
3294.938
3295.793
3296.441
3296.574
3296.298
3295.92
3299.974
3299.839
3299.756
3299.598
3299.292
3298.889
3298.446
3297.931
3297.266
3296.413
3295.484
3294.513
3293.697
3293.107
3292.702
3292.376
3292.142
3292.044
3292.11
3292.39
3292.872
3293.525
3294.315
3295.189
3296.021
3296.551
3296.569
3296.256
3295.851
3295.651
3299.983
3299.838
3299.681
3299.429
3299.116
3298.733
3298.298
3297.765
3297.076
3296.247
3295.403
3294.56
3293.828
3293.251
3292.816
3292.456
3292.176
3292.065
3292.134
3292.401
3292.853
3293.468
3294.211
3295.038
3295.858
3296.437
3296.561
3296.306
3296.009
3295.803
3300.285
3300.003
3299.791
3299.561
3299.306
3299.007
3298.64
3298.191
3297.62
3296.912
3296.143
3295.424
3294.739
3294.123
3293.593
3293.151
3292.776
3292.48
3292.323
3292.328
3292.505
3292.842
3293.324
3293.921
3294.594
3295.304
3295.963
3296.415
3296.501
3296.282
3296.16
3296.178
3300.712
3300.39
3300.043
3299.726
3299.466
3299.221
3298.942
3298.577
3298.08
3297.458
3296.765
3296.103
3295.545
3295.041
3294.574
3294.136
3293.734
3293.372
3293.07
3292.869
3292.8
3292.87
3293.076
3293.405
3293.831
3294.324
3294.852
3295.377
3295.923
3296.329
3296.51
3296.5
3296.428
3296.384
3300.682
3300.358
3300.011
3299.662
3299.392
3299.162
3298.899
3298.496
3297.931
3297.252
3296.589
3296.051
3295.658
3295.334
3295.029
3294.719
3294.409
3294.113
3293.848
3293.648
3293.541
3293.542
3293.657
3293.873
3294.17
3294.538
3294.954
3295.379
3295.785
3296.163
3296.471
3296.694
3296.756
3296.66
3300.611
3300.299
3299.921
3299.583
3299.324
3299.112
3298.836
3298.393
3297.724
3296.95
3296.325
3295.93
3295.69
3295.521
3295.369
3295.206
3295.027
3294.821
3294.636
3294.503
3294.431
3294.439
3294.537
3294.745
3295.035
3295.33
3295.601
3295.856
3296.085
3296.305
3296.537
3296.722
3296.876
3296.873
3300.903
3300.681
3300.346
3299.911
3299.536
3299.265
3299.052
3298.766
3298.278
3297.481
3296.606
3296.097
3295.842
3295.727
3295.671
3295.632
3295.592
3295.544
3295.486
3295.422
3295.375
3295.37
3295.439
3295.573
3295.729
3295.853
3295.953
3296.041
3296.131
3296.22
3296.325
3296.482
3296.621
3296.81
3296.868
3296.886
3300.744
3300.617
3300.31
3299.885
3299.497
3299.208
3298.981
3298.697
3298.183
3297.314
3296.394
3295.986
3295.838
3295.797
3295.786
3295.779
3295.771
3295.762
3295.774
3295.817
3295.873
3295.928
3295.974
3296.016
3296.053
3296.079
3296.104
3296.13
3296.151
3296.157
3296.154
3296.185
3296.255
3296.449
3296.502
3296.639
3300.517
3300.434
3300.192
3299.814
3299.444
3299.146
3298.906
3298.628
3298.13
3297.278
3296.396
3295.975
3295.912
3295.935
3295.954
3295.933
3295.847
3295.736
3295.692
3295.75
3295.887
3296.054
3296.203
3296.31
3296.379
3296.416
3296.437
3296.447
3296.443
3296.394
3296.284
3296.145
3296.03
3296.039
3296.068
3296.206
3300.3
3300.248
3300.024
3299.72
3299.385
3299.084
3298.829
3298.561
3298.113
3297.351
3296.537
3296.087
3296.012
3296.141
3296.343
3296.333
3296.105
3295.849
3295.666
3295.628
3295.747
3295.979
3296.254
3296.51
3296.706
3296.826
3296.882
3296.905
3296.912
3296.868
3296.726
3296.48
3296.176
3295.936
3295.803
3295.796
3300.055
3300.033
3299.846
3299.606
3299.317
3299.021
3298.752
3298.491
3298.11
3297.482
3296.774
3296.309
3296.171
3296.268
3296.438
3296.471
3296.318
3296.059
3295.81
3295.679
3295.718
3295.923
3296.24
3296.593
3296.913
3297.145
3297.275
3297.336
3297.375
3297.383
3297.296
3297.054
3296.655
3296.242
3295.877
3295.709
3299.849
3299.833
3299.664
3299.47
3299.237
3298.961
3298.681
3298.419
3298.098
3297.612
3297.041
3296.605
3296.41
3296.412
3296.476
3296.471
3296.342
3296.129
3295.926
3295.826
3295.88
3296.089
3296.412
3296.789
3297.153
3297.444
3297.628
3297.726
3297.794
3297.851
3297.848
3297.697
3297.337
3296.859
3296.286
3295.871
3299.695
3299.664
3299.492
3299.31
3299.132
3298.898
3298.618
3298.348
3298.065
3297.698
3297.267
3296.901
3296.687
3296.611
3296.579
3296.485
3296.322
3296.146
3296.035
3296.049
3296.206
3296.484
3296.84
3297.218
3297.568
3297.845
3298.028
3298.133
3298.211
3298.288
3298.34
3298.288
3298.05
3297.646
3297.022
3296.407
3299.624
3299.563
3299.412
3299.181
3299.006
3298.821
3298.564
3298.286
3298.014
3297.72
3297.398
3297.109
3296.903
3296.769
3296.632
3296.464
3296.309
3296.229
3296.272
3296.45
3296.744
3297.108
3297.491
3297.849
3298.15
3298.371
3298.513
3298.599
3298.671
3298.747
3298.81
3298.802
3298.669
3298.395
3297.911
3297.306
3299.576
3299.503
3299.366
3299.105
3298.903
3298.732
3298.514
3298.241
3297.964
3297.691
3297.423
3297.175
3296.964
3296.769
3296.589
3296.467
3296.446
3296.556
3296.795
3297.133
3297.526
3297.923
3298.283
3298.579
3298.803
3298.954
3299.049
3299.111
3299.177
3299.242
3299.292
3299.279
3299.187
3298.974
3298.691
3298.205
3299.487
3299.485
3299.414
3299.156
3298.917
3298.725
3298.524
3298.256
3297.961
3297.673
3297.401
3297.15
3296.939
3296.793
3296.743
3296.811
3297.001
3297.3
3297.672
3298.074
3298.462
3298.801
3299.073
3299.271
3299.411
3299.501
3299.559
3299.604
3299.669
3299.73
3299.763
3299.728
3299.651
3299.435
3299.221
3298.833
3299.629
3299.562
3299.332
3299.079
3298.868
3298.678
3298.444
3298.18
3297.905
3297.656
3297.473
3297.375
3297.38
3297.495
3297.715
3298.017
3298.368
3298.729
3299.063
3299.345
3299.562
3299.716
3299.814
3299.882
3299.921
3299.948
3299.979
3300.053
3300.117
3300.153
3300.129
3300.057
3299.843
3299.664
3299.764
3299.736
3299.601
3299.365
3299.163
3298.997
3298.82
3298.646
3298.486
3298.362
3298.298
3298.314
3298.419
3298.607
3298.857
3299.138
3299.416
3299.663
3299.861
3300
3300.087
3300.134
3300.147
3300.151
3300.14
3300.137
3300.157
3300.254
3300.332
3300.397
3300.421
3300.379
3300.182
3299.984
3299.82
3299.859
3299.815
3299.671
3299.52
3299.398
3299.295
3299.211
3299.162
3299.157
3299.2
3299.298
3299.456
3299.652
3299.86
3300.048
3300.197
3300.3
3300.356
3300.368
3300.351
3300.314
3300.258
3300.201
3300.149
3300.125
3300.15
3300.282
3300.387
3300.496
3300.567
3300.558
3300.398
3300.229
3300.005
3300.028
3299.998
3299.911
3299.85
3299.836
3299.839
3299.884
3299.963
3300.063
3300.182
3300.333
3300.473
3300.58
3300.637
3300.646
3300.618
3300.561
3300.481
3300.394
3300.294
3300.19
3300.093
3300.037
3300.012
3300.047
3300.207
3300.36
3300.526
3300.638
3300.656
3300.543
3300.295
3300.296
3300.313
3300.336
3300.418
3300.49
3300.598
3300.707
3300.798
3300.872
3300.962
3300.999
3300.979
3300.906
3300.8
3300.681
3300.551
3300.42
3300.295
3300.167
3300.049
3299.948
3299.893
3299.903
3299.983
3300.21
3300.398
3300.58
3300.663
3300.751
3300.482
3300.603
3300.698
3300.857
3301.013
3301.103
3301.223
3301.299
3301.321
3301.306
3301.31
3301.233
3301.105
3300.938
3300.763
3300.595
3300.436
3300.294
3300.162
3300.032
3299.923
3299.883
3299.895
3299.971
3300.103
3300.393
3300.557
3300.62
3300.648
3300.689
3300.941
3301.142
3301.337
3301.57
3301.624
3301.687
3301.683
3301.614
3301.507
3301.435
3301.269
3301.074
3300.86
3300.66
3300.482
3300.316
3300.171
3300.059
3299.991
3299.964
3300.029
3300.135
3300.3
3300.474
3300.775
3300.728
3300.666
3300.639
3301.578
3301.816
3302.002
3302.048
3302.032
3301.931
3301.767
3301.572
3301.445
3301.219
3300.985
3300.75
3300.55
3300.386
3300.25
3300.159
3300.121
3300.152
3300.236
3300.433
3300.633
3300.886
3301.07
3301.141
3300.928
3300.762
3302.219
3302.393
3302.343
3302.313
3302.153
3301.933
3301.679
3301.526
3301.267
3301.012
3300.762
3300.572