/*--------------------------------*- C++ -*----------------------------------*\
  =========                 |
  \\      /  F ield         | OpenFOAM: The Open Source CFD Toolbox
   \\    /   O peration     | Website:  https://openfoam.org
    \\  /    A nd           | Version:  6
     \\/     M anipulation  |
\*---------------------------------------------------------------------------*/
FoamFile
{
    version     2.0;
    format      ascii;
    class       volScalarField;
    location    "50/region0/neutronTransport";
    object      rho;
}
// * * * * * * * * * * * * * * * * * * * * * * * * * * * * * * * * * * * * * //

dimensions      [1 -3 0 0 0 0 0];

internalField   nonuniform List<scalar> 
203709
(
3296.004
3295.795
3295.554
3295.453
3296.772
3296.662
3296.396
3296.246
3296.059
3295.916
3295.781
3295.938
3296.944
3296.906
3296.897
3296.852
3296.732
3296.626
3296.508
3296.423
3296.348
3296.416
3296.397
3296.487
3297.004
3296.988
3296.986
3296.982
3296.971
3296.943
3296.905
3296.85
3296.809
3296.794
3296.847
3296.877
3296.923
3296.998
3297.031
3297.018
3297.008
3297.001
3296.999
3297.001
3297.02
3297.048
3297.06
3297.067
3297.097
3297.113
3297.106
3297.121
3297.103
3297.112
3297.097
3297.079
3297.054
3297.02
3296.954
3296.941
3297.008
3297.1
3297.153
3297.151
3297.115
3297.067
3297.013
3297.047
3297.184
3297.25
3297.349
3297.497
3297.492
3297.306
3297.049
3296.856
3296.848
3297.011
3297.218
3297.363
3297.414
3297.398
3297.354
3297.303
3297.482
3297.293
3297.371
3297.521
3297.713
3297.818
3297.687
3297.36
3296.989
3296.771
3296.807
3297.039
3297.329
3297.558
3297.68
3297.708
3297.67
3297.687
3297.644
3297.507
3297.532
3297.65
3297.786
3297.84
3297.729
3297.453
3297.11
3296.845
3296.771
3296.906
3297.185
3297.502
3297.762
3297.916
3297.963
3297.917
3297.847
3297.73
3297.722
3297.789
3297.857
3297.829
3297.659
3297.378
3297.082
3296.879
3296.834
3296.954
3297.197
3297.498
3297.789
3298.013
3298.137
3298.142
3297.973
3297.905
3297.881
3297.896
3297.871
3297.732
3297.491
3297.216
3297
3296.909
3296.962
3297.136
3297.385
3297.662
3297.925
3298.137
3298.276
3298.271
3297.959
3297.916
3297.862
3297.715
3297.486
3297.239
3297.05
3296.977
3297.037
3297.209
3297.452
3297.719
3297.975
3298.194
3298.358
3298.439
3297.874
3297.759
3297.592
3297.376
3297.175
3297.049
3297.038
3297.15
3297.361
3297.629
3297.911
3298.172
3298.394
3298.557
3298.666
3298.626
3297.458
3297.264
3297.134
3297.1
3297.177
3297.359
3297.619
3297.918
3298.216
3298.483
3298.699
3298.868
3298.967
3298.989
3297.406
3297.287
3297.367
3297.525
3297.749
3298.033
3298.337
3298.632
3298.887
3299.092
3299.239
3299.352
3299.38
3299.266
3298.177
3298.166
3298.347
3298.588
3298.871
3299.133
3299.363
3299.538
3299.668
3299.757
3299.846
3299.781
3299.352
3299.387
3299.661
3299.859
3300.013
3300.118
3300.184
3300.171
3300.417
3300.458
3300.54
3300.542
3296.055
3295.576
3295.228
3294.935
3294.696
3294.473
3294.221
3293.935
3293.638
3293.467
3297.263
3296.554
3296.088
3295.727
3295.402
3295.1
3294.834
3294.596
3294.357
3294.11
3293.861
3293.676
3293.65
3293.771
3297.64
3297.207
3296.71
3296.313
3296.003
3295.709
3295.392
3295.078
3294.817
3294.593
3294.382
3294.163
3294.007
3293.954
3294.004
3294.195
3297.994
3297.587
3297.235
3296.892
3296.596
3296.346
3296.048
3295.782
3295.442
3295.16
3294.944
3294.67
3294.536
3294.434
3294.368
3294.395
3294.531
3294.737
3298.259
3297.796
3297.418
3297.145
3296.923
3296.742
3296.602
3296.391
3296.153
3295.887
3295.622
3295.352
3295.178
3295.05
3294.882
3294.867
3294.907
3295.006
3295.149
3295.339
3298.542
3297.967
3297.456
3297.158
3296.98
3296.833
3296.752
3296.695
3296.581
3296.446
3296.255
3296.063
3295.844
3295.68
3295.532
3295.482
3295.593
3295.544
3295.627
3295.749
3295.872
3296.003
3298.201
3297.596
3297.204
3296.993
3296.867
3296.8
3296.741
3296.711
3296.669
3296.617
3296.536
3296.435
3296.29
3296.211
3296.143
3296.132
3296.238
3296.459
3296.471
3296.56
3296.652
3296.697
3298.988
3298.136
3297.403
3297.085
3296.94
3296.87
3296.786
3296.744
3296.727
3296.719
3296.716
3296.717
3296.715
3296.686
3296.661
3296.645
3296.672
3296.754
3296.897
3296.881
3296.884
3296.888
3296.887
3296.861
3298.974
3298.166
3297.427
3297.093
3296.964
3296.9
3296.841
3296.811
3296.788
3296.764
3296.709
3296.688
3296.731
3296.804
3296.859
3296.877
3296.87
3296.858
3296.854
3296.856
3296.842
3296.82
3296.785
3296.742
3298.962
3298.291
3297.611
3297.198
3297.049
3297.009
3297.063
3297.165
3297.171
3297.048
3296.827
3296.646
3296.614
3296.73
3296.907
3297.058
3297.142
3297.169
3297.167
3297.15
3297.15
3297.094
3297.02
3296.92
3298.942
3298.438
3297.851
3297.447
3297.187
3297.15
3297.258
3297.457
3297.593
3297.466
3297.155
3296.804
3296.581
3296.575
3296.754
3297.016
3297.261
3297.435
3297.531
3297.529
3297.552
3297.502
3297.429
3297.311
3298.892
3298.55
3298.099
3297.715
3297.43
3297.349
3297.426
3297.57
3297.648
3297.563
3297.311
3296.978
3296.698
3296.582
3296.666
3296.907
3297.218
3297.514
3297.74
3297.878
3297.905
3297.895
3297.835
3297.735
3298.795
3298.587
3298.274
3297.963
3297.706
3297.594
3297.613
3297.677
3297.674
3297.539
3297.284
3296.991
3296.763
3296.678
3296.758
3296.977
3297.279
3297.601
3297.888
3298.104
3298.18
3298.208
3298.172
3298.098
3298.658
3298.534
3298.338
3298.12
3297.956
3297.825
3297.786
3297.76
3297.644
3297.427
3297.162
3296.931
3296.809
3296.832
3296.99
3297.244
3297.547
3297.855
3298.133
3298.364
3298.422
3298.484
3298.458
3298.393
3298.509
3298.41
3298.287
3298.156
3298.009
3297.893
3297.804
3297.671
3297.458
3297.214
3297.012
3296.917
3296.956
3297.124
3297.383
3297.69
3298
3298.281
3298.514
3298.644
3298.76
3298.773
3298.733
3298.655
3298.399
3298.264
3298.147
3298.029
3297.903
3297.775
3297.613
3297.394
3297.182
3297.04
3297.013
3297.117
3297.334
3297.629
3297.959
3298.289
3298.581
3298.815
3298.988
3299.014
3299.106
3299.096
3299.023
3298.911
3298.372
3298.168
3297.999
3297.845
3297.67
3297.515
3297.307
3297.164
3297.123
3297.201
3297.389
3297.663
3297.991
3298.34
3298.674
3298.976
3299.212
3299.379
3299.41
3299.516
3299.51
3299.453
3299.339
3299.158
3298.229
3297.991
3297.776
3297.575
3297.516
3297.432
3297.499
3297.651
3297.884
3298.174
3298.494
3298.821
3299.141
3299.415
3299.654
3299.809
3299.922
3299.903
3299.965
3299.937
3299.844
3299.683
3298.717
3298.465
3298.285
3298.2
3298.202
3298.33
3298.463
3298.609
3298.845
3299.105
3299.376
3299.638
3299.892
3300.07
3300.234
3300.303
3300.33
3300.419
3300.405
3300.369
3300.272
3300.008
3299.053
3298.981
3298.978
3299.021
3299.12
3299.295
3299.508
3299.723
3299.932
3300.141
3300.325
3300.503
3300.579
3300.627
3300.731
3300.736
3300.797
3300.817
3300.788
3300.674
3299.609
3299.626
3299.728
3299.836
3300
3300.196
3300.428
3300.594
3300.749
3300.851
3300.894
3300.968
3300.97
3301.004
3301.04
3301.125
3301.109
3301.047
3300.181
3300.349
3300.447
3300.658
3300.832
3300.972
3301.086
3301.162
3301.19
3301.181
3301.166
3301.173
3301.204
3301.222
3301.273
3301.218
3300.932
3300.974
3301.236
3301.34
3301.414
3301.436
3301.413
3301.372
3301.32
3301.272
3301.252
3301.262
3301.269
3301.292
3301.627
3301.66
3301.652
3301.591
3301.5
3301.414
3301.332
3301.266
3301.235
3301.253
3295.855
3295.417
3295.13
3294.912
3294.663
3294.305
3293.836
3293.327
3297.857
3296.941
3296.143
3295.667
3295.281
3295.012
3294.805
3294.57
3294.234
3293.793
3293.321
3293.048
3292.998
3293.089
3298.153
3297.618
3296.785
3296.053
3295.553
3295.177
3294.901
3294.69
3294.466
3294.165
3293.781
3293.378
3293.172
3293.172
3293.342
3293.761
3299.243
3298.613
3298.018
3297.43
3296.671
3296.066
3295.51
3295.126
3294.828
3294.595
3294.371
3294.104
3293.787
3293.458
3293.293
3293.296
3293.538
3293.987
3294.739
3295.362
3299.469
3299.11
3298.517
3297.905
3297.342
3296.588
3296.022
3295.54
3295.161
3294.835
3294.566
3294.325
3294.079
3293.823
3293.57
3293.428
3293.431
3293.664
3294.068
3294.703
3295.43
3296.208
3299.674
3299.391
3299.014
3298.406
3297.828
3297.211
3296.589
3296.114
3295.699
3295.338
3294.997
3294.69
3294.423
3294.179
3293.958
3293.758
3293.632
3293.612
3293.766
3294.07
3294.59
3295.135
3295.777
3296.094
3299.627
3299.326
3298.9
3298.292
3297.678
3297.163
3296.665
3296.289
3295.951
3295.633
3295.305
3294.982
3294.691
3294.438
3294.208
3294.013
3293.886
3293.857
3293.954
3294.185
3294.528
3294.983
3295.428
3295.811
3299.734
3299.536
3299.223
3298.728
3298.07
3297.527
3297.083
3296.692
3296.417
3296.171
3295.922
3295.649
3295.356
3295.068
3294.798
3294.563
3294.388
3294.259
3294.224
3294.299
3294.474
3294.761
3295.076
3295.413
3295.754
3296.019
3299.759
3299.678
3299.474
3299.075
3298.451
3297.785
3297.268
3296.886
3296.608
3296.438
3296.301
3296.152
3295.964
3295.745
3295.519
3295.281
3295.07
3294.904
3294.798
3294.805
3294.87
3295.014
3295.223
3295.51
3295.807
3296.033
3296.264
3296.465
3299.705
3299.624
3299.398
3298.912
3298.151
3297.446
3296.977
3296.683
3296.516
3296.424
3296.363
3296.297
3296.212
3296.099
3295.958
3295.778
3295.652
3295.548
3295.499
3295.544
3295.687
3295.839
3296.021
3296.229
3296.462
3296.582
3296.681
3296.775
3299.62
3299.55
3299.319
3298.717
3297.903
3297.189
3296.79
3296.59
3296.486
3296.439
3296.418
3296.405
3296.394
3296.377
3296.348
3296.289
3296.231
3296.184
3296.199
3296.284
3296.436
3296.53
3296.591
3296.643
3296.733
3296.77
3296.796
3296.873
3299.577
3299.493
3299.448
3299.243
3298.641
3297.828
3297.079
3296.721
3296.589
3296.528
3296.503
3296.484
3296.464
3296.42
3296.397
3296.427
3296.49
3296.545
3296.575
3296.585
3296.592
3296.609
3296.608
3296.616
3296.618
3296.62
3296.624
3296.59
3296.571
3296.526
3299.497
3299.397
3299.34
3299.169
3298.639
3297.883
3297.16
3296.766
3296.662
3296.703
3296.783
3296.798
3296.724
3296.531
3296.364
3296.322
3296.414
3296.577
3296.732
3296.835
3296.887
3296.908
3296.904
3296.904
3296.885
3296.851
3296.792
3296.688
3296.556
3296.414
3299.423
3299.289
3299.219
3299.085
3298.668
3298.024
3297.356
3296.93
3296.792
3296.867
3297.072
3297.25
3297.138
3296.845
3296.516
3296.298
3296.275
3296.429
3296.679
3296.935
3297.139
3297.272
3297.329
3297.345
3297.327
3297.29
3297.208
3297.08
3296.873
3296.599
3299.36
3299.182
3299.085
3298.976
3298.678
3298.181
3297.615
3297.191
3297.011
3297.038
3297.19
3297.302
3297.247
3297.02
3296.703
3296.426
3296.298
3296.361
3296.586
3296.899
3297.219
3297.484
3297.661
3297.732
3297.742
3297.722
3297.662
3297.564
3297.362
3297.027
3299.319
3299.095
3298.952
3298.843
3298.637
3298.29
3297.859
3297.491
3297.29
3297.253
3297.311
3297.335
3297.235
3297.01
3296.733
3296.505
3296.408
3296.474
3296.688
3296.998
3297.343
3297.665
3297.913
3298.042
3298.087
3298.087
3298.054
3298.007
3297.869
3297.575
3299.306
3299.047
3298.844
3298.702
3298.54
3298.309
3298.014
3297.736
3297.548
3297.47
3297.439
3297.347
3297.159
3296.915
3296.692
3296.568
3296.584
3296.739
3297.003
3297.328
3297.668
3297.98
3298.224
3298.357
3298.416
3298.421
3298.389
3298.376
3298.303
3298.098
3299.304
3299.041
3298.785
3298.586
3298.413
3298.237
3298.035
3297.833
3297.671
3297.554
3297.421
3297.223
3296.994
3296.801
3296.706
3296.746
3296.918
3297.192
3297.524
3297.867
3298.187
3298.455
3298.639
3298.747
3298.79
3298.783
3298.722
3298.721
3298.671
3298.51
3299.307
3299.069
3298.79
3298.532
3298.308
3298.118
3297.941
3297.768
3297.601
3297.429
3297.214
3297.008
3296.871
3296.848
3296.957
3297.186
3297.502
3297.862
3298.224
3298.551
3298.822
3299.022
3299.14
3299.209
3299.232
3299.207
3299.109
3299.103
3299.038
3298.827
3299.104
3298.844
3298.56
3298.302
3298.05
3297.83
3297.624
3297.417
3297.21
3297.07
3297.03
3297.109
3297.304
3297.595
3297.947
3298.324
3298.689
3299.013
3299.276
3299.471
3299.597
3299.686
3299.73
3299.74
3299.697
3299.585
3299.548
3299.444
3299.327
3299.077
3298.846
3298.482
3298.172
3297.894
3297.673
3297.529
3297.475
3297.524
3297.669
3297.902
3298.203
3298.544
3298.896
3299.231
3299.522
3299.758
3299.934
3300.058
3300.154
3300.222
3300.256
3300.264
3300.159
3300.153
3300.014
3299.832
3299.554
3299.396
3299.21
3299.011
3298.749
3298.546
3298.415
3298.366
3298.402
3298.52
3298.706
3298.954
3299.237
3299.527
3299.8
3300.037
3300.221
3300.357
3300.461
3300.541
3300.644
3300.694
3300.715
3300.723
3300.645
3300.577
3300.423
3300.181
3299.6
3299.48
3299.409
3299.337
3299.24
3299.194
3299.216
3299.305
3299.457
3299.659
3299.895
3300.129
3300.341
3300.513
3300.64
3300.721
3300.776
3300.84
3300.905
3300.994
3301.009
3301.008
3300.982
3300.968
3300.868
3300.72
3299.809
3299.77
3299.776
3299.794
3299.838
3299.936
3300.074
3300.254
3300.456
3300.652
3300.812
3300.925
3300.991
3301.019
3301.028
3301.039
3301.078
3301.122
3301.175
3301.149
3301.121
3301.109
3301.074
3301.011
3300.048
3300.107
3300.186
3300.288
3300.427
3300.606
3300.761
3300.934
3301.091
3301.212
3301.273
3301.28
3301.259
3301.221
3301.181
3301.162
3301.183
3301.203
3301.23
3301.178
3301.146
3301.114
3301.063
3300.994
3300.471
3300.661
3300.771
3301.015
3301.177
3301.328
3301.459
3301.532
3301.554
3301.513
3301.437
3301.357
3301.279
3301.214
3301.181
3301.2
3301.224
3301.244
3301.183
3301.144
3301.079
3301.039
3301.121
3301.277
3301.483
3301.634
3301.715
3301.743
3301.755
3301.694
3301.585
3301.464
3301.36
3301.269
3301.198
3301.167
3301.201
3301.25
3301.289
3301.212
3301.153
3301.098
3301.836
3301.914
3301.884
3301.875
3301.808
3301.704
3301.565
3301.432
3301.326
3301.241
3301.181
3301.159
3301.209
3301.312
3301.384
3301.334
3302.044
3301.956
3301.884
3301.785
3301.667
3301.519
3301.386
3301.291
3301.225
3301.187
3301.177
3301.244
3301.401
3301.569
3301.764
3301.626
3301.476
3301.35
3301.273
3301.231
3301.226
3301.294
3296.135
3295.758
3295.491
3295.237
3294.883
3294.429
3298.511
3297.689
3296.941
3296.165
3295.778
3295.449
3295.203
3294.943
3294.568
3294.074
3293.413
3293.005
3292.718
3292.607
3299.291
3298.661
3298.215
3297.405
3296.686
3295.954
3295.455
3295.126
3294.888
3294.629
3294.259
3293.781
3293.228
3292.908
3292.737
3292.73
3292.871
3292.942
3299.476
3299.119
3298.532
3298.014
3297.124
3296.349
3295.656
3295.088
3294.739
3294.497
3294.242
3293.899
3293.489
3293.109
3292.874
3292.833
3292.98
3293.241
3293.558
3293.965
3299.663
3299.36
3298.977
3298.411
3297.739
3296.868
3296.094
3295.375
3294.794
3294.419
3294.164
3293.913
3293.608
3293.275
3292.997
3292.871
3292.956
3293.248
3293.684
3294.187
3294.874
3295.509
3299.754
3299.57
3299.28
3298.794
3298.185
3297.495
3296.655
3295.906
3295.202
3294.625
3294.212
3293.923
3293.665
3293.395
3293.136
3292.95
3292.91
3293.077
3293.458
3293.999
3294.656
3295.445
3296.257
3296.628
3299.804
3299.688
3299.51
3299.14
3298.61
3297.986
3297.289
3296.495
3295.801
3295.16
3294.613
3294.177
3293.845
3293.564
3293.309
3293.1
3292.969
3292.966
3293.149
3293.551
3294.123
3294.834
3295.683
3296.458
3296.841
3296.733
3299.828
3299.777
3299.668
3299.419
3299.001
3298.446
3297.811
3297.126
3296.41
3295.812
3295.264
3294.774
3294.34
3293.972
3293.659
3293.396
3293.188
3293.049
3293.029
3293.173
3293.526
3294.058
3294.722
3295.528
3296.353
3296.886
3296.782
3296.371
3299.857
3299.807
3299.758
3299.623
3299.322
3298.874
3298.288
3297.647
3297.007
3296.399
3295.912
3295.467
3295.043
3294.637
3294.26
3293.919
3293.621
3293.396
3293.253
3293.214
3293.309
3293.563
3293.972
3294.495
3295.126
3295.779
3296.328
3296.728
3296.488
3296.286
3299.854
3299.792
3299.72
3299.55
3299.222
3298.737
3298.105
3297.462
3296.889
3296.405
3296.044
3295.717
3295.388
3295.045
3294.701
3294.368
3294.062
3293.815
3293.653
3293.581
3293.625
3293.795
3294.084
3294.473
3294.933
3295.418
3295.945
3296.317
3296.588
3296.548
3300.054
3299.83
3299.745
3299.652
3299.461
3299.115
3298.566
3297.853
3297.196
3296.694
3296.333
3296.097
3295.902
3295.698
3295.454
3295.19
3294.922
3294.652
3294.42
3294.252
3294.166
3294.186
3294.303
3294.509
3294.788
3295.135
3295.528
3295.896
3296.26
3296.528
3296.717
3296.811
3299.969
3299.781
3299.673
3299.562
3299.372
3299.002
3298.355
3297.509
3296.867
3296.462
3296.223
3296.092
3295.999
3295.905
3295.787
3295.641
3295.462
3295.251
3295.099
3294.983
3294.931
3294.967
3295.095
3295.286
3295.529
3295.796
3296.067
3296.29
3296.491
3296.706
3296.808
3296.9
3299.95
3299.734
3299.588
3299.465
3299.279
3298.888
3298.16
3297.199
3296.615
3296.315
3296.174
3296.114
3296.085
3296.065
3296.043
3296.011
3295.961
3295.879
3295.802
3295.741
3295.754
3295.839
3295.991
3296.129
3296.233
3296.325
3296.428
3296.519
3296.613
3296.765
3296.786
3296.883
3299.916
3299.672
3299.492
3299.358
3299.183
3298.798
3298.052
3297.073
3296.491
3296.277
3296.2
3296.174
3296.156
3296.134
3296.1
3296.077
3296.1
3296.156
3296.213
3296.251
3296.273
3296.294
3296.318
3296.332
3296.351
3296.372
3296.396
3296.416
3296.424
3296.476
3296.497
3296.615
3300.256
3299.935
3299.634
3299.396
3299.244
3299.083
3298.735
3298.042
3297.131
3296.523
3296.32
3296.334
3296.393
3296.408
3296.359
3296.193
3296.04
3295.994
3296.073
3296.228
3296.39
3296.509
3296.579
3296.614
3296.625
3296.631
3296.631
3296.623
3296.582
3296.497
3296.385
3296.274
3296.207
3296.146
3300.14
3299.893
3299.591
3299.313
3299.129
3298.972
3298.683
3298.097
3297.301
3296.687
3296.439
3296.47
3296.654
3296.848
3296.759
3296.483
3296.175
3295.966
3295.936
3296.078
3296.324
3296.59
3296.814
3296.968
3297.049
3297.078
3297.08
3297.071
3297.02
3296.901
3296.698
3296.418
3296.181
3295.974
3300.004
3299.821
3299.543
3299.241
3299.019
3298.851
3298.617
3298.165
3297.523
3296.956
3296.657
3296.63
3296.767
3296.899
3296.87
3296.666
3296.367
3296.098
3295.967
3296.021
3296.241
3296.56
3296.897
3297.185
3297.382
3297.478
3297.512
3297.526
3297.511
3297.432
3297.234
3296.865
3296.499
3296.067
3299.872
3299.746
3299.503
3299.192
3298.927
3298.729
3298.528
3298.198
3297.724
3297.258
3296.954
3296.856
3296.893
3296.931
3296.861
3296.666
3296.409
3296.189
3296.091
3296.155
3296.369
3296.688
3297.051
3297.394
3297.659
3297.815
3297.886
3297.924
3297.947
3297.934
3297.812
3297.474
3297.07
3296.453
3299.741
3299.659
3299.466
3299.166
3298.869
3298.625
3298.42
3298.174
3297.843
3297.498
3297.237
3297.099
3297.05
3296.978
3296.819
3296.601
3296.394
3296.275
3296.293
3296.452
3296.726
3297.067
3297.426
3297.757
3298.016
3298.176
3298.259
3298.307
3298.343
3298.37
3298.324
3298.088
3297.765
3297.132
3299.61
3299.532
3299.405
3299.151
3298.85
3298.563
3298.322
3298.1
3297.857
3297.607
3297.396
3297.24
3297.104
3296.92
3296.71
3296.53
3296.445
3296.491
3296.672
3296.959
3297.307
3297.67
3298.008
3298.291
3298.497
3298.624
3298.693
3298.736
3298.763
3298.792
3298.773
3298.616
3298.419
3297.89
3299.43
3299.35
3299.162
3298.877
3298.567
3298.276
3298.023
3297.794
3297.578
3297.379
3297.187
3296.972
3296.776
3296.649
3296.635
3296.753
3296.994
3297.325
3297.701
3298.078
3298.419
3298.7
3298.914
3299.058
3299.146
3299.2
3299.237
3299.249
3299.257
3299.214
3299.081
3298.967
3299.474
3299.402
3299.231
3298.97
3298.659
3298.337
3298.03
3297.754
3297.505
3297.27
3297.062
3296.924
3296.888
3296.972
3297.174
3297.474
3297.838
3298.225
3298.597
3298.923
3299.187
3299.385
3299.531
3299.632
3299.7
3299.748
3299.782
3299.788
3299.761
3299.626
3299.551
3299.385
3299.59
3299.511
3299.381
3299.163
3298.903
3298.59
3298.259
3297.953
3297.705
3297.544
3297.471
3297.5
3297.633
3297.86
3298.16
3298.503
3298.855
3299.184
3299.463
3299.685
3299.851
3299.971
3300.075
3300.152
3300.207
3300.253
3300.285
3300.298
3300.24
3300.053
3299.941
3299.746
3299.69
3299.63
3299.574
3299.438
3299.251
3299.048
3298.834
3298.64
3298.495
3298.422
3298.434
3298.537
3298.72
3298.966
3299.245
3299.525
3299.78
3299.99
3300.147
3300.261
3300.346
3300.413
3300.492
3300.541
3300.576
3300.614
3300.66
3300.657
3300.588
3300.436
3300.277
3300.05
3299.795
3299.751
3299.679
3299.568
3299.451
3299.347
3299.272
3299.243
3299.272
3299.363
3299.52
3299.721
3299.942
3300.153
3300.329
3300.462
3300.548
3300.596
3300.628
3300.66
3300.688
3300.732
3300.74
3300.751
3300.78
3300.832
3300.82
3300.744
3300.644
3300.531
3299.913
3299.914
3299.902
3299.869
3299.846
3299.845
3299.882
3299.957
3300.064
3300.199
3300.372
3300.545
3300.695
3300.801
3300.857
3300.874
3300.861
3300.831
3300.812
3300.805
3300.796
3300.801
3300.773
3300.763
3300.788
3300.858
3300.845
3300.782
3300.721
3300.642
3300.109
3300.13
3300.178
3300.281
3300.371
3300.506
3300.646
3300.784
3300.907
3301.046
3301.141
3301.184
3301.175
3301.126
3301.058
3300.979
3300.903
3300.855
3300.819
3300.778
3300.758
3300.745
3300.751
3300.788
3300.865
3300.82
3300.759
3300.73
3300.398
3300.565
3300.734
3300.92
3301.107
3301.253
3301.356
3301.413
3301.485
3301.481
3301.42
3301.321
3301.203
3301.09
3300.976
3300.875
3300.808
3300.763
3300.742
3300.771
3300.804
3300.832
3300.873
3300.887
3300.777
3300.737
3300.968
3301.239
3301.386
3301.607
3301.7
3301.73
3301.698
3301.693
3301.601
3301.465
3301.312
3301.163
3301.032
3300.912
3300.818
3300.779
3300.777
3300.815
3300.923
3301.018
3301.062
3301.01
3300.964
3300.832
3301.64
3301.796
3301.955
3301.956
3301.941
3301.832
3301.769
3301.62
3301.447
3301.278
3301.127
3301.005
3300.904
3300.84
3300.855
3300.918
3301.029
3301.23
3301.292
3301.356
3301.202
3301.114
3302.09
3302.155
3302.13
3302.048
3301.917
3301.825
3301.652
3301.461
3301.294
3301.154
3301.055
3300.987
3300.962
3301.054
3301.191
3301.369
3301.568
3301.62
3301.665
3301.475
3302.311
3302.212
3302.12
3301.98
3301.901
3301.7
3301.548
3301.399
3301.277
3301.21
3301.18
3301.181
3301.284
3301.479
3301.692
3301.912
3301.934
3302.016
3302.221
3302.052
3301.966
3301.755
3301.662
3301.541
3301.437
3301.397
3301.399
3301.403
3301.484
3301.749
3302.029
3302.36
3301.861
3301.735
3301.642
3301.627
3301.671
3301.774
3298.103
3297.392
3296.682
3296.233
3295.899
3295.651
3295.351
3294.925
3294.416
3293.963
3299.336
3298.93
3298.241
3297.701
3297.005
3296.273
3295.801
3295.492
3295.235
3294.892
3294.398
3293.892
3293.361
3292.862
3292.661
3292.562
3299.452
3299.172
3298.699
3297.924
3297.242
3296.43
3295.743
3295.161
3294.842
3294.572
3294.229
3293.844
3293.384
3292.967
3292.639
3292.527
3292.494
3292.568
3299.833
3299.618
3299.316
3298.909
3298.376
3297.549
3296.739
3295.806
3295.05
3294.487
3294.165
3293.884
3293.543
3293.179
3292.817
3292.554
3292.43
3292.503
3292.627
3292.835
3293.134
3293.332
3299.802
3299.741
3299.514
3299.113
3298.602
3298.016
3297.19
3296.293
3295.268
3294.462
3293.911
3293.589
3293.301
3292.978
3292.67
3292.426
3292.321
3292.381
3292.614
3292.958
3293.425
3293.93
3294.578
3295.093
3299.754
3299.727
3299.628
3299.306
3298.836
3298.31
3297.69
3296.863
3295.939
3294.891
3294.039
3293.49
3293.16
3292.872
3292.584
3292.355
3292.238
3292.286
3292.518
3292.927
3293.479
3294.163
3294.925
3295.573
3296.13
3296.12
3299.715
3299.701
3299.645
3299.443
3299.034
3298.573
3298.052
3297.413
3296.587
3295.673
3294.672
3293.83
3293.249
3292.89
3292.596
3292.344
3292.193
3292.184
3292.356
3292.718
3293.265
3293.968
3294.786
3295.624
3296.258
3296.367
3296.064
3295.678
3299.857
3299.741
3299.668
3299.513
3299.21
3298.808
3298.363
3297.841
3297.182
3296.366
3295.504
3294.603
3293.824
3293.236
3292.828
3292.502
3292.253
3292.136
3292.159
3292.382
3292.812
3293.436
3294.21
3295.074
3295.886
3296.361
3296.296
3295.943
3295.58
3295.423
3299.855
3299.729
3299.585
3299.341
3299.034
3298.651
3298.209
3297.666
3296.988
3296.209
3295.441
3294.671
3293.981
3293.412
3292.97
3292.602
3292.302
3292.146
3292.173
3292.395
3292.809
3293.407
3294.155
3294.999
3295.811
3296.302
3296.278
3295.939
3295.683
3295.564
3300.117
3299.856
3299.667
3299.455
3299.212
3298.919
3298.548
3298.085
3297.502
3296.82
3296.124
3295.493
3294.886
3294.315
3293.794
3293.339
3292.943
3292.614
3292.408
3292.369
3292.506
3292.813
3293.284
3293.898
3294.611
3295.367
3296.013
3296.299
3296.193
3295.935
3295.9
3296.031
3300.528
3300.206
3299.877
3299.587
3299.349
3299.117
3298.842
3298.466
3297.941
3297.314
3296.669
3296.094
3295.626
3295.195
3294.77
3294.345
3293.932
3293.546
3293.205
3292.954
3292.839
3292.87
3293.048
3293.364
3293.794
3294.31
3294.877
3295.439
3296.005
3296.294
3296.311
3296.239
3296.244
3296.28
3300.499
3300.17
3299.835
3299.51
3299.262
3299.046
3298.78
3298.351
3297.744
3297.063
3296.466
3296.023
3295.716
3295.457
3295.192
3294.894
3294.578
3294.264
3293.961
3293.714
3293.562
3293.523
3293.605
3293.798
3294.083
3294.437
3294.854
3295.302
3295.743
3296.14
3296.425
3296.582
3296.603
3296.506
3300.429
3300.109
3299.739
3299.42
3299.182
3298.981
3298.696
3298.209
3297.473
3296.716
3296.213
3295.91
3295.736
3295.61
3295.486
3295.337
3295.158
3294.943
3294.704
3294.534
3294.42
3294.385
3294.442
3294.591
3294.83
3295.118
3295.412
3295.703
3295.976
3296.235
3296.489
3296.675
3296.812
3296.78
3300.761
3300.508
3300.152
3299.719
3299.361
3299.109
3298.906
3298.61
3298.066
3297.188
3296.419
3296.033
3295.85
3295.771
3295.731
3295.702
3295.668
3295.624
3295.558
3295.463
3295.378
3295.318
3295.34
3295.436
3295.595
3295.741
3295.867
3295.984
3296.103
3296.223
3296.355
3296.523
3296.658
3296.822
3296.848
3296.841
3300.619
3300.463
3300.13
3299.695
3299.312
3299.039
3298.824
3298.53
3297.966
3297.052
3296.26
3295.965
3295.862
3295.828
3295.808
3295.785
3295.758
3295.735
3295.752
3295.803
3295.862
3295.91
3295.943
3295.974
3296.005
3296.03
3296.059
3296.094
3296.132
3296.166
3296.2
3296.266
3296.354
3296.54
3296.561
3296.666
3300.404
3300.293
3300.026
3299.632
3299.258
3298.968
3298.74
3298.457
3297.925
3297.063
3296.3
3295.984
3295.962
3295.999
3296.008
3295.966
3295.826
3295.687
3295.642
3295.713
3295.864
3296.033
3296.168
3296.253
3296.3
3296.321
3296.334
3296.345
3296.35
3296.321
3296.249
3296.157
3296.085
3296.111
3296.133
3296.236
3300.197
3300.125
3299.879
3299.553
3299.204
3298.902
3298.657
3298.389
3297.926
3297.177
3296.465
3296.106
3296.076
3296.224
3296.414
3296.349
3296.089
3295.801
3295.604
3295.573
3295.71
3295.956
3296.232
3296.471
3296.64
3296.734
3296.773
3296.788
3296.794
3296.757
3296.639
3296.435
3296.182
3295.974
3295.846
3295.826
3299.958
3299.92
3299.717
3299.455
3299.147
3298.842
3298.578
3298.321
3297.937
3297.335
3296.711
3296.326
3296.233
3296.335
3296.47
3296.459
3296.275
3295.994
3295.737
3295.61
3295.664
3295.885
3296.209
3296.559
3296.861
3297.07
3297.178
3297.227
3297.26
3297.267
3297.19
3296.978
3296.626
3296.256
3295.91
3295.731
3299.751
3299.726
3299.546
3299.336
3299.081
3298.791
3298.509
3298.251
3297.935
3297.477
3296.974
3296.607
3296.454
3296.46
3296.497
3296.448
3296.281
3296.047
3295.843
3295.752
3295.819
3296.038
3296.365
3296.739
3297.092
3297.367
3297.534
3297.62
3297.68
3297.735
3297.737
3297.605
3297.284
3296.855
3296.32
3295.916
3299.593
3299.556
3299.378
3299.186
3298.99
3298.74
3298.455
3298.184
3297.907
3297.564
3297.183
3296.873
3296.695
3296.622
3296.558
3296.426
3296.237
3296.056
3295.955
3295.984
3296.152
3296.434
3296.784
3297.152
3297.489
3297.754
3297.924
3298.019
3298.089
3298.165
3298.221
3298.183
3297.976
3297.62
3297.052
3296.487
3299.517
3299.451
3299.297
3299.06
3298.874
3298.676
3298.414
3298.132
3297.86
3297.579
3297.29
3297.036
3296.851
3296.711
3296.547
3296.365
3296.214
3296.151
3296.215
3296.409
3296.707
3297.064
3297.432
3297.773
3298.056
3298.264
3298.394
3298.472
3298.538
3298.612
3298.68
3298.684
3298.574
3298.339
3297.908
3297.377
3299.467
3299.39
3299.249
3298.985
3298.776
3298.597
3298.377
3298.102
3297.821
3297.551
3297.294
3297.06
3296.852
3296.651
3296.48
3296.381
3296.391
3296.527
3296.782
3297.122
3297.503
3297.88
3298.217
3298.491
3298.696
3298.834
3298.918
3298.974
3299.035
3299.1
3299.154
3299.15
3299.074
3298.888
3298.645
3298.219
3299.379
3299.37
3299.295
3299.036
3298.795
3298.6
3298.402
3298.138
3297.845
3297.553
3297.282
3297.042
3296.849
3296.732
3296.714
3296.811
3297.021
3297.324
3297.688
3298.07
3298.432
3298.744
3298.991
3299.169
3299.294
3299.374
3299.425
3299.468
3299.529
3299.59
3299.625
3299.595
3299.527
3299.331
3299.144
3298.795
3299.511
3299.443
3299.214
3298.963
3298.753
3298.57
3298.35
3298.106
3297.855
3297.633
3297.472
3297.396
3297.42
3297.547
3297.769
3298.061
3298.393
3298.727
3299.033
3299.287
3299.48
3299.616
3299.7
3299.76
3299.795
3299.822
3299.854
3299.926
3299.99
3300.026
3300
3299.931
3299.73
3299.567
3299.647
3299.619
3299.486
3299.255
3299.058
3298.899
3298.738
3298.584
3298.448
3298.35
3298.309
3298.341
3298.454
3298.641
3298.88
3299.141
3299.394
3299.615
3299.789
3299.91
3299.983
3300.02
3300.029
3300.033
3300.024
3300.025
3300.047
3300.144
3300.224
3300.284
3300.302
3300.258
3300.068
3299.881
3299.706
3299.745
3299.705
3299.566
3299.422
3299.309
3299.22
3299.152
3299.12
3299.131
3299.187
3299.291
3299.448
3299.635
3299.826
3299.995
3300.124
3300.209
3300.251
3300.255
3300.233
3300.195
3300.141
3300.088
3300.041
3300.023
3300.049
3300.185
3300.291
3300.393
3300.458
3300.443
3300.289
3300.124
3299.894
3299.92
3299.896
3299.816
3299.764
3299.762
3299.776
3299.831
3299.917
3300.019
3300.135
3300.276
3300.403
3300.494
3300.536
3300.533
3300.497
3300.436
3300.356
3300.27
3300.174
3300.074
3299.981
3299.929
3299.91
3299.948
3300.109
3300.261
3300.42
3300.528
3300.545
3300.434
3300.189
3300.195
3300.218
3300.248
3300.337
3300.415
3300.524
3300.631
3300.716
3300.78
3300.858
3300.883
3300.853
3300.773
3300.663
3300.544
3300.416
3300.289
3300.168
3300.044
3299.929
3299.832
3299.778
3299.789
3299.87
3300.097
3300.285
3300.464
3300.551
3300.64
3300.379
3300.503
3300.6
3300.762
3300.919
3301.006
3301.119
3301.188
3301.2
3301.175
3301.169
3301.085
3300.953
3300.787
3300.614
3300.45
3300.297
3300.161
3300.032
3299.904
3299.796
3299.755
3299.765
3299.839
3299.968
3300.256
3300.422
3300.493
3300.532
3300.578
3300.838
3301.038
3301.23
3301.458
3301.505
3301.556
3301.541
3301.464
3301.35
3301.273
3301.105
3300.911
3300.701
3300.506
3300.335
3300.174
3300.035
3299.926
3299.859
3299.829
3299.89
3299.987
3300.144
3300.31
3300.607
3300.574
3300.527
3300.514
3301.464
3301.696
3301.872
3301.909
3301.883
3301.773
3301.603
3301.405
3301.276
3301.051
3300.82
3300.59
3300.396
3300.238
3300.107
3300.02
3299.984
3300.014
3300.093
3300.282
3300.468
3300.706
3300.875
3300.946
3300.752
3300.606
3302.083
3302.248
3302.191
3302.152
3301.987
3301.763
3301.508
3301.355
3301.098
3300.847
3300.602
3300.418
3300.29
3300.21
3300.202
3300.262