/*--------------------------------*- C++ -*----------------------------------*\
  =========                 |
  \\      /  F ield         | OpenFOAM: The Open Source CFD Toolbox
   \\    /   O peration     | Website:  https://openfoam.org
    \\  /    A nd           | Version:  6
     \\/     M anipulation  |
\*---------------------------------------------------------------------------*/
FoamFile
{
    version     2.0;
    format      ascii;
    class       volScalarField;
    location    "50/region0/neutronTransport";
    object      volPower;
}
// * * * * * * * * * * * * * * * * * * * * * * * * * * * * * * * * * * * * * //

dimensions      [1 -1 -3 0 0 0 0];

internalField   nonuniform List<scalar> 
203709
(
524866.6
577504.4
577440.2
524992.7
548518.2
614100
760371
752363.1
752278.9
760344.8
614051.3
548569.6
535902.8
616278.1
770265.2
768060.6
789913.5
795365.6
795341.7
789880.2
767997.7
770269.7
616292.4
535987.5
535902.7
748695.1
764666
794676.3
810286.4
824009.2
830086.2
830115.6
823987.9
810256.6
794732.5
764769
748898.6
536118
616170.9
764579.8
799151.3
823689.9
842284.7
855720.9
862411.6
862447
855726.6
842331.4
823828.1
799342.8
764844.3
616432.2
548426.8
770113.4
794563.4
823620.4
848903.6
868862.9
882720.1
889604.1
889629.4
882789.9
869008.8
849081.7
823869
794902.5
770520.9
548690.2
613897.7
767819.2
810071.4
842106.9
868787.9
889532.8
903365.4
909922.6
909952.4
903486.6
889685
868976.7
842392.7
810401.6
768145.4
614199.1
524893.3
760268.6
789747.8
823818.6
855574.4
882616.5
903331.9
916203
922584.2
922584.5
916226.1
903330
882677
855711.1
824024
790009.6
760626.8
524995.9
577357.6
752190.7
795167.6
829923.4
862250.5
889449.6
909870.1
922627.6
929579.2
929383.4
922610.7
909922.2
889580.4
862398.9
830102.7
795436.3
752460.5
577550.3
577419.4
752343.5
795246.6
829934.5
862236.8
889416.8
909789.5
922578.5
929725
929545.9
922653
909940
889572.5
862414.3
830113.7
795446.1
752554.9
577650.4
524766.9
760418.7
789824.6
823843.7
855544.8
882537.6
903218.5
916128.1
922597.4
922595.2
916269.3
903423.7
882732.5
855739.3
824027.9
790005.7
760552.9
525024.8
613896.7
767859.8
810092.8
842095.4
868680.5
889383.5
903202.9
909824.3
909804.4
903366.4
889581.9
868899
842288.9
810265.2
768060
614137.1
548411.6
770119.7
794482.8
823503.9
848716.1
868667.8
882477.4
889455.4
889455
882652
868871.6
848972
823765.8
794745.8
770370.4
548598
616104.3
764438
798979.3
823497.8
842069.9
855543.2
862634.7
862648.2
855640.9
842244.2
823726.3
799256.9
764786.1
616375
535837.4
748601.4
764476.3
794498.2
810063.7
823838.8
830282.7
830311.9
823924.9
810211.3
794665.2
764670.4
748849.2
535955.7
535881.9
616164.2
770135.2
767833
789815.8
795497.6
795583.8
789895.7
768001.3
770260.4
616214.6
535933
548488.3
613969.8
760399.4
752678.4
752802.9
760467.7
614037.3
548501.2
524950.1
577515.2
577566.5
524955.2
439800.4
499950.8
520321.1
534301.8
543046.2
543054.8
534331.9
520365.5
500025.4
439916.6
448582.9
522744.2
665965.9
687704.4
712529.3
739877.2
761527.1
761544.7
739965.2
712549.5
687626.7
665836.2
522602.2
448475.5
459145.9
654968.8
691764.7
744997.1
795502.8
837536.2
891846.3
936645.5
936648.9
891878.3
837386.3
795277.2
744875.6
691704.3
655068
459225.3
463685.5
667225.5
727202.5
792689
860598
957297.7
1077068
1196235
1238981
1238957
1196066
1076902
957204.8
860591.6
792734
727281.1
667273.8
463796
459125.8
667150.9
734545.8
811267.2
938776.7
1092517
1258058
1379735
1470315
1617389
1617327
1470244
1379600
1257862
1092491
938734.6
811346.1
734602.9
667208.8
459226.7
448623.9
655152.8
727246.3
811321.7
985873.9
1219078
1379132
1510782
1722589
1817430
1873390
1873299
1817194
1722272
1510512
1378875
1218816
985791.3
811282.3
727294.4
655252.4
448755.1
522658.2
691765.2
792718.1
938810.4
1219064
1442806
1697183
1838026
1948059
2015986
2050553
2050458
2015709
1947715
1837693
1696882
1442647
1219061
938879
792922.7
692029.3
522874.6
439965.3
665965.8
744900.9
860576.6
1092474
1379231
1697153
1888364
2011782
2097162
2151385
2178127
2178072
2151220
2097008
2011704
1888401
1697382
1379670
1093029
861071.4
745285
666186.1
440025.4
500100.3
687873.4
795410.7
957351.1
1258317
1510987
1838022
2011736
2123787
2199434
2247295
2270644
2270655
2247332
2199567
2124045
2012159
1838618
1511668
1258984
957754.2
795824.6
688068.8
500176.6
520458.4
712764.5
837493.5
1076996
1380119
1722832
1948086
2097101
2199410
2269696
2314359
2336240
2336291
2314531
2270002
2199844
2097661
1948680
1723342
1380372
1077532
837934
712891.1
520521.8
534415
740160.3
892102
1196604
1470857
1817863
2016164
2151424
2247310
2314372
2357042
2377984
2377965
2357053
2314416
2247439
2151673
2016505
1818209
1471119
1196996
892340.6
740298.1
534549.1
543085.5
761676.9
936811.9
1239453
1618071
1874027
2050970
2178345
2270735
2336311
2378135
2398822
2398738
2378186
2336481
2270989
2178641
2051321
1874411
1618463
1239871
937198.2
761959.1
543291.4
542995.5
761540
936673.8
1239375
1618127
1874158
2051173
2178501
2270768
2336230
2378071
2398915
2398925
2378392
2336711
2271219
2178858
2051518
1874604
1618630
1239847
937107.2
761881.3
543237.3
534193.2
739975.3
892124.2
1196753
1470916
1818149
2016538
2151728
2247450
2314340
2356962
2378037
2378168
2357424
2314935
2248013
2152226
2017012
1818680
1471502
1197221
892544.7
740378.2
534478.3
520273.9
712690.1
837710.2
1077300
1380283
1723186
1948488
2097407
2199525
2269639
2314213
2336148
2336250
2314625
2270218
2200163
2098042
1949093
1723773
1380878
1077637
837997.9
713117.5
520585.5
499979.6
687860.8
795631.7
957471
1258663
1511333
1838337
2011911
2123787
2199329
2247159
2270593
2270693
2247562
2199937
2124520
2012683
1839049
1511825
1259033
957894.1
795885.6
688246.1
500268.9
439855.5
665992.2
745058.3
860645.9
1092764
1379466
1697315
1888395
2011724
2097087
2151407
2178257
2178382
2151823
2097749
2012542
1889272
1698106
1379967
1093113
861050.9
745282.3
666298.8
440110.9
522787.5
691814.1
792682.6
938844.4
1219158
1442824
1697185
1838087
1948204
2016337
2050994
2051139
2016759
1948864
1838892
1698055
1443577
1219661
939211.8
793106.2
692021.1
522829
448721.3
655081.2
727206.8
811308.7
985910.6
1219139
1379394
1511232
1723140
1818254
1874335
1874505
1818628
1723666
1511760
1380010
1219746
986322.8
811621.9
727561.2
655299
448629.7
459244.1
667379.6
734701.7
811307.5
938833.7
1092775
1258744
1380549
1471279
1618477
1618642
1471547
1380782
1258920
1093119
939184.8
811579.8
734909.4
667570.7
459256.6
463834.2
667358.5
727311.2
792902.7
860862
957498
1077467
1197136
1239918
1239974
1197112
1077531
957714
860936
792959
727399.1
667475
463885.5
459148.5
655217.7
691956.8
745119.4
795636.7
837908.2
892448.3
937228.7
937230.2
892415.6
837789.3
795678.9
745237.5
692009.8
655222
459159.3
448759.8
522835.9
666139.2
688066.5
712993.2
740353.6
761997.4
762007.3
740345.9
712920.2
687988.4
666253.2
522915.3
448764.2
439922.1
500068.7
520404.8
534367.4
543152.4
543149.2
534463.4
520510.5
500139.4
439913.3
372733.7
422668.1
435177.7
439991.7
439896.3
434893.1
422157.4
372325.8
372328.8
446632.9
489124.6
616256.1
639302.3
652791.3
658936.3
658843.6
652495.5
638827.5
616039.8
489011.7
446575.2
372457.5
410634.3
597501
654726.1
722040.5
795652.7
829828.9
850836.9
860701.4
860623
850603.5
829460.9
795267.3
721839.1
654593
597446.5
410841.8
384781.6
478305.4
642671.2
764072.1
895157.1
1042170
1116948
1160507
1189505
1204548
1204462
1189262
1160149
1116548
1041825
894917.3
764060
642575.6
478369.1
384798.7
388415.4
585802.3
680187.3
846339
1061374
1213751
1341218
1542298
1636233
1691569
1719123
1719057
1691414
1636063
1542229
1341376
1213964
1061455
846242
680322.9
585784.1
388445.9
384765.5
585920
702399.5
880661.2
1139068
1329362
1588183
1755631
1900881
2008770
2081963
2118487
2118427
2081853
2008567
1900689
1755582
1588210
1329395
1139161
880801.8
702320
585849.5
384780.7
478487.6
680390.5
880782.7
1157359
1374300
1679252
1902850
2085121
2240809
2366672
2456465
2493394
2493312
2456224
2366353
2240586
2085093
1902940
1679389
1374416
1157313
880759.3
680380.3
478487.1
411017.9
642766.9
846370.3
1139377
1374328
1706731
1971767
2204432
2405241
2574888
2701508
2791568
2843537
2843425
2791270
2701093
2574491
2404979
2204317
1971836
1706851
1374485
1139358
846398.4
642789.3
410919.6
372418.8
597681.1
764256.3
1061574
1329946
1679779
1972074
2247362
2497884
2702091
2870390
3010740
3109449
3162824
3162673
3109033
3010155
2869779
2701523
2497470
2247172
1971994
1679753
1329920
1061425
764379.1
597673.7
372337.9
446839.8
654994.7
895287.9
1214412
1588946
1903680
2204977
2498125
2748440
2969521
3148326
3287249
3380567
3428179
3428003
3380086
3286596
3147644
2968914
2748044
2497974
2204974
1903782
1589069
1214299
895540.2
655136
446825.1
489283.8
722172.1
1042159
1342179
1756571
2086067
2405885
2702516
2969667
3199101
3377360
3508857
3595415
3638559
3638428
3595067
3508438
3377015
3198947
2969809
2702981
2406541
2086700
1757086
1342370
1042844
722524.8
489370.1
372812
616545.4
795653.6
1117112
1543306
1901945
2241814
2575778
2871038
3148610
3377428
3551422
3676954
3758591
3798904
3798882
3758543
3676994
3551679
3377989
3149512
2872193
2576984
2242819
1902717
1543772
1117881
796111.5
616519.3
372792.6
422523.8
639342.4
830011.6
1160990
1637325
2009936
2367712
2702596
3011620
3287749
3509075
3677061
3797903
3876306
3915001
3915052
3876483
3798306
3677738
3510004
3288798
3012686
2703622
2368726
2010635
1637737
1161495
830312.7
639517.3
422638.2
435172
652932.4
851167.4
1190283
1692887
2083366
2457863
2792998
3110718
3381446
3595938
3758914
3876454
3952755
3990393
3990394
3952815
3876624
3759243
3596460
3382129
3111493
2793825
2458711
2083935
1693151
1190520
851376.6
653080
435230.5
440149.5
659295.1
861222.9
1205563
1720645
2120070
2495045
2845299
3164552
3429565
3639523
3799510
3915339
3990631
4027830
4027864
3990831
3915702
3799986
3640090
3430249
3165333
2846182
2495939
2120676
1720857
1205645
861314.8
659332.5
440183.4
440178
659323.3
861245.2
1205627
1720714
2120194
2495198
2845447
3164768
3429922
3639880
3799675
3915315
3990554
4027849
4028025
3991120
3916086
3800414
3640515
3430641
3165686
2846476
2496154
2120863
1720997
1205683
861310.7
659326.7
440203.9
435297
653086
851283.1
1190483
1693086
2083808
2458441
2793530
3111362
3382221
3596678
3759416
3876647
3952748
3990428
3990650
3953373
3877460
3760253
3597521
3383145
3112400
2794582
2459349
2084534
1693514
1190556
851394.6
653140.8
435351.9
422783.1
639591.5
830211
1161357
1637613
2010525
2368580
2703488
3012579
3288747
3509944
3677648
3798173
3876354
3915012
3915168
3876841
3798907
3678547
3510951
3289816
3013655
2704473
2369360
2011208
1638106
1161348
830331.1
639701.4
422853.8
373107.1
616681
796051.3
1117733
1543549
1902498
2242537
2576732
2872052
3149575
3378197
3551930
3677247
3758792
3799156
3799318
3759309
3678074
3552996
3379408
3150805
2873189
2577747
2243433
1903157
1544088
1117572
796139.8
616913.5
373154.2
489446.3
722533.1
1042884
1342233
1757005
2086502
2406605
2703303
2970364
3199652
3377802
3509285
3595952
3639265
3639486
3596623
3510353
3379167
3201172
2971858
2704614
2407783
2087515
1757631
1342876
1042615
722537.5
489567.8
446836
655173.2
895745.8
1214639
1589351
1903916
2205358
2498622
2748936
2970071
3149039
3288185
3381806
3429673
3429939
3382579
3289398
3150590
2971821
2750668
2500143
2206687
1904949
1589906
1215226
895719.9
655294.3
447062.2
372301.5
597959.7
764633.5
1061890
1330267
1679998
1972380
2247838
2498541
2703048
2871761
3012477
3111591
3165261
3165527
3112311
3013570
2873159
2704693
2500227
2249370
1973692
1680950
1330623
1062394
764612.6
597949.8
372635
410854.9
642961.4
846690
1139515
1374758
1707236
1972510
2205463
2406660
2576841
2703873
2794306
2846527
2846747
2794861
2704660
2577852
2407905
2206757
1973728
1708316
1375567
1140130
846972.9
643081.4
411025.8
478528.1
680595.3
881068.1
1157794
1374822
1680321
1904330
2086930
2242924
2369200
2459464
2496643
2496767
2459786
2369707
2243627
2087676
1905108
1681107
1375536
1158317
881364.1
680688.7
478576.8
384980.9
586162.9
702707.4
881114.2
1139980
1330622
1589641
1757425
1903014
2011252
2084790
2121466
2121527
2085021
2011553
1903404
1757932
1590280
1331155
1140381
881400.1
702852.3
586224.5
384960.2
388511
586204.9
680786.1
846771.8
1061945
1214639
1342619
1543966
1638088
1693672
1721352
1721370
1693924
1638495
1544408
1342971
1215255
1062566
847161.2
680929
586303.5
388551.3
385003.6
478734.2
643003.4
764623.5
895605.8
1042735
1117503
1161125
1190393
1206129
1206021
1190778
1161723
1118145
1043336
896083
764908.9
643216.2
478725.2
385060.1
410943.4
597814.8
655172.2
722445.9
795901.8
830038.5
851168.1
861386.8
861238.6
851320.8
830247.7
796121.4
722570.6
655204.5
598122.4
410959
372315.9
446886
489364.6
616645.5
639427.3
652947.2
659551.6
659493.4
652939.4
639402.5
616727.1
489362.3
446816.2
372479.9
372964.5
422604
435118.8
440177.9
440137.5
435061.8
422490.5
372699
330798.1
372847.7
382243.8
382135.2
372513.3
330565.6
317972
395397.8
442443.2
496050.8
616281.9
642352.7
652383.8
652137.8
641718
615534.5
495887.3
442380.5
395275.1
318007.3
320554.8
415063.4
576589.4
674675.8
760876
884601.6
953038.2
981453.7
995311
994998.4
980662.1
952287.6
884349.9
760547
674166.6
576377.8
415081.7
320744.5
358615.2
556990.7
697183.2
895217.2
1010613
1124950
1227439
1397816
1463456
1489665
1489394
1462743
1396951
1226715
1124142
1009922
894341.2
697074.4
556851.7
358848.8
384257.6
618762.1
804774.6
1029377
1207571
1452886
1612116
1734435
1836773
1899638
1928663
1928451
1899063
1836006
1733691
1611508
1452431
1207178
1028759
804643.5
618577.5
384332.4
398534.4
669205.9
927063.6
1125697
1322023
1643068
1873511
2055553
2184856
2282999
2346699
2377639
2377496
2346317
2282486
2184318
2055039
1873100
1642900
1321909
1125278
926682.3
668960.3
398465.4
384367.4
669303
968341.1
1198756
1524254
1793665
2063306
2288473
2475649
2633528
2749629
2823804
2859960
2859896
2823661
2749504
2633497
2475711
2288542
2063353
1793550
1524099
1198506
967666.7
669037.8
384273.4
358804.2
618855.2
927452.7
1198831
1563932
1884093
2181724
2445092
2691741
2901148
3073287
3200771
3283539
3324055
3324049
3283567
3200875
3073513
2901492
2692106
2445394
2181888
1884146
1563777
1198568
927004
618659.8
358687.5
320710.2
557115.9
805298.2
1126012
1524641
1884384
2222556
2523485
2815196
3080427
3304339
3486289
3623722
3713864
3756787
3756756
3713831
3623787
3486552
3304802
3080983
2815714
2523832
2222645
1884265
1524335
1125673
805079.8
556920
320592.7
415284.4
697724.6
1029555
1322966
1794385
2182402
2523893
2855374
3165958
3442667
3678059
3868564
4012883
4110064
4159704
4159632
4109889
4012721
3868564
3678275
3443063
3166433
2855759
2524079
2182279
1794123
1322614
1029344
697521.6
415262.3
318233.9
576760.6
895325.6
1208252
1644351
2064493
2446298
2816183
3166527
3487991
3773370
4016813
4215802
4370798
4477225
4531991
4531845
4476837
4370310
4215391
4016569
3773347
3488140
3166694
2816255
2446198
2064225
1643999
1207556
895183.6
576651.1
318406.8
395360.9
674783.2
1010896
1454165
1874988
2290139
2693438
3081986
3443819
3773973
4066611
4321558
4531685
4693884
4803913
4859660
4859450
4803348
4693139
4530974
4321035
4066375
3774012
3443999
3082199
2693544
2290014
1874773
1453476
1010425
674621.8
395463.1
442657.3
761329.4
1125859
1613863
2057290
2477800
2903322
3306349
3679659
4017897
4322022
4587426
4804038
4968318
5078402
5133587
5133402
5077919
4967735
4803591
4587294
4322296
4018563
3680550
3307213
2903941
2478030
2057317
1613202
1125068
760764.1
442410.4
496456.1
885854.4
1229171
1736579
2187054
2636056
3075808
3488587
3870504
4217257
4532485
4804323
5023404
5187454
5296416
5350753
5350704
5296306
5187453
5023752
4805175
4533870
4218991
3872286
3490116
3076896
2636606
2187208
1735968
1228087
884541.1
495908.5
331097.5
616652.3
954451.5
1399930
1839246
2285654
2752495
3203521
3626219
4015153
4372677
4695118
4968963
5187742
5350547
5458271
5511906
5511966
5458496
5351116
5188786
4970433
4696828
4374487
4016928
3627760
3204555
2752911
2285615
1838541
1398693
953120.2
615954.1
330703.5
372869.1
642837.6
982799.5
1465681
1902352
2349751
2827035
3286581
3716683
4112816
4479708
4805794
5079621
5297175
5458630
5565305
5618378
5618421
5565482
5459015
5297848
5080619
4807060
4481154
4114339
3718083
3287437
2827163
2349396
1901549
1464539
981710.6
642205.5
372748.6
382443.7
653063.2
996670.6
1492058
1931662
2381039
2863530
3327436
3759959
4162926
4535149
4862326
5135537
5352050
5512611
5618696
5671518
5671635
5619065
5513212
5352843
5136544
4863552
4536574
4164519
3761432
3328284
2863578
2380541
1930827
1491098
995986.3
652661.3
382350.3
382458.6
653137.7
996850.2
1492116
1931725
2381137
2863696
3327717
3760283
4163208
4535467
4862820
5136116
5352375
5512662
5618608
5671462
5671731
5619353
5513665
5353397
5137129
4864109
4537073
4164966
3761863
3328726
2863990
2380892
1931160
1491402
996253.2
652858
382479.8
373080.8
642972.3
982847
1465685
1902478
2350011
2827464
3287354
3717612
4113716
4480705
4806968
5080829
5298106
5459110
5565399
5618361
5618598
5566038
5459980
5299130
5082061
4808495
4482452
4115474
3719152
3288503
2828116
2350216
1902468
1465508
982622.9
642900
373133.6
331395.3
616465.2
954139.9
1399787
1839338
2286014
2753050
3204499
3627505
4016571
4374193
4696722
4970476
5188929
5351284
5458628
5512097
5512230
5459043
5351989
5189959
4971850
4698386
4375981
4018242
3628925
3205667
2753902
2286502
1839780
1400103
954381.2
616677.1
331473.8
496470.5
885253.2
1229029
1736660
2187502
2636593
3076720
3489820
3872019
4218932
4534181
4805833
5024603
5188349
5297154
5351519
5351689
5297686
5189258
5025901
4807472
4536025
4220812
3873761
3491328
3077955
2637581
2188091
1737335
1229536
885856.1
496621.3
442674.7
761318.1
1125858
1613839
2057744
2478239
2904084
3307329
3680916
4019338
4323466
4588762
4805281
4969574
5079820
5135308
5135600
5080689
4970984
4807157
4590953
4325753
4021525
3682926
3309058
2905468
2479413
2058404
1614649
1126316
761559
442711
395673.8
675135.8
1011266
1454132
1875301
2290591
2694122
3082771
3444803
3775153
4067925
4323058
4533476
4696066
4806573
4862821
4863198
4807681
4697837
4535798
4325737
4070690
3777744
3447121
3084715
2695649
2291906
1876168
1455027
1011415
675101.8
395550.5
318511.8
577030.1
896038.4
1208246
1644410
2064887
2446901
2816915
3167479
3489287
3775089
4019058
4218682
4374317
4481360
4536656
4537020
4482418
4375997
4220906
4021682
3777858
3491966
3169914
2818957
2448517
2066333
1645474
1209140
895715.8
577088.9
318411.2
415435.9
697829.9
1030045
1322780
1794843
2183025
2524790
2856655
3167778
3445114
3681197
3872462
4017482
4115262
4165347
4165633
4116078
4018769
3874185
3683273
3447360
3170043
2858821
2526725
2184677
1796161
1323874
1030427
697983.1
415448.5
320718.7
557394.1
805605.3
1126796
1525468
1885290
2223781
2525186
2817551
3083480
3308101
3490751
3628835
3719520
3762789
3762980
3720081
3629739
3491982
3309594
3085143
2819287
2526885
2225290
1886471
1526227
1127125
805742.2
557501.8
320910.4
358810.1
619333.4
928185.5
1199497
1564815
1885464
2183657
2447666
2694895
2904997
3077810
3205871
3289096
3329863
3329985
3289505
3206539
3078725
2906168
2696255
2449028
2184920
1886597
1565701
1200119
928152.7
619346.3
358978.6
384444.7
669609
969274
1199399
1525677
1795425
2065583
2291247
2479084
2637541
2754127
2828729
2865157
2865223
2829080
2754755
2638388
2480123
2292419
2066632
1796257
1526437
1199980
969538.8
669757.7
384500.1
398599.3
669580.2
928324
1127022
1323614
1645148
1875895
2058323
2188130
2286720
2350879
2382278
2382252
2351157
2287255
2188860
2059243
1876732
1645721
1323775
1127423
928653
669801.8
398678.1
384322.7
619131.8
805890.4
1030371
1208517
1454592
1614407
1737320
1840058
1903253
1932494
1932386
1903250
1840151
1737528
1614879
1455226
1209284
1030701
805977.7
619503.1
384433.6
358702
557300.6
698026.9
895877.5
1011280
1126036
1229494
1400369
1466236
1492549
1492465
1466198
1400395
1229548
1126577
1012093
896445.5
697961.8
557488.5
358768
320560.9
415351.1
576882.5
674834.8
761302.1
885738.6
954558.6
983082.5
997006.3
996852.3
983061.5
954748.6
886236.4
761884.6
675344.5
577119.9
415332
320674.3
318424.9
395307.4
442473.8
496370.3
616576.9
642909.1
653098.6
653031.8
642911
616766.4
496557.7
442806.8
395589.2
318152.5
331257.3
372857.3
382317.7
382254
372798.5
331026.9
274798.9
333613.4
376693.8
404516.7
414379.1
414664.6
405345.2
378180.4
334968.2
275409.1
279669.4
379657.9
449599.3
571098
650243.2
766050.5
806705
822403.2
821999
806053.5
765414.6
650077.8
571440.6
449456.5
379754
279646.8
371819.2
579517.7
754429.7
856267.7
956264.6
1056482
1142590
1291791
1337797
1337325
1290761
1141455
1054992
955293
856154.7
754396.8
579074.4
371417.4
307869.1
474957.1
760680.9
952790.9
1109698
1347496
1505804
1639055
1736653
1816860
1856115
1855652
1815732
1735330
1637701
1504629
1346768
1109610
952003.9
759409.3
474507.4
307800
333424.1
595114.6
874515.4
1100204
1402316
1639161
1843060
2015540
2157303
2278197
2361594
2402279
2401931
2360699
2277037
2156062
2014247
1841863
1638082
1401348
1099190
873028.8
594725.7
333319.1
339971.7
620149.5
940779.1
1192075
1552663
1853755
2106591
2340186
2535891
2693590
2818989
2903667
2945552
2945321
2903050
2818133
2692628
2534833
2339062
2105381
1852414
1551601
1190978
939353.2
619704.2
339753.8
333605.7
620338.1
959363.3
1241377
1650889
1988161
2290481
2581231
2840036
3054756
3224653
3354470
3441472
3484768
3484665
3441199
3354086
3224182
3054114
2839215
2580305
2289413
1987003
1649877
1240484
958063.3
619807.3
333401.3
307958.6
595301.6
941016.8
1241765
1684542
2063159
2423149
2753581
3061273
3333171
3562684
3749406
3890127
3983209
4029360
4029404
3983360
3890396
3749741
3562884
3333093
3060957
2753043
2422481
2062407
1683557
1240958
940154.9
594949.7
307858.7
474869.7
874806.4
1192323
1651402
2063469
2466802
2849582
3201898
3523254
3812468
4059540
4260365
4410888
4510048
4559121
4559280
4510557
4411730
4261428
4060532
3813188
3523674
3202003
2849406
2466307
2062624
1650376
1191466
874187.8
474748
371181.1
760919.4
1100535
1553450
1988807
2423753
2850031
3251193
3620911
3962730
4269445
4531013
4742811
4901989
5007066
5058926
5059157
5007756
4903100
4744237
4532484
4270741
3963710
3621467
3251278
2849642
2422959
1987735
1552266
1099460
760590.5
371495.2
279285
579628.7
952941.5
1403159
1854682
2291749
2754778
3202917
3621547
4013163
4373249
4693682
4967040
5188545
5356041
5468030
5524237
5524408
5468563
5356954
5189802
4968447
4695045
4374382
4013897
3621788
3202671
2754144
2290721
1853481
1401987
952266.6
579616
279597.8
379665.1
754876
1111357
1640633
2108261
2583263
3063285
3525112
3964215
4374151
4747691
5078846
5362497
5594198
5771514
5891541
5952262
5952280
5891641
5771800
5594762
5363272
5079720
4748498
4374711
3964412
3525011
3062831
2582288
2106801
1639354
1110290
754018.5
379723.5
449575
857274.8
1349144
1844899
2342644
2842838
3336064
3815237
4271880
4695546
5079854
5421012
5715734
5958346
6144539
6270613
6334240
6334108
6270283
6144200
5958217
5715897
5421446
5080438
4696113
4272302
3815393
3335828
2842039
2341111
1843356
1347866
856409.7
449839.5
274515.1
571668.3
957182.2
1507538
2018061
2539217
3058408
3566528
4063271
4534377
4969822
5364436
5716654
6022179
6273663
6465892
6595525
6660704
6660539
6595111
6465474
6273537
6022517
5717481
5365678
4971206
4535577
4064028
3566659
3057785
2537616
2016053
1505848
956218.5
571579.5
275835.1
333611.1
650366.3
1057319
1641372
2160779
2697823
3229196
3754098
4264896
4746880
5192035
5596861
5959954
6274306
6531874
6727690
6859159
6925126
6925099
6859128
6727879
6532622
6275821
5962174
5599433
5194559
4748978
4266258
3754584
3228685
2696144
2158348
1638941
1055984
650337.1
335114.3
376749.8
766768.3
1144644
1739916
2282461
2823931
3359728
3895445
4415877
4906459
5360063
5774847
6146851
6467166
6728232
6925874
7058232
7124586
7124704
7058645
6926830
6729936
6469468
6149496
5777615
5362712
4908654
4417194
3895775
3359072
2822141
2279757
1736800
1141999
765767.6
378308
404408.4
807936.6
1294421
1820582
2366309
2909079
3447234
3988986
4515400
5011858
5472595
5895658
6273829
6597657
6860450
7058849
7191499
7257965
7258086
7191902
7059622
6861720
6599416
6275969
5898032
5475010
5013939
4516438
3988925
3446252
2907198
2363695
1817574
1291635
806531.8
405518.3
414281.2
823697.4
1340665
1860110
2407295
2951290
3490857
4035438
4564762
5064061
5529241
5957144
6338452
6663843
6927230
7125709
7258348
7324839
7325032
7258917
7126627
6928496
6665513
6340484
5959479
5531764
5066221
4565847
4035363
3489843
2949535
2405048
1857681
1338481
822581.3
414900.3
414193.4
823693.7
1340614
1860136
2407300
2951298
3490912
4035585
4565072
5064504
5529646
5957554
6339069
6664644
6927756
7125864
7258261
7324696
7325007
7259111
7127049
6929092
6666195
6341160
5960091
5532340
5066835
4566534
4036087
3490585
2950332
2405926
1858637
1339386
823157.8
414667.8
404549.1
807973
1294335
1820518
2366247
2909074
3447375
3989385
4516237
5013080
5473802
5896961
6275382
6599363
6861902
7059707
7191750
7257886
7258070
7192254
7060483
6863060
6601075
6277707
5899641
5476472
5015413
4518024
3990566
3447968
2909187
2365967
1820010
1293886
807740.8
404770.6
376955.4
766690.3
1144739
1739821
2282364
2823923
3359945
3896005
4417002
4908074
5361887
5776852
6149055
6469396
6730160
6927262
7059068
7125072
7125123
7059274
6927785
6731255
6471203
6151493
5779578
5364488
4910330
4418899
3897552
3361097
2824738
2282798
1739942
1144684
766453.7
376961.3
333851.3
650947.2
1058199
1641556
2160850
2697915
3229533
3754750
4266050
4748536
5194063
5599172
5962442
6276725
6534020
6729504
6860767
6926705
6926847
6861232
6730415
6535544
6278898
5965105
5602038
5196774
4750914
4268102
3756512
3230930
2699026
2161508
1641747
1057818
650881.1
333820.3
275071.2
571932.7
957753.8
1508057
2018413
2539464
3058866
3567217
4064368
4535877
4971722
5366681
5719085
6024644
6276151
6468494
6598386
6663971
6664321
6599433
6470247
6278606
6027655
5722357
5369944
4974767
4538574
4066693
3569203
3060397
2540665
2019023
1508083
957405.3
571876.2
274822.1
450020.8
857514.3
1349679
1845606
2343098
2843368
3336791
3816265
4273217
4697250
5081978
5423540
5718708
5961872
6148715
6275493
6339805
6340289
6276924
6151050
5965027
5722440
5427471
5085769
4700714
4276258
3818851
3338964
2845028
2344300
1846049
1349880
857791.6
449931.8
379937.8
755155.9
1111677
1641460
2108899
2583821
3064045
3526113
3965500
4375844
4750073
5082064
5366670
5599409
5777718
5898610
5959997
5960452
5899960
5779926
5602423
5370289
5085959
4753938
4379449
3968682
3528805
3066295
2585536
2110016
1641770
1112060
755442.1
380009.3
279839.5
580336.5
953914.6
1403869
1855627
2292498
2755774
3204151
3623146
4015372
4376385
4697914
4972498
5195251
5363812
5476598
5533292
5533641
5477631
5365511
5197610
4975392
4701098
4379637
4018497
3625973
3206577
2757754
2293988
1856415
1404297
953814.2
579952.6
279579.9
372211.3
761814
1100965
1554099
1990010
2425088
2851539
3253187
3623608
3966405
4274319
4537196
4750259
4910437
5016194
5068385
5068629
5016930
4911675
4752020
4539404
4276785
3968955
3626061
3255388
2853356
2426459
1990917
1554798
1101447
760863.4
371577.8
475402.4
875675.2
1192902
1652280
2064647
2468386
2851808
3204835
3527172
3817514
4065871
4267904
4419309
4519030
4568352
4568518
4519558
4420227
4269243
4067585
3819412
3529065
3206585
2853363
2469653
2065639
1652921
1193421
875166
475079.5
307982.7
595264.4
941894.9
1242079
1685691
2064680
2425317
2756469
3065072
3337984
3568659
3756471
3898013
3991651
4038084
4038186
3992032
3898713
3757503
3569960
3339332
3066277
2757482
2426272
2065466
1686291
1242605
941794
595592.9
308038.3
333502.7
620237.8
960362.2
1242309
1652275
1990108
2293144
2584726
2844399
3060070
3230974
3361600
3449190
3492844
3492877
3449417
3362056
3231661
3060930
2845164
2585314
2293581
1990697
1652746
1242635
960440.6
620511.3
333631.4
339980.1
620342.7
941858.5
1192527
1553992
1855798
2109349
2343788
2540374
2699075
2825276
2910509
2952692
2952662
2910545
2825418
2699349
2540822
2344222
2109795
1856220
1554475
1192877
941831.2
620410.1
340056.9
333538.1
595286.7
875528.7
1100483
1403691
1641544
1845839
2018829
2161558
2283305
2367229
2408183
2408131
2367208
2283387
2161786
2019249
1846135
1641674
1404099
1101233
875728.6
595254
333519.1
307882.3
475040.5
761513.1
953330.5
1111711
1349689
1507985
1641752
1740359
1821081
1860657
1860576
1821072
1740526
1642206
1508350
1349647
1111408
953982.7
761777.9
475356.5
307893.4
371595.3
579985.5
754500.3
857463.6
957266.4
1057723
1144891
1294588
1340870
1340811
1294580
1144892
1057826
957386
857531.5
755442.4
580120.4
372088.3
279462
379725.8
449654.4
571633.2
650750
766601.7
807932.3
823664.9
823538.3
807945
766903.5
650750.3
571749.7
449576.5
379833.1
279723.7
274620.7
333540.2
376611.2
404259.1
414052.7
413909.5
404251
376665.4
333580.7
274477
237958.4
290223.1
320958.3
352817.6
375084.9
377972.3
369228.5
339111.6
292689.5
241130.7
248254.6
349395.7
437688.1
612938.1
695302.4
748339.7
779751
793612.4
793717.1
780266.7
752036.3
699137.7
615987.8
438631.9
349765.5
248253.1
249984.6
389500.8
630858.2
770876.7
896274.3
1020845
1211567
1322694
1379328
1405307
1404687
1377716
1321206
1210636
1020323
896135.5
770410.4
631497.4
389346.8
250000.8
317463.3
552577.6
816090.1
1017722
1288588
1475107
1632917
1778774
1891349
1977808
2020000
2019322
1975992
1888984
1776345
1631146
1474216
1287465
1016629
815928.2
551821.6
317366.3
368921.9
707460
959293.5
1197655
1549077
1815222
2046816
2238010
2396318
2518411
2607655
2653150
2652603
2606192
2516434
2394167
2236074
2045297
1813738
1547062
1195650
958290.8
706116.1
368595.1
393080.8
781454.7
1072192
1452584
1767805
2092635
2382057
2634519
2847068
3020564
3156996
3252260
3300614
3300272
3251331
3155647
3018889
2845154
2632504
2379908
2090248
1765414
1450676
1071116
779558
392761.7
393009.9
799456.4
1119859
1545328
1922371
2290610
2638027
2948932
3224397
3457739
3647362
3794171
3894585
3945327
3945149
3894072
3793337
3646165
3456053
3222261
2946457
2635348
2288050
1920071
1543334
1118521
797480.6
392269.8
368597
781186.4
1120488
1573811
1989013
2408370
2807235
3175284
3511908
3810193
4062474
4266453
4422200
4527534
4580589
4580562
4527429
4421946
4265919
4061340