/*--------------------------------*- C++ -*----------------------------------*\
  =========                 |
  \\      /  F ield         | OpenFOAM: The Open Source CFD Toolbox
   \\    /   O peration     | Website:  https://openfoam.org
    \\  /    A nd           | Version:  6
     \\/     M anipulation  |
\*---------------------------------------------------------------------------*/
FoamFile
{
    version     2.0;
    format      ascii;
    class       volScalarField;
    location    "49.8/region0/neutronTransport";
    object      discFlux6;
}
// * * * * * * * * * * * * * * * * * * * * * * * * * * * * * * * * * * * * * //

dimensions      [0 -2 -1 0 0 0 0];

internalField   nonuniform List<scalar> 
203709
(
-5.343165e-36
-2.101801e-36
-3.131863e-36
-1.693995e-36
-5.343213e-36
-2.230716e-36
-8.163097e-37
-1.953142e-36
-2.198476e-36
-1.682499e-36
-3.560252e-36
-2.020955e-36
-5.343158e-36
-2.171851e-36
-1.073504e-36
-2.411197e-36
-3.022906e-36
-3.366396e-36
-3.439419e-36
-3.132658e-36
-2.750771e-36
-2.03472e-36
-3.560637e-36
-1.826669e-36
-5.343158e-36
5.86085e-37
-2.233757e-36
-3.056476e-36
-3.471354e-36
-3.625653e-36
-3.699243e-36
-3.718712e-36
-3.686734e-36
-3.603962e-36
-3.213844e-36
-2.692117e-36
-1.668558e-36
-1.732819e-36
-2.170745e-36
-2.233517e-36
-3.323772e-36
-3.602986e-36
-3.725319e-36
-3.780218e-36
-3.807389e-36
-3.813761e-36
-3.801528e-36
-3.771144e-36
-3.700354e-36
-3.549338e-36
-2.946386e-36
-1.110091e-36
-5.343212e-36
-1.074337e-36
-3.056154e-36
-3.603029e-36
-3.750585e-36
-3.811526e-36
-3.836928e-36
-3.850128e-36
-3.853412e-36
-3.848505e-36
-3.832185e-36
-3.797814e-36
-3.723958e-36
-3.540431e-36
-3.123644e-36
-1.993159e-36
-2.230426e-36
-2.411091e-36
-3.471526e-36
-3.725478e-36
-3.811415e-36
-3.84529e-36
-3.865413e-36
-3.875893e-36
-3.876246e-36
-3.868795e-36
-3.858863e-36
-3.838157e-36
-3.792117e-36
-3.684878e-36
-3.132737e-36
-1.291097e-36
-5.343165e-36
-8.145203e-37
-3.024381e-36
-3.625192e-36
-3.780096e-36
-3.83683e-36
-3.865208e-36
-3.880869e-36
-3.886595e-36
-3.890399e-36
-3.887746e-36
-3.873459e-36
-3.85753e-36
-3.82441e-36
-3.752114e-36
-3.552082e-36
-3.097376e-36
-1.649671e-36
-2.105792e-36
-1.954882e-36
-3.366085e-36
-3.699413e-36
-3.807241e-36
-3.84973e-36
-3.875458e-36
-3.886342e-36
-3.900929e-36
-3.898568e-36
-3.896778e-36
-3.879466e-36
-3.868181e-36
-3.837782e-36
-3.781666e-36
-3.635317e-36
-2.929417e-36
-9.933512e-37
-3.130916e-36
-2.197454e-36
-3.439522e-36
-3.718834e-36
-3.813596e-36
-3.853355e-36
-3.876005e-36
-3.890131e-36
-3.896901e-36
-3.89715e-36
-3.898617e-36
-3.882164e-36
-3.869628e-36
-3.84073e-36
-3.788065e-36
-3.645997e-36
-3.196734e-36
-1.89748e-36
-1.692477e-36
-1.680297e-36
-3.132096e-36
-3.686217e-36
-3.801509e-36
-3.848421e-36
-3.868874e-36
-3.887459e-36
-3.89607e-36
-3.89852e-36
-3.888919e-36
-3.880512e-36
-3.862676e-36
-3.833078e-36
-3.767471e-36
-3.586612e-36
-3.236123e-36
1.06186e-36
-3.559859e-36
-2.750108e-36
-3.603823e-36
-3.771053e-36
-3.832287e-36
-3.85871e-36
-3.873568e-36
-3.879231e-36
-3.882211e-36
-3.880649e-36
-3.869539e-36
-3.848962e-36
-3.813795e-36
-3.721382e-36
-3.456641e-36
-2.19433e-36
-2.020574e-36
-2.037582e-36
-3.214918e-36
-3.700296e-36
-3.797915e-36
-3.838285e-36
-3.857601e-36
-3.868312e-36
-3.8698e-36
-3.862533e-36
-3.848817e-36
-3.825359e-36
-3.766825e-36
-3.615121e-36
-3.361652e-36
3.185394e-37
-3.559366e-36
-2.692193e-36
-3.549795e-36
-3.724233e-36
-3.792032e-36
-3.82461e-36
-3.834484e-36
-3.840899e-36
-3.832421e-36
-3.813597e-36
-3.766732e-36
-3.668228e-36
-3.412461e-36
-2.159995e-36
-1.828508e-36
-1.668981e-36
-2.946686e-36
-3.540259e-36
-3.685286e-36
-3.752791e-36
-3.781979e-36
-3.787958e-36
-3.765728e-36
-3.721482e-36
-3.615651e-36
-3.412127e-36
-3.092521e-36
6.73506e-37
-1.73162e-36
-1.110354e-36
-3.12432e-36
-3.13298e-36
-3.55272e-36
-3.632453e-36
-3.644874e-36
-3.58642e-36
-3.456872e-36
-3.362522e-36
-2.15862e-36
6.746894e-37
-1.994878e-36
-1.293348e-36
-3.099587e-36
-2.930885e-36
-3.196942e-36
-3.232834e-36
-2.196291e-36
3.15564e-37
-1.653876e-36
-9.972598e-37
-1.893112e-36
1.057475e-36
-5.343219e-36
-2.440186e-36
-3.549505e-36
-3.661072e-36
-3.698006e-36
-3.702103e-36
-3.687659e-36
-3.632549e-36
-3.45724e-36
-1.99636e-36
-5.343206e-36
-2.434629e-36
-1.191795e-36
-2.361452e-36
-2.740403e-36
-2.85858e-36
-2.87916e-36
-2.870559e-36
-2.859392e-36
-2.791263e-36
-2.616057e-36
-2.097129e-36
-3.662807e-36
-2.129049e-36
-5.343246e-36
-4.329422e-37
-2.587551e-36
-3.25052e-36
-3.577238e-36
-3.79933e-36
-3.770892e-36
-3.786165e-36
-3.750149e-36
-3.842562e-36
-3.78834e-36
-3.674576e-36
-3.35878e-36
-2.92973e-36
-2.100185e-36
-2.483475e-36
-5.343272e-36
-1.066496e-36
-2.994828e-36
-3.573521e-36
-3.865721e-36
-3.855671e-36
-3.757425e-36
-2.143157e-36
-2.628968e-36
-2.732037e-36
-2.954086e-36
-3.878844e-36
-3.936712e-36
-3.885952e-36
-3.738587e-36
-3.311124e-36
-2.692832e-36
-2.59439e-36
-5.343246e-36
-1.064789e-36
-3.066713e-36
-3.769216e-36
-3.852291e-36
-3.773709e-36
-2.267779e-36
-2.838549e-36
-2.97515e-36
-3.216641e-36
-3.075916e-36
-3.087049e-36
-2.861426e-36
-3.059633e-36
-3.910344e-36
-3.945715e-36
-3.865482e-36
-3.430867e-36
-2.765324e-36
-2.502684e-36
-5.343207e-36
-4.311481e-37
-2.993932e-36
-3.768432e-36
-3.738642e-36
-2.336907e-36
-2.807868e-36
-3.007534e-36
-3.272791e-36
-3.245124e-36
-3.075597e-36
-3.096587e-36
-3.170006e-36
-3.16734e-36
-3.164817e-36
-2.866631e-36
-3.080478e-36
-3.9852e-36
-3.873635e-36
-3.422703e-36
-2.624286e-36
-2.011587e-36
-2.434684e-36
-2.586138e-36
-3.573813e-36
-3.851651e-36
-2.335933e-36
-2.887308e-36
-3.214428e-36
-3.25867e-36
-3.1331e-36
-3.165931e-36
-3.181568e-36
-3.184272e-36
-3.174209e-36
-3.172832e-36
-3.205022e-36
-3.150776e-36
-3.082629e-36
-3.345186e-36
-3.955531e-36
-3.808594e-36
-3.249723e-36
-1.551439e-36
-5.343219e-36
-1.192639e-36
-3.25019e-36
-3.866168e-36
-3.77335e-36
-2.807762e-36
-3.214062e-36
-3.081034e-36
-3.158439e-36
-3.211808e-36
-3.247958e-36
-3.267694e-36
-3.271451e-36
-3.259018e-36
-3.229975e-36
-3.184121e-36
-3.13848e-36
-3.154645e-36
-3.5502e-36
-3.914433e-36
-3.869168e-36
-3.71256e-36
-3.305334e-36
-1.946994e-36
-2.43908e-36
-2.359007e-36
-3.576793e-36
-3.854711e-36
-2.26623e-36
-3.006082e-36
-3.258166e-36
-3.158194e-36
-3.226185e-36
-3.277501e-36
-3.310051e-36
-3.327316e-36
-3.330547e-36
-3.319619e-36
-3.294819e-36
-3.252097e-36
-3.188166e-36
-3.145585e-36
-3.14052e-36
-3.365584e-36
-3.971964e-36
-3.828116e-36
-3.220365e-36
-1.532917e-36
-3.546643e-36
-2.736431e-36
-3.799035e-36
-3.757248e-36
-2.83785e-36
-3.272364e-36
-3.13301e-36
-3.211792e-36
-3.277562e-36
-3.322929e-36
-3.349995e-36
-3.364048e-36
-3.366436e-36
-3.357025e-36
-3.336286e-36
-3.300974e-36
-3.244145e-36
-3.192537e-36
-3.207079e-36
-3.592981e-36
-3.912154e-36
-3.843828e-36
-3.56518e-36
-2.597137e-36
-3.658423e-36
-2.855179e-36
-3.769334e-36
-2.142177e-36
-2.975297e-36
-3.244492e-36
-3.16582e-36
-3.247769e-36
-3.309885e-36
-3.349779e-36
-3.375961e-36
-3.391418e-36
-3.394472e-36
-3.383975e-36
-3.362056e-36
-3.329728e-36
-3.278259e-36
-3.201433e-36
-3.139949e-36
-3.09964e-36
-3.353689e-36
-3.953525e-36
-3.646472e-36
-2.773863e-36
-3.696784e-36
-2.878431e-36
-3.785451e-36
-2.628394e-36
-3.216398e-36
-3.075838e-36
-3.181544e-36
-3.26738e-36
-3.327104e-36
-3.363776e-36
-3.391127e-36
-3.402195e-36
-3.405463e-36
-3.396691e-36
-3.376739e-36
-3.34404e-36
-3.296711e-36
-3.222132e-36
-3.146428e-36
-3.130179e-36
-3.655857e-36
-3.918383e-36
-3.600595e-36
-2.821863e-36
-3.702533e-36
-2.872918e-36
-3.751169e-36
-2.733152e-36
-3.076236e-36
-3.096801e-36
-3.184416e-36
-3.271436e-36
-3.33046e-36
-3.366256e-36
-3.394071e-36
-3.404534e-36
-3.408296e-36
-3.398863e-36
-3.379505e-36
-3.346297e-36
-3.299577e-36
-3.226312e-36
-3.128169e-36
-3.067883e-36
-3.709074e-36
-3.885078e-36
-3.610534e-36
-2.829582e-36
-3.689753e-36
-2.861884e-36
-3.84255e-36
-2.954185e-36
-3.086898e-36
-3.169976e-36
-3.174259e-36
-3.258861e-36
-3.319562e-36
-3.356967e-36
-3.383776e-36
-3.396303e-36
-3.398792e-36
-3.38995e-36
-3.368986e-36
-3.336084e-36
-3.287581e-36
-3.217319e-36
-3.160167e-36
-3.421334e-36
-4.013271e-36
-3.97573e-36
-3.644523e-36
-2.813886e-36
-3.634852e-36
-2.793677e-36
-3.788847e-36
-3.878548e-36
-2.861343e-36
-3.167532e-36
-3.172841e-36
-3.229778e-36
-3.294826e-36
-3.336352e-36
-3.36192e-36
-3.376566e-36
-3.379595e-36
-3.368938e-36
-3.347192e-36
-3.313515e-36
-3.260979e-36
-3.19277e-36
-3.182883e-36
-3.657146e-36
-3.951477e-36
-3.802812e-36
-3.655052e-36
-2.726427e-36
-3.460182e-36
-2.618012e-36
-3.675111e-36
-3.934848e-36
-3.060111e-36
-3.164523e-36
-3.204905e-36
-3.1841e-36
-3.252182e-36
-3.300943e-36
-3.329723e-36
-3.343761e-36
-3.346185e-36
-3.336023e-36
-3.313431e-36
-3.274356e-36
-3.21841e-36
-3.18414e-36
-3.477081e-36
-4.029998e-36
-3.922479e-36
-3.898105e-36
-3.48258e-36
-2.437294e-36
-2.005235e-36
-2.103874e-36
-3.360303e-36
-3.885708e-36
-3.91125e-36
-2.866951e-36
-3.151072e-36
-3.1387e-36
-3.18826e-36
-3.244136e-36
-3.278128e-36
-3.295993e-36
-3.297846e-36
-3.287317e-36
-3.260813e-36
-3.218384e-36
-3.155861e-36
-3.154858e-36
-3.660923e-36
-3.964524e-36
-3.831559e-36
-3.825457e-36
-3.444646e-36
3.739849e-37
-3.660229e-36
-2.929945e-36
-3.738631e-36
-3.946006e-36
-3.080625e-36
-3.081913e-36
-3.154386e-36
-3.145837e-36
-3.192739e-36
-3.201506e-36
-3.220884e-36
-3.223466e-36
-3.217066e-36
-3.1927e-36
-3.183985e-36
-3.155038e-36
-3.397164e-36
-4.030852e-36
-3.920666e-36
-3.909902e-36
-3.602208e-36
-2.383563e-36
-2.135166e-36
-2.097846e-36
-3.311267e-36
-3.867039e-36
-3.984681e-36
-3.344814e-36
-3.549773e-36
-3.140703e-36
-3.207269e-36
-3.140095e-36
-3.146253e-36
-3.126078e-36
-3.160112e-36
-3.183e-36
-3.47678e-36
-3.661029e-36
-4.030239e-36
-4.052381e-36
-3.834155e-36
-3.773403e-36
-3.396988e-36
1.321655e-38
-2.482878e-36
-2.693953e-36
-3.431667e-36
-3.874164e-36
-3.954468e-36
-3.914511e-36
-3.365535e-36
-3.591513e-36
-3.100064e-36
-3.129177e-36
-3.064638e-36
-3.421668e-36
-3.657578e-36
-4.03052e-36
-3.964329e-36
-3.920502e-36
-3.834178e-36
-3.868039e-36
-3.521227e-36
-1.034602e-37
-2.59549e-36
-2.765132e-36
-3.421462e-36
-3.808624e-36
-3.868929e-36
-3.972575e-36
-3.912326e-36
-3.354688e-36
-3.656265e-36
-3.707951e-36
-4.013357e-36
-3.951068e-36
-3.923262e-36
-3.832092e-36
-3.910195e-36
-3.774281e-36
-3.52246e-36
-3.28717e-37
-2.498403e-36
-2.624591e-36
-3.249842e-36
-3.712818e-36
-3.82805e-36
-3.84281e-36
-3.9536e-36
-3.916789e-36
-3.884802e-36
-3.975661e-36
-3.803632e-36
-3.898455e-36
-3.82373e-36
-3.600188e-36
-3.394683e-36
-1.046992e-37
-2.013469e-36
-1.551447e-36
-3.303812e-36
-3.218471e-36
-3.56476e-36
-3.646335e-36
-3.601454e-36
-3.611417e-36
-3.642081e-36
-3.65453e-36
-3.482473e-36
-3.445202e-36
-2.381882e-36
1.564911e-38
-1.947766e-36
-1.531723e-36
-2.596037e-36
-2.7734e-36
-2.818361e-36
-2.8291e-36
-2.812817e-36
-2.724117e-36
-2.434808e-36
3.893993e-37
-5.343209e-36
-2.560368e-36
-3.614386e-36
-3.714407e-36
-3.73158e-36
-3.698532e-36
-3.532173e-36
-2.14243e-36
-5.343222e-36
-2.703049e-36
-3.673317e-36
-1.6187e-36
-2.530671e-36
-2.772187e-36
-2.852822e-36
-2.865562e-36
-2.826061e-36
-2.711598e-36
-2.383843e-36
-3.94472e-36
-3.657925e-36
-2.184471e-36
-5.343335e-36
-9.200744e-37
-2.854675e-36
-3.241503e-36
-3.517925e-36
-3.686485e-36
-3.758684e-36
-3.782183e-36
-3.787131e-36
-3.77575e-36
-3.75358e-36
-3.531289e-36
-3.404199e-36
-3.057923e-36
-2.414549e-36
-2.853589e-36
-5.343235e-36
-2.792688e-36
-2.548258e-36
-3.306664e-36
-3.504955e-36
-2.13334e-36
-2.710528e-36
-2.905161e-36
-2.982518e-36
-3.010281e-36
-3.015927e-36
-3.002696e-36
-2.96101e-36
-2.877633e-36
-2.950675e-36
-3.753619e-36
-3.55236e-36
-3.300975e-36
-3.955995e-36
-2.389622e-36
-5.343233e-36
-8.93573e-37
-3.03166e-36
-3.370554e-36
-2.198784e-36
-2.831734e-36
-3.070918e-36
-3.342275e-36
-3.248119e-36
-3.286342e-36
-3.288411e-36
-3.29181e-36
-3.297934e-36
-3.280381e-36
-3.238053e-36
-3.207685e-36
-2.919802e-36
-3.005517e-36
-3.713029e-36
-3.274048e-36
-2.520984e-36
-2.567841e-36
-5.343235e-36
-8.856242e-37
-3.263224e-36
-3.517455e-36
-2.480031e-36
-2.945876e-36
-3.301751e-36
-3.35519e-36
-3.229668e-36
-3.229315e-36
-3.318739e-36
-3.294874e-36
-3.299118e-36
-3.293555e-36
-3.287595e-36
-3.273601e-36
-3.308108e-36
-3.252055e-36
-3.201524e-36
-3.185607e-36
-3.841317e-36
-3.492038e-36
-2.844829e-36
-2.283676e-36
-2.790514e-36
-3.032766e-36
-3.514403e-36
-2.505709e-36
-2.967141e-36
-3.463371e-36
-3.231194e-36
-3.258762e-36
-3.346049e-36
-3.374759e-36
-3.403517e-36
-3.43973e-36
-3.458555e-36
-3.412194e-36
-3.341972e-36
-3.33139e-36
-3.320893e-36
-3.284481e-36
-3.302541e-36
-3.233095e-36
-3.247437e-36
-3.861716e-36
-3.468544e-36
-2.100149e-36
-5.343335e-36
-2.545381e-36
-3.368529e-36
-2.481369e-36
-2.968525e-36
-3.489309e-36
-3.246517e-36
-3.336173e-36
-3.384326e-36
-3.42208e-36
-3.432575e-36
-3.527742e-36
-3.305584e-36
-3.311782e-36
-3.407568e-36
-3.451771e-36
-3.451505e-36
-3.36525e-36
-3.332543e-36
-3.337163e-36
-3.334261e-36
-3.247582e-36
-3.253982e-36
-3.837982e-36
-3.716562e-36
-3.033953e-36
-5.343221e-36
-9.141108e-37
-3.307583e-36
-2.198227e-36
-2.943927e-36
-3.46331e-36
-3.246905e-36
-3.391662e-36
-3.403199e-36
-3.431241e-36
-3.546975e-36
-3.33764e-36
-3.31198e-36
-3.2753e-36
-3.26582e-36
-3.28512e-36
-3.339211e-36
-3.436812e-36
-3.461378e-36
-3.445741e-36
-3.343124e-36
-3.356369e-36
-3.320415e-36
-3.197846e-36
-3.365841e-36
-3.671662e-36
-3.054088e-36
-2.139239e-36
-2.702929e-36
-2.852104e-36
-3.502301e-36
-2.831943e-36
-3.301375e-36
-3.230585e-36
-3.336391e-36
-3.403145e-36
-3.50726e-36
-3.324551e-36
-3.322396e-36
-3.306281e-36
-3.303412e-36
-3.299883e-36
-3.298848e-36
-3.298987e-36
-3.299971e-36
-3.308015e-36
-3.340794e-36
-3.423273e-36
-3.388045e-36
-3.385425e-36
-3.322563e-36
-3.275538e-36
-3.592798e-36
-3.840672e-36
-3.376796e-36
-1.970056e-36
-3.670912e-36
-3.238659e-36
-2.135285e-36
-3.070753e-36
-3.354916e-36
-3.258178e-36
-3.384406e-36
-3.43088e-36
-3.324261e-36
-3.293602e-36
-3.303732e-36
-3.321476e-36
-3.338163e-36
-3.347853e-36
-3.34964e-36
-3.343303e-36
-3.329644e-36
-3.311337e-36
-3.297375e-36
-3.330371e-36
-3.360198e-36
-3.317033e-36
-3.36197e-36
-3.282927e-36
-3.226074e-36
-3.367984e-36
-3.798652e-36
-2.990797e-36
-5.343206e-36
-1.610483e-36
-3.513971e-36
-2.711092e-36
-3.34045e-36
-3.229359e-36
-3.345553e-36
-3.421348e-36
-3.546273e-36
-3.321955e-36
-3.303571e-36
-3.327564e-36
-3.35748e-36
-3.3806e-36
-3.393711e-36
-3.396241e-36
-3.388036e-36
-3.369815e-36
-3.343107e-36
-3.31485e-36
-3.330856e-36
-3.433048e-36
-3.408012e-36
-3.398031e-36
-3.329558e-36
-3.277568e-36
-3.712459e-36
-3.873763e-36
-3.594577e-36
-2.04001e-36
-2.555466e-36
-2.52596e-36
-3.686092e-36
-2.904403e-36
-3.246151e-36
-3.228482e-36
-3.374746e-36
-3.431874e-36
-3.337034e-36
-3.306019e-36
-3.32137e-36
-3.357463e-36
-3.391223e-36
-3.415118e-36
-3.428335e-36
-3.430861e-36
-3.422556e-36
-3.403871e-36
-3.375364e-36
-3.339747e-36
-3.312211e-36
-3.339516e-36
-3.364173e-36
-3.309618e-36
-3.346509e-36
-3.249296e-36
-3.757085e-36
-3.892727e-36
-3.349557e-36
-1.711553e-36
-3.613168e-36
-2.77392e-36
-3.759438e-36
-2.981781e-36
-3.28479e-36
-3.317206e-36
-3.402942e-36
-3.527159e-36
-3.311502e-36
-3.303228e-36
-3.338027e-36
-3.380493e-36
-3.415019e-36
-3.439309e-36
-3.453106e-36
-3.455834e-36
-3.447074e-36
-3.427734e-36
-3.398605e-36
-3.360267e-36
-3.320304e-36
-3.326021e-36
-3.416248e-36
-3.388674e-36
-3.384605e-36
-3.290527e-36
-3.79864e-36
-3.917459e-36
-3.566875e-36
-2.664994e-36
-3.71452e-36
-2.855187e-36
-3.782844e-36
-3.010213e-36
-3.288089e-36
-3.294442e-36
-3.439461e-36
-3.30535e-36
-3.275251e-36
-3.299823e-36
-3.347707e-36
-3.393578e-36
-3.428183e-36
-3.452968e-36
-3.465593e-36
-3.468361e-36
-3.460014e-36
-3.441125e-36
-3.411417e-36
-3.37195e-36
-3.32522e-36
-3.288913e-36
-3.307611e-36
-3.328208e-36
-3.334457e-36
-3.301975e-36
-3.815097e-36
-3.927985e-36
-3.603736e-36
-2.803925e-36
-3.732436e-36
-2.866396e-36
-3.787568e-36
-3.017019e-36
-3.292772e-36
-3.300076e-36
-3.45924e-36
-3.312156e-36
-3.265984e-36
-3.29891e-36
-3.349608e-36
-3.396158e-36
-3.430727e-36
-3.455612e-36
-3.468038e-36
-3.47089e-36
-3.462419e-36
-3.443717e-36
-3.413918e-36
-3.37457e-36
-3.327884e-36
-3.289264e-36
-3.3185e-36
-3.332723e-36
-3.335591e-36
-3.302182e-36
-3.81936e-36
-3.931144e-36
-3.611952e-36
-2.829081e-36
-3.698746e-36
-2.825277e-36
-3.776166e-36
-3.00476e-36
-3.29974e-36
-3.294406e-36
-3.412476e-36
-3.408043e-36
-3.285313e-36
-3.299054e-36
-3.343251e-36
-3.38798e-36
-3.422471e-36
-3.446914e-36
-3.459794e-36
-3.462348e-36
-3.454135e-36
-3.435126e-36
-3.405985e-36
-3.368087e-36
-3.326992e-36
-3.319844e-36
-3.281644e-36
-3.388755e-36
-3.360285e-36
-3.295075e-36
-3.813413e-36
-3.925198e-36
-3.591091e-36
-2.773706e-36
-3.533988e-36
-2.707817e-36
-3.75332e-36
-2.963352e-36
-3.282323e-36
-3.287537e-36
-3.341773e-36
-3.451962e-36
-3.339399e-36
-3.300021e-36
-3.329584e-36
-3.369788e-36
-3.403838e-36
-3.427603e-36
-3.440952e-36
-3.443638e-36
-3.435062e-36
-3.416254e-36
-3.388283e-36
-3.353269e-36
-3.322328e-36
-3.355446e-36
-3.362901e-36
-3.291954e-36
-3.385037e-36
-3.274443e-36
-3.792747e-36
-3.908274e-36
-3.518228e-36
-2.537832e-36
-2.159768e-36
-2.38302e-36
-3.530694e-36
-2.879189e-36
-3.240044e-36
-3.272835e-36
-3.331418e-36
-3.451355e-36
-3.436767e-36
-3.307977e-36
-3.311312e-36
-3.343108e-36
-3.375302e-36
-3.398481e-36
-3.411145e-36
-3.41366e-36
-3.405824e-36
-3.3882e-36
-3.361913e-36
-3.33291e-36
-3.33735e-36
-3.313511e-36
-3.430824e-36
-3.386075e-36
-3.315746e-36
-3.253175e-36
-3.788333e-36
-3.871989e-36
-3.569318e-36
8.332508e-38
-3.941714e-36
-3.404606e-36
-2.950907e-36
-3.209821e-36
-3.307581e-36
-3.321807e-36
-3.365287e-36
-3.461189e-36
-3.340706e-36
-3.297378e-36
-3.314849e-36
-3.33968e-36
-3.360059e-36
-3.371485e-36
-3.373703e-36
-3.367722e-36
-3.353103e-36
-3.332857e-36
-3.313222e-36
-3.351504e-36
-3.367868e-36
-3.312966e-36
-3.412427e-36
-3.314096e-36
-3.52454e-36
-4.016015e-36
-3.892623e-36
-2.926288e-36
-3.660723e-36
-3.057506e-36
-3.75206e-36
-2.920941e-36
-3.250809e-36
-3.285846e-36
-3.332945e-36
-3.445398e-36
-3.422882e-36
-3.330187e-36
-3.330857e-36
-3.312175e-36
-3.320097e-36
-3.324473e-36
-3.326549e-36
-3.326537e-36
-3.322172e-36
-3.337252e-36
-3.351419e-36
-3.306225e-36
-3.415703e-36
-3.380783e-36
-3.324639e-36
-3.288237e-36
-3.69359e-36
-3.910583e-36
-3.55565e-36
-2.98055e-36
-2.174119e-36
-2.417469e-36
-3.552824e-36
-3.005219e-36
-3.20016e-36
-3.303945e-36
-3.337589e-36
-3.343009e-36
-3.387415e-36
-3.359949e-36
-3.433011e-36
-3.339429e-36
-3.325794e-36
-3.288427e-36
-3.288131e-36
-3.319467e-36
-3.355443e-36
-3.313511e-36
-3.367598e-36
-3.415316e-36
-3.306955e-36
-3.396299e-36
-3.318073e-36
-3.518316e-36
-4.015301e-36
-3.78398e-36
-3.595654e-36
-1.980953e-37
-2.857358e-36
-3.300511e-36
-3.714088e-36
-3.185822e-36
-3.234163e-36
-3.334259e-36
-3.355925e-36
-3.385048e-36
-3.317044e-36
-3.408068e-36
-3.363909e-36
-3.41601e-36
-3.307024e-36
-3.31722e-36
-3.281363e-36
-3.363106e-36
-3.4311e-36
-3.312796e-36
-3.380512e-36
-3.39631e-36
-3.331837e-36
-3.583935e-36
-3.938514e-36
-3.981566e-36
-3.715583e-36
-1.063887e-36
-3.95071e-36
-3.27397e-36
-3.84032e-36
-3.247714e-36
-3.247087e-36
-3.320389e-36
-3.322157e-36
-3.361945e-36
-3.398124e-36
-3.309292e-36
-3.388596e-36
-3.327728e-36
-3.331783e-36
-3.388404e-36
-3.292184e-36
-3.386383e-36
-3.41217e-36
-3.324513e-36
-3.318185e-36
-3.584654e-36
-3.947043e-36
-3.996386e-36
-3.568753e-36
-3.000316e-36
-2.388374e-36
-2.515578e-36
-3.493787e-36
-3.861572e-36
-3.253309e-36
-3.1979e-36
-3.275377e-36
-3.282916e-36
-3.3296e-36
-3.34655e-36
-3.384214e-36
-3.334076e-36
-3.334487e-36
-3.35981e-36
-3.384988e-36
-3.315638e-36
-3.313956e-36
-3.287974e-36
-3.517815e-36
-3.938355e-36
-3.996878e-36
-3.600373e-36
-3.643426e-36
-6.282437e-37
-2.563012e-36
-2.845533e-36
-3.464747e-36
-3.838037e-36
-3.365459e-36
-3.592909e-36
-3.226047e-36
-3.277695e-36
-3.249291e-36
-3.290457e-36
-3.301242e-36
-3.29972e-36
-3.293955e-36
-3.27387e-36
-3.252918e-36
-3.524599e-36
-3.692604e-36
-4.015334e-36
-3.981305e-36
-3.565178e-36
-3.645796e-36
-2.898786e-37
-2.26834e-36
-2.100378e-36
-3.715601e-36
-3.671162e-36
-3.840739e-36
-3.36894e-36
-3.713314e-36
-3.757749e-36
-3.799588e-36
-3.814619e-36
-3.819605e-36
-3.81252e-36
-3.791378e-36
-3.787016e-36
-4.013158e-36
-3.90884e-36
-3.783283e-36
-3.717968e-36
-2.993699e-36
-6.142553e-37
-3.032378e-36
-3.053819e-36
-3.376136e-36
-3.798419e-36
-3.874051e-36
-3.893401e-36
-3.918571e-36
-3.927723e-36
-3.93247e-36
-3.925953e-36
-3.908691e-36
-3.872266e-36
-3.893583e-36
-3.558244e-36
-3.596013e-36
-1.061613e-36
-2.138762e-36
-1.967311e-36
-2.990527e-36
-3.592595e-36
-3.349193e-36
-3.567737e-36
-3.603399e-36
-3.613711e-36
-3.590896e-36
-3.519117e-36
-3.568012e-36
-2.926572e-36
-2.979444e-36
-1.943678e-37
-2.032644e-36
-1.706479e-36
-2.665483e-36
-2.804287e-36
-2.828975e-36
-2.775e-36
-2.538922e-36
9.361741e-38
-5.343256e-36
-2.736117e-36
-3.701323e-36
-3.747272e-36
-3.621201e-36
-2.363839e-36
-5.343261e-36
-2.910684e-36
-3.937164e-36
-3.921818e-36
-2.179626e-36
-2.874482e-36
-3.033107e-36
-3.063109e-36
-3.002781e-36
-2.860033e-36
-4.215786e-36
-3.980714e-36
-3.762034e-36
-2.35906e-36
-5.343242e-36
-3.16661e-36
-2.091195e-36
-2.887719e-36
-2.920863e-36
-1.661065e-36
-2.43199e-36
-2.73091e-36
-2.836557e-36
-2.852131e-36
-2.817073e-36
-2.590966e-36
-2.463461e-36
-3.202075e-36
-3.022447e-36
-2.99077e-36
-3.897098e-36
-2.794745e-36
-5.343321e-36
-1.564175e-36
-2.809926e-36
-1.887507e-36
-2.588858e-36
-2.956881e-36
-3.091531e-36
-3.322926e-36
-3.224636e-36
-3.25636e-36
-3.262337e-36
-3.243126e-36
-3.216565e-36
-3.200171e-36
-2.950412e-36
-2.802181e-36
-2.710159e-36
-3.345937e-36
-2.726748e-36
-2.996631e-36
-5.343368e-36
-1.979146e-36
-3.158284e-36
-2.374827e-36
-2.939429e-36
-3.29044e-36
-3.30625e-36
-3.439795e-36
-3.303793e-36
-3.324165e-36
-3.342039e-36
-3.345929e-36
-3.333981e-36
-3.332282e-36
-3.371253e-36
-3.32184e-36
-3.285518e-36
-3.191935e-36
-3.151313e-36
-3.459177e-36
-3.358067e-36
-3.148254e-36
-5.343369e-36
-1.819615e-36
-1.840059e-36
-2.746431e-36
-3.097688e-36
-3.567765e-36
-3.312326e-36
-3.373263e-36
-3.459814e-36
-3.505199e-36
-3.534398e-36
-3.552093e-36
-3.556602e-36
-3.546964e-36
-3.523984e-36
-3.497982e-36
-3.407922e-36
-3.310802e-36
-3.335304e-36
-3.343743e-36
-2.999666e-36
-2.785495e-36
-3.504617e-36
-3.138833e-36
-5.343368e-36
-1.816956e-36
-2.028484e-36
-2.84359e-36
-3.295088e-36
-3.500217e-36
-3.378476e-36
-3.408181e-36
-3.535316e-36
-3.369169e-36
-3.378089e-36
-3.397107e-36
-3.411237e-36
-3.414711e-36
-3.407409e-36
-3.390841e-36
-3.393156e-36
-3.44731e-36
-3.447407e-36
-3.43681e-36
-3.375468e-36
-3.32925e-36
-3.203872e-36
-2.945383e-36
-3.470706e-36
-3.06691e-36
-5.34332e-36
-1.971796e-36
-1.841084e-36
-2.842967e-36
-3.398939e-36
-3.314575e-36
-3.361366e-36
-3.514274e-36
-3.359637e-36
-3.370675e-36
-3.367319e-36
-3.373951e-36
-3.382421e-36
-3.386563e-36
-3.388536e-36
-3.38718e-36
-3.380316e-36
-3.371787e-36
-3.366429e-36
-3.38196e-36
-3.445369e-36
-3.393411e-36
-3.31476e-36
-3.323417e-36
-3.181295e-36
-3.129301e-36
-3.438824e-36
-2.995697e-36
-5.343242e-36
-1.552827e-36
-3.160264e-36
-2.742008e-36
-3.294301e-36
-3.314506e-36
-3.363491e-36
-3.527974e-36
-3.383176e-36
-3.369113e-36
-3.378263e-36
-3.383822e-36
-3.383694e-36
-3.378554e-36
-3.374598e-36
-3.375045e-36
-3.378641e-36
-3.382971e-36
-3.387838e-36
-3.382986e-36
-3.374598e-36
-3.391615e-36
-3.459744e-36
-3.404086e-36
-3.317105e-36
-3.323796e-36
-3.57264e-36
-3.615484e-36
-3.163384e-36
-2.530322e-36
-3.16909e-36
-2.810197e-36
-2.370155e-36
-3.098364e-36
-3.500167e-36
-3.361139e-36
-3.528581e-36
-3.392552e-36
-3.37946e-36
-3.381683e-36
-3.389458e-36
-3.392369e-36
-3.387047e-36
-3.378931e-36
-3.352743e-36
-3.346102e-36
-3.360953e-36
-3.382914e-36
-3.393687e-36
-3.393712e-36
-3.390058e-36
-3.381706e-36
-3.400719e-36
-3.463421e-36
-3.401742e-36
-3.332095e-36
-3.371973e-36
-3.259297e-36
-3.535685e-36
-2.325588e-36
-5.343261e-36
-2.090419e-36
-1.887447e-36
-2.941459e-36
-3.56603e-36
-3.378142e-36
-3.513598e-36
-3.382997e-36
-3.379469e-36
-3.38181e-36
-3.384425e-36
-3.387799e-36
-3.390186e-36
-3.367899e-36
-3.350858e-36
-3.333025e-36
-3.328343e-36
-3.337819e-36
-3.355605e-36
-3.375772e-36
-3.39097e-36
-3.392796e-36
-3.386543e-36
-3.381088e-36
-3.397594e-36
-3.449767e-36
-3.398364e-36
-3.422196e-36
-3.270758e-36
-3.290496e-36
-3.744412e-36
-2.458743e-36
-2.913982e-36
-2.887663e-36
-2.590238e-36
-3.289389e-36
-3.312374e-36
-3.407877e-36
-3.35911e-36
-3.36875e-36
-3.38165e-36
-3.384391e-36
-3.381907e-36
-3.364602e-36
-3.357927e-36
-3.348439e-36
-3.343076e-36
-3.338427e-36
-3.337032e-36
-3.339065e-36
-3.343841e-36
-3.350819e-36
-3.360476e-36
-3.375001e-36
-3.3852e-36
-3.385224e-36
-3.378677e-36
-3.385826e-36
-3.364525e-36
-3.279163e-36
-3.327513e-36
-3.660815e-36
-3.532659e-36
-2.193084e-36
-3.934909e-36
-2.924738e-36
-2.958695e-36
-3.305763e-36
-3.37424e-36
-3.534741e-36
-3.370061e-36
-3.377853e-36
-3.389391e-36
-3.387577e-36
-3.364462e-36
-3.346022e-36
-3.345761e-36
-3.351716e-36
-3.358806e-36
-3.363098e-36
-3.363809e-36
-3.360861e-36
-3.354926e-36
-3.348217e-36
-3.345752e-36
-3.355976e-36
-3.374383e-36
-3.387181e-36
-3.38645e-36
-3.396838e-36
-3.452232e-36
-3.3844e-36
-3.355825e-36
-3.656465e-36
-3.673054e-36
-3.083747e-36
-3.92487e-36
-1.654229e-36
-3.086724e-36
-3.439745e-36
-3.460571e-36
-3.368659e-36
-3.36692e-36
-3.383455e-36
-3.391993e-36
-3.389795e-36
-3.357702e-36
-3.345677e-36
-3.354722e-36
-3.37057e-36
-3.384624e-36
-3.393105e-36
-3.394784e-36
-3.389494e-36
-3.378102e-36
-3.363006e-36
-3.349984e-36
-3.350111e-36
-3.370657e-36
-3.38888e-36
-3.390242e-36
-3.381917e-36
-3.388578e-36
-3.376965e-36
-3.360937e-36
-3.318684e-36
-3.300266e-36
-3.433251e-36
-5.343254e-36
-2.173999e-36
-2.429044e-36
-3.321222e-36
-3.303972e-36
-3.505484e-36
-3.377593e-36
-3.37348e-36
-3.383502e-36
-3.386648e-36
-3.367569e-36
-3.348264e-36
-3.35164e-36
-3.370548e-36
-3.392173e-36
-3.409468e-36
-3.419628e-36
-3.421673e-36
-3.415427e-36
-3.401629e-36
-3.382166e-36
-3.361697e-36
-3.349626e-36
-3.356756e-36
-3.373945e-36
-3.385111e-36
-3.386169e-36
-3.402896e-36
-3.409918e-36
-3.389448e-36
-3.319998e-36
-3.679488e-36
-3.87591e-36
-2.146865e-36
-2.740029e-36
-2.873007e-36
-2.731641e-36
-3.225579e-36
-3.325048e-36
-3.534647e-36
-3.396718e-36
-3.38181e-36
-3.378218e-36
-3.378591e-36
-3.350618e-36
-3.342958e-36
-3.35873e-36
-3.384567e-36
-3.409423e-36
-3.428422e-36
-3.439465e-36
-3.441712e-36
-3.434926e-36
-3.419839e-36
-3.397972e-36
-3.372608e-36
-3.351004e-36
-3.345387e-36
-3.361781e-36
-3.378421e-36
-3.386594e-36
-3.417811e-36
-3.435283e-36
-3.389508e-36
-3.271433e-36
-3.7353e-36
-3.537127e-36
-2.035973e-36
-3.696861e-36
-3.035062e-36
-2.84023e-36
-3.258536e-36
-3.343148e-36
-3.552545e-36
-3.411371e-36
-3.386482e-36
-3.374496e-36
-3.352657e-36
-3.332987e-36
-3.338394e-36
-3.363038e-36
-3.393035e-36
-3.419549e-36
-3.439401e-36
-3.450523e-36
-3.452838e-36
-3.445961e-36
-3.430471e-36
-3.407403e-36
-3.37951e-36
-3.352403e-36
-3.336887e-36
-3.342987e-36
-3.362344e-36
-3.382606e-36
-3.425969e-36
-3.450657e-36
-3.404974e-36
-3.293768e-36
-3.765593e-36
-3.693252e-36
-2.816641e-36
-3.745897e-36
-3.063622e-36
-2.853381e-36
-3.263182e-36
-3.346684e-36
-3.557305e-36
-3.415428e-36
-3.389108e-36
-3.375453e-36
-3.346347e-36
-3.328467e-36
-3.337078e-36
-3.363793e-36
-3.394729e-36
-3.421585e-36
-3.441593e-36
-3.45272e-36
-3.455056e-36
-3.448171e-36
-3.432686e-36
-3.409498e-36
-3.38134e-36
-3.353357e-36
-3.335227e-36
-3.339977e-36
-3.358161e-36
-3.381267e-36
-3.427481e-36
-3.453392e-36
-3.407794e-36
-3.298372e-36
-3.770839e-36
-3.702229e-36
-2.860487e-36
-3.624794e-36
-3.000381e-36
-2.814586e-36
-3.242392e-36
-3.334244e-36
-3.547797e-36
-3.408457e-36
-3.387882e-36
-3.379002e-36
-3.361289e-36
-3.337995e-36
-3.339136e-36
-3.360853e-36
-3.389451e-36
-3.41535e-36
-3.434809e-36
-3.445831e-36
-3.44811e-36
-3.441438e-36
-3.426312e-36
-3.404119e-36
-3.37794e-36
-3.353787e-36
-3.342998e-36
-3.347653e-36
-3.368927e-36
-3.38201e-36
-3.421703e-36
-3.443059e-36
-3.398071e-36
-3.285449e-36
-3.749747e-36
-3.659558e-36
-2.696388e-36
-2.384963e-36
-2.862608e-36
-2.589714e-36
-3.213863e-36
-3.331564e-36
-3.524664e-36
-3.391842e-36
-3.380683e-36
-3.383086e-36
-3.383128e-36
-3.355755e-36
-3.343901e-36
-3.354916e-36
-3.378068e-36
-3.401562e-36
-3.419719e-36
-3.430322e-36
-3.432571e-36
-3.426245e-36
-3.412149e-36
-3.392092e-36
-3.369976e-36
-3.353201e-36
-3.354583e-36
-3.367926e-36
-3.377775e-36
-3.383031e-36
-3.409188e-36
-3.42074e-36
-3.380117e-36
-3.282379e-36
-3.735538e-36
-3.754665e-36
-4.052593e-37
-4.213531e-36
-2.468729e-36
-3.197877e-36
-3.369602e-36
-3.498289e-36
-3.394008e-36
-3.37189e-36
-3.388053e-36
-3.393785e-36
-3.375837e-36
-3.350835e-36
-3.348206e-36
-3.362975e-36
-3.382085e-36
-3.397823e-36
-3.407175e-36
-3.409257e-36
-3.403955e-36
-3.392014e-36
-3.375562e-36
-3.359528e-36
-3.35431e-36
-3.362117e-36
-3.383029e-36
-3.386666e-36
-3.38534e-36
-3.410724e-36
-3.400226e-36
-3.377484e-36
-3.567838e-36
-3.946507e-36
-3.327371e-36
-3.980727e-36
-3.206391e-36
-2.953336e-36
-3.319468e-36
-3.40764e-36
-3.44804e-36
-3.36663e-36
-3.38346e-36
-3.393859e-36
-3.390954e-36
-3.360439e-36
-3.345727e-36
-3.349946e-36
-3.3616e-36
-3.372404e-36
-3.379162e-36
-3.380859e-36
-3.377641e-36
-3.369823e-36
-3.359469e-36
-3.351324e-36
-3.357378e-36
-3.374102e-36
-3.386313e-36
-3.388156e-36
-3.39896e-36
-3.343647e-36
-3.410189e-36
-3.372046e-36
-3.693619e-36
-3.805795e-36
-3.211733e-36
-3.765094e-36
-3.020462e-36
-2.802038e-36
-3.286263e-36
-3.310522e-36
-3.447758e-36
-3.381983e-36
-3.375209e-36
-3.39039e-36
-3.392756e-36
-3.374848e-36
-3.355878e-36
-3.350061e-36
-3.349524e-36
-3.350768e-36
-3.351934e-36
-3.352693e-36
-3.353412e-36
-3.353025e-36
-3.354213e-36
-3.357305e-36
-3.362959e-36
-3.381403e-36
-3.386673e-36
-3.387002e-36
-3.408433e-36
-3.38336e-36
-3.262336e-36
-3.361392e-36
-3.754533e-36
-3.563264e-36
-2.966196e-36
-2.372913e-36
-2.987041e-36
-2.707305e-36
-3.194725e-36
-3.335697e-36
-3.437958e-36
-3.445539e-36
-3.392195e-36
-3.382048e-36
-3.386539e-36
-3.384949e-36
-3.374258e-36
-3.370606e-36
-3.356648e-36
-3.345151e-36
-3.336459e-36
-3.334585e-36
-3.342647e-36
-3.354464e-36
-3.36206e-36
-3.373959e-36
-3.381235e-36
-3.381348e-36
-3.384493e-36