/*--------------------------------*- C++ -*----------------------------------*\
  =========                 |
  \\      /  F ield         | OpenFOAM: The Open Source CFD Toolbox
   \\    /   O peration     | Website:  https://openfoam.org
    \\  /    A nd           | Version:  6
     \\/     M anipulation  |
\*---------------------------------------------------------------------------*/
FoamFile
{
    version     2.0;
    format      ascii;
    class       volScalarField;
    location    "49.8/region0/neutronTransport";
    object      discFlux7;
}
// * * * * * * * * * * * * * * * * * * * * * * * * * * * * * * * * * * * * * //

dimensions      [0 -2 -1 0 0 0 0];

internalField   nonuniform List<scalar> 
203709
(
6.166021
16.44272
15.41505
6.166021
4.110681
15.41505
46.24516
40.07914
39.05147
47.27283
14.38738
7.193692
5.138351
14.38738
46.24516
36.99613
34.94079
38.0238
36.99613
36.99613
36.99613
48.3005
13.35971
7.193692
5.138351
47.27283
39.05147
35.96846
34.94079
32.88545
34.94079
35.96846
32.88545
34.94079
35.96846
40.07914
48.3005
8.221362
14.38738
39.05147
33.91312
35.96846
35.96846
33.91312
35.96846
34.94079
33.91312
38.0238
35.96846
34.94079
41.10681
17.47039
4.110681
46.24516
35.96846
35.96846
35.96846
34.94079
33.91312
34.94079
34.94079
33.91312
34.94079
35.96846
38.0238
35.96846
51.38351
8.221362
14.38738
35.96846
34.94079
34.94079
34.94079
33.91312
34.94079
33.91312
33.91312
34.94079
33.91312
33.91312
36.99613
35.96846
39.05147
18.49806
5.138351
46.24516
33.91312
33.91312
32.88545
32.88545
34.94079
31.85778
31.85778
32.88545
31.85778
33.91312
33.91312
34.94079
34.94079
36.99613
51.38351
9.249032
16.44272
40.07914
38.0238
34.94079
35.96846
34.94079
33.91312
31.85778
34.94079
33.91312
32.88545
33.91312
34.94079
34.94079
34.94079
36.99613
41.10681
21.58107
14.38738
38.0238
38.0238
35.96846
34.94079
33.91312
33.91312
31.85778
33.91312
32.88545
32.88545
32.88545
34.94079
34.94079
35.96846
38.0238
41.10681
22.60874
7.193692
47.27283
34.94079
34.94079
34.94079
34.94079
33.91312
31.85778
32.88545
31.85778
31.85778
34.94079
33.91312
34.94079
34.94079
34.94079
49.32817
12.33204
14.38738
38.0238
36.99613
36.99613
33.91312
33.91312
34.94079
33.91312
33.91312
34.94079
33.91312
33.91312
35.96846
36.99613
38.0238
18.49806
7.193692
48.3005
36.99613
35.96846
34.94079
33.91312
34.94079
33.91312
33.91312
33.91312
33.91312
35.96846
35.96846
36.99613
47.27283
12.33204
13.35971
40.07914
34.94079
35.96846
36.99613
34.94079
34.94079
35.96846
34.94079
35.96846
36.99613
33.91312
40.07914
18.49806
7.193692
48.3005
41.10681
35.96846
36.99613
34.94079
36.99613
36.99613
35.96846
36.99613
36.99613
40.07914
50.35584
12.33204
8.221362
17.47039
51.38351
39.05147
35.96846
38.0238
36.99613
34.94079
36.99613
49.32817
18.49806
12.33204
8.221362
18.49806
49.32817
41.10681
42.13448
50.35584
18.49806
12.33204
9.249032
21.58107
22.60874
13.35971
5.138351
11.30437
11.30437
13.35971
13.35971
13.35971
13.35971
11.30437
12.33204
7.193692
5.138351
13.35971
44.18982
36.99613
36.99613
36.99613
38.0238
36.99613
36.99613
36.99613
38.0238
46.24516
14.38738
7.193692
4.110681
42.13448
35.96846
34.94079
35.96846
31.85778
56.52186
69.88158
68.8539
58.5772
31.85778
35.96846
35.96846
34.94079
43.16215
6.166021
4.110681
42.13448
33.91312
33.91312
32.88545
57.54953
114.0714
9.506336e+14
1.227762e+15
1.223008e+15
1.056279e+15
136.6801
62.68788
32.88545
34.94079
35.96846
45.21749
6.166021
4.110681
42.13448
32.88545
30.83011
58.5772
116.1267
9.8284e+14
1.393681e+15
1.736686e+15
2.058785e+15
2.087192e+15
1.78612e+15
1.403752e+15
1.095543e+15
138.7355
60.63254
31.85778
35.96846
44.18982
6.166021
4.110681
43.16215
33.91312
31.85778
89.40731
9.808488e+14
1.39445e+15
1.761067e+15
2.141234e+15
2.295311e+15
2.415831e+15
2.434437e+15
2.367018e+15
2.203924e+15
1.816093e+15
1.404235e+15
1.092702e+15
113.0437
32.88545
35.96846
44.18982
7.193692
14.38738
34.94079
34.94079
58.5772
9.807712e+14
1.715015e+15
2.128729e+15
2.303585e+15
2.453032e+15
2.522632e+15
2.563995e+15
2.572872e+15
2.550864e+15
2.491748e+15
2.379488e+15
2.183376e+15
1.758749e+15
1.134873e+15
80.15828
35.96846
38.0238
17.47039
5.138351
43.16215
34.94079
32.88545
116.1267
1.394677e+15
2.128774e+15
2.405342e+15
2.515105e+15
2.579148e+15
2.612838e+15
2.63046e+15
2.633995e+15
2.623804e+15
2.597394e+15
2.545979e+15
2.443889e+15
2.222208e+15
1.613233e+15
146.9568
32.88545
34.94079
49.32817
8.221362
11.30437
36.99613
34.94079
58.5772
9.831596e+14
1.761497e+15
2.303785e+15
2.515185e+15
2.595553e+15
2.633419e+15
2.652201e+15
2.660923e+15
2.662293e+15
2.656524e+15
2.641595e+15
2.61073e+15
2.54513e+15
2.385944e+15
1.895297e+15
1.153716e+15
80.15828
34.94079
40.07914
16.44272
11.30437
36.99613
32.88545
115.0991
1.394148e+15
2.141588e+15
2.453247e+15
2.579271e+15
2.633499e+15
2.658528e+15
2.670408e+15
2.675959e+15
2.676691e+15
2.672598e+15
2.6626e+15
2.641869e+15
2.598416e+15
2.499914e+15
2.260622e+15
1.619795e+15
146.9568
32.88545
39.05147
17.47039
14.38738
35.96846
56.52186
9.506196e+14
1.736994e+15
2.295596e+15
2.52282e+15
2.612959e+15
2.65232e+15
2.670497e+15
2.679248e+15
2.683348e+15
2.683604e+15
2.680292e+15
2.672785e+15
2.657028e+15
2.624791e+15
2.553742e+15
2.381808e+15
1.873651e+15
1.124531e+15
77.07527
40.07914
19.52573
12.33204
38.0238
68.8539
1.227729e+15
2.058891e+15
2.416e+15
2.564113e+15
2.630563e+15
2.661065e+15
2.676115e+15
2.683459e+15
2.68643e+15
2.686482e+15
2.683821e+15
2.677398e+15
2.663411e+15
2.636499e+15
2.579382e+15
2.455752e+15
2.174296e+15
1.471669e+15
94.54566
39.05147
18.49806
13.35971
38.0238
69.88158
1.222644e+15
2.086998e+15
2.434416e+15
2.57292e+15
2.634069e+15
2.662399e+15
2.67682e+15
2.683793e+15
2.686824e+15
2.686686e+15
2.683881e+15
2.677174e+15
2.662842e+15
2.634895e+15
2.575158e+15
2.447203e+15
2.159787e+15
1.510897e+15
95.57333
39.05147
18.49806
13.35971
35.96846
58.5772
1.056531e+15
1.785728e+15
2.366897e+15
2.550859e+15
2.623807e+15
2.656568e+15
2.67267e+15
2.680422e+15
2.684032e+15
2.683945e+15
2.680457e+15
2.672087e+15
2.655319e+15
2.620211e+15
2.542212e+15
2.357217e+15
1.823864e+15
1.345883e+15
85.29663
38.0238
18.49806
11.30437
36.99613
31.85778
136.6801
1.403555e+15
2.203878e+15
2.491649e+15
2.597301e+15
2.641564e+15
2.662665e+15
2.672918e+15
2.677578e+15
2.677254e+15
2.672155e+15
2.661076e+15
2.638551e+15
2.590522e+15
2.482282e+15
2.225806e+15
1.624634e+15
177.7869
31.85778
39.05147
17.47039
11.30437
38.0238
35.96846
61.66021
1.096055e+15
1.816481e+15
2.379601e+15
2.545982e+15
2.610709e+15
2.641955e+15
2.657176e+15
2.66347e+15
2.662795e+15
2.655419e+15
2.638651e+15
2.604901e+15
2.534921e+15
2.363602e+15
1.842335e+15
1.3704e+15
90.43498
35.96846
40.07914
17.47039
7.193692
46.24516
35.96846
31.85778
137.7078
1.404555e+15
2.183673e+15
2.443969e+15
2.54519e+15
2.598567e+15
2.624915e+15
2.63607e+15
2.634267e+15
2.62021e+15
2.590618e+15
2.534945e+15
2.436432e+15
2.208602e+15
1.623363e+15
182.9253
32.88545
34.94079
46.24516
11.30437
14.38738
38.0238
34.94079
61.66021
1.093038e+15
1.759094e+15
2.222322e+15
2.38612e+15
2.50016e+15
2.553903e+15
2.578663e+15
2.574364e+15
2.542244e+15
2.482326e+15
2.363623e+15
2.208716e+15
1.797122e+15
1.369542e+15
88.37964
35.96846
34.94079
18.49806
7.193692
45.21749
36.99613
31.85778
113.0437
1.135195e+15
1.61338e+15
1.895589e+15
2.261051e+15
2.382058e+15
2.455177e+15
2.446567e+15
2.357269e+15
2.225818e+15
1.842428e+15
1.623716e+15
1.369855e+15
153.1229
33.91312
35.96846
45.21749
12.33204
6.166021
44.18982
35.96846
32.88545
81.18595
146.9568
1.153943e+15
1.620601e+15
1.873725e+15
2.173443e+15
2.159116e+15
1.823943e+15
1.624515e+15
1.37031e+15
182.9253
89.40731
32.88545
35.96846
44.18982
9.249032
5.138351
46.24516
35.96846
35.96846
31.85778
80.15828
144.9015
1.124402e+15
1.471079e+15
1.510843e+15
1.345551e+15
179.8423
90.43498
32.88545
34.94079
35.96846
44.18982
9.249032
6.166021
45.21749
39.05147
35.96846
34.94079
32.88545
77.07527
95.57333
96.601
86.3243
33.91312
36.99613
34.94079
36.99613
45.21749
9.249032
7.193692
17.47039
48.3005
39.05147
39.05147
39.05147
41.10681
40.07914
39.05147
38.0238
40.07914
47.27283
17.47039
11.30437
7.193692
16.44272
17.47039
20.5534
18.49806
18.49806
20.5534
17.47039
17.47039
12.33204
3.083011
12.33204
12.33204
11.30437
11.30437
12.33204
13.35971
5.138351
3.083011
12.33204
12.33204
44.18982
38.0238
39.05147
38.0238
36.99613
40.07914
39.05147
47.27283
12.33204
13.35971
5.138351
4.110681
46.24516
32.88545
57.54953
71.93692
71.93692
72.96459
71.93692
71.93692
71.93692
72.96459
70.90925
59.60487
33.91312
45.21749
5.138351
5.138351
12.33204
39.05147
59.60487
117.1544
1.005488e+15
1.29344e+15
1.311429e+15
1.308849e+15
1.306092e+15
1.304816e+15
1.304145e+15
1.301518e+15
1.2816e+15
1.114397e+15
139.7632
63.71555
40.07914
13.35971
7.193692
6.166021
44.18982
32.88545
94.54566
1.037897e+15
1.472477e+15
1.849576e+15
2.199979e+15
2.318857e+15
2.360484e+15
2.368405e+15
2.365552e+15
2.351739e+15
2.310951e+15
2.222539e+15
1.894372e+15
1.48155e+15
1.15961e+15
119.2097
33.91312
44.18982
8.221362
5.138351
43.16215
33.91312
99.68401
1.140508e+15
1.836922e+15
2.257052e+15
2.453505e+15
2.630909e+15
2.7378e+15
2.839355e+15
2.860087e+15
2.856238e+15
2.828627e+15
2.722025e+15
2.641286e+15
2.513682e+15
2.305992e+15
1.882541e+15
1.27922e+15
125.3758
33.91312
46.24516
8.221362
12.33204
33.91312
100.7117
1.144222e+15
1.863293e+15
2.33874e+15
2.624161e+15
2.787524e+15
2.957794e+15
3.095661e+15
3.513167e+15
3.620785e+15
3.6282e+15
3.572642e+15
3.10967e+15
2.961965e+15
2.79589e+15
2.65227e+15
2.428804e+15
1.938879e+15
1.286835e+15
126.4034
34.94079
16.44272
5.138351
38.0238
95.57333
1.140912e+15
1.863188e+15
2.355786e+15
2.688606e+15
2.932789e+15
3.111435e+15
3.563637e+15
3.733128e+15
3.874231e+15
3.999427e+15
4.026996e+15
3.981995e+15
3.801023e+15
3.642726e+15
3.137451e+15
2.947013e+15
2.717719e+15
2.452591e+15
1.942058e+15
1.286451e+15
121.2651
42.13448
6.166021
2.05534
43.16215
59.60487
1.037415e+15
1.837301e+15
2.339176e+15
2.688949e+15
3.013654e+15
3.53534e+15
3.732898e+15
3.896909e+15
4.054192e+15
4.140858e+15
4.204641e+15
4.224208e+15
4.20393e+15
4.127865e+15
4.020963e+15
3.806197e+15
3.614281e+15
3.044358e+15
2.720648e+15
2.438402e+15
1.914246e+15
1.209616e+15
83.24129
46.24516
7.193692
13.35971
32.88545
118.1821
1.472719e+15
2.257216e+15
2.624564e+15
2.933025e+15
3.535233e+15
3.84352e+15
4.040882e+15
4.148227e+15
4.232498e+15
4.281459e+15
4.311784e+15
4.321525e+15
4.311544e+15
4.277774e+15
4.22122e+15
4.117922e+15
3.975886e+15
3.668893e+15
2.963064e+15
2.666722e+15
2.35776e+15
1.701215e+15
151.0675
34.94079
16.44272
12.33204
56.52186
1.004013e+15
1.849868e+15
2.45374e+15
2.787833e+15
3.111486e+15
3.732909e+15
4.040887e+15
4.197062e+15
4.275694e+15
4.324257e+15
4.352309e+15
4.367773e+15
4.372111e+15
4.36573e+15
4.347102e+15
4.313635e+15
4.254401e+15
4.153574e+15
3.937698e+15
3.17756e+15
2.808917e+15
2.52916e+15
1.986023e+15
1.190637e+15
80.15828
17.47039
3.083011
45.21749
70.90925
1.292024e+15
2.199741e+15
2.631011e+15
2.957997e+15
3.56382e+15
3.897117e+15
4.148349e+15
4.275758e+15
4.337551e+15
4.370429e+15
4.388143e+15
4.39695e+15
4.398856e+15
4.394244e+15
4.381969e+15
4.359037e+15
4.318137e+15
4.242865e+15
4.090788e+15
3.721076e+15
2.987801e+15
2.666472e+15
2.314905e+15
1.549063e+15
98.65634
49.32817
5.138351
12.33204
39.05147
72.96459
1.310603e+15
2.318423e+15
2.737702e+15
3.095562e+15
3.733265e+15
4.054381e+15
4.232639e+15
4.32435e+15
4.370476e+15
4.394341e+15
4.406851e+15
4.412841e+15
4.413734e+15
4.409853e+15
4.400555e+15
4.383253e+15
4.352482e+15
4.297008e+15
4.188551e+15
3.947763e+15
3.16013e+15
2.752232e+15
2.396171e+15
1.61101e+15
100.7117
41.10681
18.49806
12.33204
40.07914
71.93692
1.308421e+15
2.360107e+15
2.839228e+15
3.513044e+15
3.87431e+15
4.141021e+15
4.281575e+15
4.352396e+15
4.38822e+15
4.406902e+15
4.416615e+15
4.421048e+15
4.421435e+15
4.418126e+15
4.410338e+15
4.396077e+15
4.370831e+15
4.325882e+15
4.241178e+15
4.070576e+15
3.668055e+15
2.868859e+15
2.438185e+15
1.624976e+15
100.7117
41.10681
18.49806
11.30437
35.96846
71.93692
1.3059e+15
2.368197e+15
2.859939e+15
3.620714e+15
3.999468e+15
4.204737e+15
4.311865e+15
4.367853e+15
4.397039e+15
4.412926e+15
4.42111e+15
4.424818e+15
4.424913e+15
4.421926e+15
4.414741e+15
4.40179e+15
4.379237e+15
4.339755e+15
4.269743e+15
4.134773e+15
3.834676e+15
2.918707e+15
2.456654e+15
1.630514e+15
100.7117
40.07914
17.47039
10.2767
38.0238
71.93692
1.304772e+15
2.365543e+15
2.856194e+15
3.628031e+15
4.026874e+15
4.224199e+15
4.32156e+15
4.372165e+15
4.398928e+15
4.413816e+15
4.421538e+15
4.425031e+15
4.424967e+15
4.421921e+15
4.414677e+15
4.401699e+15
4.379124e+15
4.33979e+15
4.271069e+15
4.139577e+15
3.857051e+15
2.932031e+15
2.46189e+15
1.633048e+15
100.7117
40.07914
16.44272
12.33204
39.05147
72.96459
1.304146e+15
2.351737e+15
2.828599e+15
3.572769e+15
3.981885e+15
4.203884e+15
4.311531e+15
4.36574e+15
4.394285e+15
4.409914e+15
4.41821e+15
4.422031e+15
4.421961e+15
4.418287e+15
4.410297e+15
4.395975e+15
4.370769e+15
4.326502e+15
4.246201e+15
4.098665e+15
3.764918e+15
2.91735e+15
2.455241e+15
1.633947e+15
99.68401
41.10681
17.47039
12.33204
38.0238
71.93692
1.301471e+15
2.310675e+15
2.721816e+15
3.109723e+15
3.801075e+15
4.127862e+15
4.27773e+15
4.34707e+15
4.381973e+15
4.4006e+15
4.410421e+15
4.414824e+15
4.414721e+15
4.410332e+15
4.400835e+15
4.383561e+15
4.353221e+15
4.298818e+15
4.191221e+15
3.961265e+15
3.195097e+15
2.790013e+15
2.41074e+15
1.630306e+15
100.7117
41.10681
18.49806
5.138351
46.24516
71.93692
1.281669e+15
2.222096e+15
2.64117e+15
2.962027e+15
3.642956e+15
4.021132e+15
4.221304e+15
4.313657e+15
4.359048e+15
4.383311e+15
4.396144e+15
4.401763e+15
4.401659e+15
4.396008e+15
4.383598e+15
4.361401e+15
4.32299e+15
4.25262e+15
4.118487e+15
3.808513e+15
3.035573e+15
2.684179e+15
2.30816e+15
1.607404e+15
98.65634
47.27283
11.30437
12.33204
58.5772
1.114659e+15
1.893829e+15
2.513679e+15
2.795849e+15
3.137302e+15
3.806337e+15
4.11804e+15
4.254457e+15
4.318193e+15
4.352568e+15
4.370843e+15
4.37886e+15
4.378796e+15
4.370727e+15
4.353247e+15
4.323006e+15
4.271747e+15
4.175541e+15
3.959434e+15
3.210852e+15
2.840336e+15
2.527142e+15
1.944886e+15
1.42282e+15
88.37964
16.44272
12.33204
32.88545
140.7908
1.480962e+15
2.306296e+15
2.652375e+15
2.946774e+15
3.614319e+15
3.975971e+15
4.153657e+15
4.242984e+15
4.297152e+15
4.325934e+15
4.339307e+15
4.339401e+15
4.326442e+15
4.298819e+15
4.252657e+15
4.175595e+15
4.062103e+15
3.780379e+15
3.01304e+15
2.678844e+15
2.345727e+15
1.715011e+15
184.9806
35.96846
17.47039
5.138351
45.21749
63.71555
1.159001e+15
1.88295e+15
2.428849e+15
2.717223e+15
3.043974e+15
3.668967e+15
3.937812e+15
4.090951e+15
4.188734e+15
4.241228e+15
4.269251e+15
4.270683e+15
4.246173e+15
4.191217e+15
4.118514e+15
3.95955e+15
3.780461e+15
3.122546e+15
2.755128e+15
2.431218e+15
1.923055e+15
1.445843e+15
91.46265
48.3005
10.2767
6.166021
40.07914
118.1821
1.278794e+15
1.938708e+15
2.451978e+15
2.720212e+15
2.96298e+15
3.177589e+15
3.721137e+15
3.947903e+15
4.070512e+15
4.134272e+15
4.139275e+15
4.098683e+15
3.961268e+15
3.808432e+15
3.210791e+15
3.012985e+15
2.755165e+15
2.451544e+15
1.94668e+15
1.500702e+15
161.3442
41.10681
9.249032
12.33204
32.88545
125.3758
1.287274e+15
1.941576e+15
2.43838e+15
2.666798e+15
2.808931e+15
2.987776e+15
3.160081e+15
3.667913e+15
3.834404e+15
3.856977e+15
3.764969e+15
3.195267e+15
3.035473e+15
2.840313e+15
2.679031e+15
2.43157e+15
1.94664e+15
1.503547e+15
166.4826
33.91312
16.44272
8.221362
45.21749
34.94079
128.4588
1.286654e+15
1.914782e+15
2.357937e+15
2.529168e+15
2.666429e+15
2.752115e+15
2.868687e+15
2.918245e+15
2.931472e+15
2.917376e+15
2.790241e+15
2.6843e+15
2.527315e+15
2.346064e+15
1.923945e+15
1.501102e+15
168.5379
35.96846
47.27283
12.33204
8.221362
46.24516
33.91312
120.2374
1.209801e+15
1.701065e+15
1.985831e+15
2.314371e+15
2.395423e+15
2.437587e+15
2.455887e+15
2.460831e+15
2.455184e+15
2.411158e+15
2.308584e+15
1.944685e+15
1.714291e+15
1.445468e+15
160.3166
34.94079
47.27283
11.30437
9.249032
17.47039
42.13448
82.21362
151.0675
1.189877e+15
1.547674e+15
1.609469e+15
1.623942e+15
1.630998e+15
1.632581e+15
1.633958e+15
1.631014e+15
1.608669e+15
1.424551e+15
184.9806
92.49032
41.10681
17.47039
13.35971
6.166021
46.24516
34.94079
79.13061
98.65634
100.7117
100.7117
100.7117
101.7394
99.68401
100.7117
98.65634
89.40731
35.96846
46.24516
9.249032
6.166021
16.44272
16.44272
48.3005
41.10681
40.07914
39.05147
40.07914
40.07914
40.07914
48.3005
15.41505
18.49806
10.2767
6.166021
17.47039
16.44272
17.47039
17.47039
17.47039
18.49806
11.30437
4.110681
11.30437
13.35971
13.35971
11.30437
5.138351
3.083011
11.30437
10.2767
25.69176
79.13061
77.07527
79.13061
78.10294
77.07527
79.13061
27.7471
10.2767
11.30437
4.110681
5.138351
12.33204
62.68788
83.24129
126.4034
1.061892e+15
1.372283e+15
1.386853e+15
1.382176e+15
1.380008e+15
1.379399e+15
1.370288e+15
1.183132e+15
149.0122
83.24129
67.82623
9.249032
5.138351
3.083011
41.10681
100.7117
1.078296e+15
1.416108e+15
1.588755e+15
1.955913e+15
2.30978e+15
2.41432e+15
2.438157e+15
2.43758e+15
2.41637e+15
2.339262e+15
2.011106e+15
1.593749e+15
1.402104e+15
1.191859e+15
124.3481
41.10681
6.166021
1.02767
68.8539
129.4864
1.213326e+15
1.952811e+15
2.389869e+15
2.62649e+15
2.740617e+15
2.873253e+15
2.931991e+15
2.95245e+15
2.95358e+15
2.938961e+15
2.89839e+15
2.807363e+15
2.64563e+15
2.394521e+15
1.984785e+15
1.34317e+15
157.2335
70.90925
3.083011
2.05534
102.767
1.123752e+15
1.58613e+15
2.053616e+15
2.61528e+15
2.961687e+15
3.483446e+15
3.639487e+15
3.699044e+15
3.723258e+15
3.731536e+15
3.731662e+15
3.725277e+15
3.708606e+15
3.668294e+15
3.560341e+15
3.005531e+15
2.707709e+15
2.119676e+15
1.58712e+15
1.25e+15
123.3204
2.05534
2.05534
101.7394
1.236702e+15
1.978063e+15
2.465058e+15
2.834041e+15
3.470109e+15
3.72899e+15
3.921922e+15
4.074579e+15
4.139067e+15
4.163793e+15
4.17098e+15
4.17125e+15
4.16659e+15
4.151957e+15
4.117719e+15
4.038111e+15
3.815785e+15
3.589835e+15
2.926708e+15
2.493971e+15
1.999381e+15
1.380149e+15
127.4311
2.05534
3.083011
66.79856
1.12452e+15
1.978076e+15
2.528331e+15
2.968521e+15
3.565985e+15
3.888902e+15
4.100167e+15
4.216596e+15
4.30217e+15
4.348723e+15
4.378007e+15
4.386987e+15
4.388318e+15
4.384756e+15
4.363519e+15
4.336311e+15
4.287138e+15
4.184571e+15
4.038118e+15
3.721023e+15
3.02644e+15
2.594706e+15
2.028125e+15
1.304074e+15
87.35197
5.138351
4.110681
39.05147
130.5141
1.586082e+15
2.464746e+15
2.968623e+15
3.596055e+15
3.920271e+15
4.151876e+15
4.294876e+15
4.375969e+15
4.437591e+15
4.479991e+15
4.565531e+15
4.600245e+15
4.609179e+15
4.604023e+15
4.517464e+15
4.470619e+15
4.420363e+15
4.35761e+15
4.264072e+15
4.09147e+15
3.74939e+15
3.035592e+15
2.54435e+15
1.805061e+15
164.4272
43.16215
7.193692
10.2767
99.68401
1.211506e+15
2.0538e+15
2.834068e+15
3.566212e+15
3.920336e+15
4.160645e+15
4.31583e+15
4.419811e+15
4.487107e+15
4.590311e+15
4.645028e+15
4.693876e+15
4.731636e+15
4.746092e+15
4.741913e+15
4.694115e+15
4.650532e+15
4.541963e+15
4.472383e+15
4.393435e+15
4.284608e+15
4.09596e+15
3.729683e+15
2.941358e+15
2.183661e+15
1.367891e+15
127.4311
13.35971
4.110681
63.71555
1.076526e+15
1.951738e+15
2.615579e+15
3.47005e+15
3.889131e+15
4.152143e+15
4.315988e+15
4.435791e+15
4.57152e+15
4.64361e+15
4.704303e+15
4.754162e+15
4.788181e+15
4.813319e+15
4.824343e+15
4.822052e+15
4.799013e+15
4.768223e+15
4.703819e+15
4.645135e+15
4.514866e+15
4.405311e+15
4.280444e+15
4.071621e+15
3.658249e+15
2.748676e+15
2.029884e+15
1.262127e+15
88.37964
6.166021
12.33204
83.24129
1.414575e+15
2.389445e+15
2.961659e+15
3.728958e+15
4.100251e+15
4.295109e+15
4.419943e+15
4.571508e+15
4.677446e+15
4.746632e+15
4.791134e+15
4.825052e+15
4.847195e+15
4.861738e+15
4.868095e+15
4.866491e+15
4.85489e+15
4.835777e+15
4.800833e+15
4.759161e+15
4.674852e+15
4.50954e+15
4.389105e+15
4.241117e+15
3.962503e+15
3.069841e+15
2.483424e+15
1.663806e+15
114.0714
16.44272
10.2767
125.3758
1.587873e+15
2.626701e+15
3.482826e+15
3.92192e+15
4.2167e+15
4.376148e+15
4.487166e+15
4.643614e+15
4.746633e+15
4.808379e+15
4.843949e+15
4.866901e+15
4.881106e+15
4.889512e+15
4.892826e+15
4.891288e+15
4.884292e+15
4.871822e+15
4.850827e+15
4.821096e+15
4.764607e+15
4.587333e+15
4.457808e+15
4.331976e+15
4.131165e+15
3.66723e+15
2.722981e+15
1.87978e+15
164.4272
15.41505
25.69176
1.062777e+15
1.956762e+15
2.74151e+15
3.639138e+15
4.074464e+15
4.302216e+15
4.437687e+15
4.590374e+15
4.704363e+15
4.791175e+15
4.843972e+15
4.873322e+15
4.890217e+15
4.899923e+15
4.905135e+15
4.906856e+15
4.905371e+15
4.900377e+15
4.891281e+15
4.876357e+15
4.85331e+15
4.81273e+15
4.708175e+15
4.528322e+15
4.394862e+15
4.227034e+15
3.881253e+15
2.866293e+15
2.126671e+15
1.26943e+15
42.13448
3.083011
78.10294
1.373178e+15
2.311319e+15
2.8743e+15
3.698979e+15
4.138888e+15
4.348674e+15
4.479957e+15
4.645054e+15
4.75422e+15
4.825104e+15
4.866938e+15
4.890235e+15
4.903198e+15
4.910365e+15
4.913996e+15
4.914954e+15
4.913501e+15
4.909468e+15
4.902202e+15
4.890356e+15
4.871798e+15
4.840729e+15
4.774391e+15
4.583661e+15
4.434796e+15
4.272379e+15
3.957774e+15
2.975671e+15
2.446637e+15
1.642855e+15
108.933
6.166021
11.30437
78.10294
1.387391e+15
2.415544e+15
2.932702e+15
3.723284e+15
4.163638e+15
4.377927e+15
4.56547e+15
4.693884e+15
4.788231e+15
4.847242e+15
4.881143e+15
4.899951e+15
4.910382e+15
4.916072e+15
4.918834e+15
4.919407e+15
4.918028e+15
4.914502e+15
4.908251e+15
4.89807e+15
4.882034e+15
4.856065e+15
4.808442e+15
4.690421e+15
4.482861e+15
4.300016e+15
3.986567e+15
3.021896e+15
2.515641e+15
1.691278e+15
107.9054
16.44272
13.35971
79.13061
1.38213e+15
2.438537e+15
2.952756e+15
3.73158e+15
4.170921e+15
4.386929e+15
4.600209e+15
4.731641e+15
4.813352e+15
4.861773e+15
4.889546e+15
4.905168e+15
4.914025e+15
4.918854e+15
4.921164e+15
4.921529e+15
4.9202e+15
4.916903e+15
4.911146e+15
4.901843e+15
4.887266e+15
4.864574e+15
4.826032e+15
4.742218e+15
4.509746e+15
4.314072e+15
3.99743e+15
3.039227e+15
2.537013e+15
1.708654e+15
109.9607
17.47039
13.35971
78.10294
1.380283e+15
2.437777e+15
2.953792e+15
3.731759e+15
4.171309e+15
4.388328e+15
4.609144e+15
4.746062e+15
4.824343e+15
4.868111e+15
4.892849e+15
4.906884e+15
4.914984e+15
4.919439e+15
4.921559e+15
4.921821e+15
4.920463e+15
4.917188e+15
4.91153e+15
4.902459e+15
4.888393e+15
4.86699e+15
4.831388e+15
4.757194e+15
4.519567e+15
4.318245e+15
3.998537e+15
3.039187e+15
2.537525e+15
1.713946e+15
109.9607
18.49806
11.30437
78.10294
1.380013e+15
2.416531e+15
2.939178e+15
3.725392e+15
4.16662e+15
4.384728e+15
4.604041e+15
4.741894e+15
4.822042e+15
4.866491e+15
4.891296e+15
4.905389e+15
4.913525e+15
4.918057e+15
4.920232e+15
4.920476e+15
4.918963e+15
4.915504e+15
4.909579e+15
4.900143e+15
4.885695e+15
4.863593e+15
4.827559e+15
4.744378e+15
4.515962e+15
4.313367e+15
3.98994e+15
3.020173e+15
2.514198e+15
1.714197e+15
108.933
18.49806
4.110681
82.21362
1.370121e+15
2.339537e+15
2.898624e+15
3.708673e+15
4.151821e+15
4.36341e+15
4.517481e+15
4.694138e+15
4.799016e+15
4.854882e+15
4.884287e+15
4.900383e+15
4.909485e+15
4.914527e+15
4.916927e+15
4.917201e+15
4.915513e+15
4.911679e+15
4.905098e+15
4.894743e+15
4.878924e+15
4.852867e+15
4.801841e+15
4.633936e+15
4.469607e+15
4.28754e+15
3.96345e+15
2.968053e+15
2.426176e+15
1.7026e+15
107.9054
9.249032
27.7471
1.181049e+15
2.01131e+15
2.807358e+15
3.668295e+15
4.117451e+15
4.33622e+15
4.470611e+15
4.650572e+15
4.768261e+15
4.8358e+15
4.871831e+15
4.891288e+15
4.902219e+15
4.908268e+15
4.911134e+15
4.911514e+15
4.909581e+15
4.905105e+15
4.897479e+15
4.88566e+15
4.867537e+15
4.837637e+15
4.76734e+15
4.576309e+15
4.423129e+15
4.241142e+15
3.903604e+15
2.859605e+15
2.066678e+15
1.495522e+15
47.27283
9.249032
147.9845
1.593727e+15
2.645531e+15
3.560497e+15
4.037825e+15
4.287098e+15
4.420322e+15
4.541903e+15
4.703832e+15
4.800858e+15
4.850845e+15
4.876376e+15
4.890378e+15
4.898066e+15
4.901736e+15
4.902355e+15
4.900111e+15
4.894742e+15
4.885663e+15
4.871441e+15
4.848471e+15
4.802225e+15
4.643404e+15
4.499528e+15
4.356834e+15
4.159276e+15
3.755202e+15
2.750306e+15
1.84993e+15
197.3127
16.44272
11.30437
84.26896
1.401732e+15
2.393417e+15
3.005164e+15
3.815403e+15
4.1846e+15
4.357596e+15
4.472237e+15
4.645072e+15
4.759153e+15
4.821115e+15
4.853344e+15
4.871835e+15
4.882035e+15
4.887125e+15
4.888254e+15
4.885648e+15
4.878914e+15
4.867544e+15
4.848483e+15
4.820811e+15
4.755343e+15
4.567529e+15
4.423684e+15
4.260515e+15
3.972229e+15
3.086169e+15
2.50673e+15
1.729664e+15
114.0714
18.49806
5.138351
66.79856
1.193384e+15
1.983379e+15
2.706687e+15
3.588995e+15
4.037961e+15
4.263957e+15
4.393146e+15
4.514628e+15
4.674805e+15
4.764626e+15
4.812772e+15
4.84077e+15
4.85606e+15
4.864409e+15
4.86684e+15
4.863552e+15
4.852857e+15
4.837639e+15
4.802247e+15
4.755364e+15
4.607591e+15
4.46411e+15
4.319801e+15
4.12468e+15
3.740984e+15
2.757005e+15
2.057803e+15
1.518322e+15
96.601
9.249032
10.2767
125.3758
1.343459e+15
2.118422e+15
2.925949e+15
3.720699e+15
4.091251e+15
4.284261e+15
4.405079e+15
4.509456e+15
4.587324e+15
4.708185e+15
4.7744e+15
4.808398e+15
4.825855e+15
4.831257e+15
4.827541e+15
4.801843e+15
4.767318e+15
4.643392e+15
4.567542e+15
4.464152e+15
4.335137e+15
4.1586e+15
3.824209e+15
2.981143e+15
2.157855e+15
1.586126e+15
170.5933
12.33204
7.193692
41.10681
157.2335
1.588209e+15
2.493996e+15
3.026169e+15
3.749334e+15
4.095817e+15
4.280429e+15
4.389133e+15
4.457814e+15
4.528327e+15
4.583633e+15
4.690334e+15
4.742045e+15
4.757094e+15
4.744393e+15
4.633988e+15
4.576303e+15
4.49957e+15
4.423807e+15
4.319998e+15
4.158766e+15
3.850155e+15
3.087736e+15
2.57194e+15
1.838349e+15
201.4234
42.13448
10.2767
5.138351
70.90925
1.251578e+15
1.999233e+15
2.594031e+15
3.035445e+15
3.729807e+15
4.071814e+15
4.241196e+15
4.331973e+15
4.394815e+15
4.434688e+15
4.482708e+15
4.509337e+15
4.519204e+15
4.515908e+15
4.469719e+15
4.423227e+15
4.356915e+15
4.260566e+15
4.124759e+15
3.824244e+15
3.087969e+15
2.627664e+15
2.061843e+15
1.552826e+15
96.601
8.221362
2.05534
126.4034
1.382749e+15
2.027494e+15
2.544474e+15
2.941241e+15
3.658296e+15
3.962448e+15
4.131039e+15
4.226787e+15
4.272091e+15
4.299805e+15
4.31361e+15
4.317755e+15
4.313206e+15
4.287649e+15
4.241352e+15
4.15945e+15
3.972122e+15
3.740668e+15
2.980606e+15
2.572066e+15
2.061303e+15
1.608884e+15
162.3719
5.138351
4.110681
128.4588
1.305614e+15
1.805378e+15
2.183309e+15
2.748624e+15
3.069847e+15
3.667138e+15
3.881052e+15
3.957587e+15
3.98655e+15
3.997326e+15
3.998211e+15
3.989772e+15
3.963451e+15
3.903766e+15
3.755516e+15
3.086169e+15
2.756584e+15
2.157144e+15
1.839074e+15
1.554573e+15
163.3996
7.193692
3.083011
88.37964
165.4549
1.368286e+15
2.02982e+15
2.483586e+15
2.723195e+15
2.86697e+15
2.976538e+15
3.022714e+15
3.039158e+15
3.038417e+15
3.019932e+15
2.96775e+15
2.859131e+15
2.749941e+15
2.506582e+15
2.057638e+15
1.586834e+15
201.4234
97.62867
6.166021
5.138351
43.16215
128.4588
1.26207e+15
1.664166e+15
1.879322e+15
2.127255e+15
2.447459e+15
2.516522e+15
2.537019e+15
2.537002e+15
2.514432e+15
2.426536e+15
2.066754e+15
1.850414e+15
1.731564e+15
1.52055e+15
170.5933
42.13448
8.221362
7.193692
13.35971
87.35197
114.0714
164.4272
1.270142e+15
1.643546e+15
1.692097e+15
1.70905e+15
1.713775e+15
1.714592e+15
1.703518e+15
1.496901e+15
197.3127
114.0714
96.601
14.38738
11.30437
7.193692
17.47039
15.41505
43.16215
109.9607
109.9607
110.9884
110.9884
109.9607
106.8777
47.27283
17.47039
17.47039
9.249032
6.166021
16.44272
18.49806
18.49806
17.47039
10.2767
1.02767
6.166021
23.63642
29.80244
30.83011
30.83011
30.83011
24.66409
7.193692
2.05534
-1.02767
25.69176
31.85778
86.3243
133.5971
1.123512e+15
1.452091e+15
1.478962e+15
1.472302e+15
1.439642e+15
1.240585e+15
157.2335
87.35197
30.83011
26.71943
1.02767
15.41505
128.4588
1.153889e+15
1.468578e+15
1.544995e+15
1.734148e+15
2.124914e+15
2.523474e+15
2.629015e+15
2.632132e+15
2.550516e+15
2.1852e+15
1.735608e+15
1.524048e+15
1.443289e+15
1.259168e+15
149.0122
17.47039
3.083011
42.13448
1.233684e+15
1.723754e+15
2.185703e+15
2.585975e+15
2.807347e+15
3.312221e+15
3.498685e+15
3.628689e+15
3.675256e+15
3.68051e+15
3.654617e+15
3.58015e+15
3.402009e+15
2.821803e+15
2.592729e+15
2.201191e+15
1.694498e+15
1.351476e+15
53.43885
4.110681
2.05534
108.933
1.321784e+15
2.141126e+15
2.723714e+15
3.369455e+15
3.63659e+15
3.76569e+15
3.928393e+15
4.079297e+15
4.156159e+15
4.185702e+15
4.190501e+15
4.177864e+15
4.140409e+15
4.051195e+15
3.834103e+15
3.676437e+15
3.484304e+15
2.760533e+15
2.161778e+15
1.450772e+15
132.5695
3.083011
3.083011
109.9607
1.351059e+15
2.21049e+15
2.827055e+15
3.54544e+15
3.899089e+15
4.113555e+15
4.224069e+15
4.296841e+15
4.366662e+15
4.408132e+15
4.42643e+15
4.43005e+15
4.422875e+15
4.40325e+15
4.363009e+15
4.280663e+15
4.179702e+15
4.045186e+15
3.704955e+15
2.938075e+15
2.273102e+15
1.479992e+15
134.6248
5.138351
2.05534
108.933
1.359522e+15
2.270097e+15
3.287743e+15
3.703451e+15
3.980575e+15
4.219103e+15
4.370274e+15
4.515661e+15
4.58423e+15
4.62187e+15
4.641972e+15
4.650957e+15
4.652934e+15
4.649772e+15
4.6411e+15
4.623564e+15
4.584865e+15
4.453679e+15
4.343328e+15
4.158036e+15
3.832454e+15
3.453306e+15
2.348177e+15
1.492581e+15
134.6248
3.083011
2.05534
108.933
1.351022e+15
2.270572e+15
3.321789e+15
3.843303e+15
4.130704e+15
4.304593e+15
4.499222e+15
4.610691e+15
4.692875e+15
4.748809e+15
4.778212e+15
4.791969e+15
4.797455e+15
4.798783e+15
4.797422e+15
4.792585e+15
4.781827e+15
4.758303e+15
4.688615e+15
4.613124e+15
4.439e+15
4.251207e+15
4.02467e+15
3.538775e+15
2.359511e+15
1.488313e+15
133.5971
3.083011
42.13448
1.321833e+15
2.210128e+15
3.288283e+15
3.843366e+15
4.168224e+15
4.367269e+15
4.54557e+15
4.671793e+15
4.754705e+15
4.806758e+15
4.842377e+15
4.862521e+15
4.873602e+15
4.878044e+15
4.879429e+15
4.879154e+15
4.874768e+15
4.867055e+15
4.852022e+15
4.817062e+15
4.770018e+15
4.671471e+15
4.485653e+15
4.312403e+15
4.054524e+15
3.525844e+15
2.293971e+15
1.475975e+15
58.5772
14.38738
1.234585e+15
2.140794e+15
2.826865e+15
3.703253e+15
4.130592e+15
4.367305e+15
4.56358e+15
4.689891e+15
4.778706e+15
4.837081e+15
4.872317e+15
4.896228e+15
4.911421e+15
4.930932e+15
4.941308e+15
4.94526e+15
4.945582e+15
4.929947e+15
4.917571e+15
4.903446e+15
4.882504e+15
4.852479e+15
4.797554e+15