/*--------------------------------*- C++ -*----------------------------------*\
  =========                 |
  \\      /  F ield         | OpenFOAM: The Open Source CFD Toolbox
   \\    /   O peration     | Website:  https://openfoam.org
    \\  /    A nd           | Version:  6
     \\/     M anipulation  |
\*---------------------------------------------------------------------------*/
FoamFile
{
    version     2.0;
    format      ascii;
    class       volScalarField;
    location    "49.8/region0/neutronTransport";
    object      discFlux2;
}
// * * * * * * * * * * * * * * * * * * * * * * * * * * * * * * * * * * * * * //

dimensions      [0 -2 -1 0 0 0 0];

internalField   nonuniform List<scalar> 
203709
(
1.233276e+16
1.403667e+16
1.403499e+16
1.233709e+16
1.294987e+16
1.500716e+16
2.005042e+16
1.967276e+16
1.967018e+16
2.005006e+16
1.500652e+16
1.295069e+16
1.263003e+16
1.507716e+16
2.027742e+16
2.000347e+16
2.06217e+16
2.076582e+16
2.076499e+16
2.062017e+16
2.000072e+16
2.027477e+16
1.507448e+16
1.262771e+16
1.263212e+16
1.971225e+16
1.993441e+16
2.073806e+16
2.114223e+16
2.151571e+16
2.167805e+16
2.167858e+16
2.151324e+16
2.113809e+16
2.07341e+16
1.993014e+16
1.970887e+16
1.26293e+16
1.507858e+16
1.993483e+16
2.085889e+16
2.150781e+16
2.200639e+16
2.236965e+16
2.25496e+16
2.254968e+16
2.236639e+16
2.20021e+16
2.15035e+16
2.085363e+16
1.992956e+16
1.507395e+16
1.295305e+16
2.027925e+16
2.074002e+16
2.150843e+16
2.218801e+16
2.272559e+16
2.309899e+16
2.328268e+16
2.328189e+16
2.309657e+16
2.272294e+16
2.218348e+16
2.150345e+16
2.073569e+16
2.027564e+16
1.294935e+16
1.500857e+16
2.000425e+16
2.114314e+16
2.200588e+16
2.272554e+16
2.328443e+16
2.365474e+16
2.382656e+16
2.382574e+16
2.365349e+16
2.328113e+16
2.272082e+16
2.200244e+16
2.113985e+16
2.000021e+16
1.500561e+16
1.23389e+16
2.005516e+16
2.062565e+16
2.151881e+16
2.237207e+16
2.309977e+16
2.365536e+16
2.399317e+16
2.416097e+16
2.416068e+16
2.399253e+16
2.365214e+16
2.309627e+16
2.236815e+16
2.151424e+16
2.062082e+16
2.005223e+16
1.233185e+16
1.403742e+16
1.96741e+16
2.076854e+16
2.168295e+16
2.255348e+16
2.328447e+16
2.382863e+16
2.416245e+16
2.43492e+16
2.434235e+16
2.416132e+16
2.382782e+16
2.328351e+16
2.255018e+16
2.167782e+16
2.076454e+16
1.966939e+16
1.403228e+16
1.403966e+16
1.967921e+16
2.07707e+16
2.168264e+16
2.255358e+16
2.328554e+16
2.382898e+16
2.416338e+16
2.435587e+16
2.434862e+16
2.416296e+16
2.382879e+16
2.328386e+16
2.255146e+16
2.16789e+16
2.076526e+16
1.96727e+16
1.403557e+16
1.233573e+16
2.005982e+16
2.062808e+16
2.152078e+16
2.237433e+16
2.310277e+16
2.365872e+16
2.399772e+16
2.416689e+16
2.416456e+16
2.399642e+16
2.365741e+16
2.310019e+16
2.237103e+16
2.151608e+16
2.062179e+16
2.005051e+16
1.233335e+16
1.50094e+16
2.000755e+16
2.114785e+16
2.201222e+16
2.27313e+16
2.32908e+16
2.366145e+16
2.383532e+16
2.383201e+16
2.365983e+16
2.328689e+16
2.272628e+16
2.20057e+16
2.114041e+16
2.00008e+16
1.500549e+16
1.295512e+16
2.028486e+16
2.074526e+16
2.151542e+16
2.219524e+16
2.273457e+16
2.31068e+16
2.329296e+16
2.329e+16
2.310456e+16
2.272891e+16
2.218859e+16
2.150771e+16
2.073742e+16
2.027671e+16
1.29496e+16
1.508363e+16
1.994213e+16
2.086816e+16
2.15184e+16
2.201732e+16
2.238113e+16
2.257239e+16
2.256975e+16
2.237555e+16
2.200946e+16
2.15089e+16
2.085835e+16
1.993451e+16
1.507728e+16
1.263875e+16
1.972465e+16
1.994502e+16
2.074994e+16
2.115263e+16
2.152611e+16
2.169795e+16
2.169595e+16
2.152048e+16
2.114441e+16
2.073886e+16
1.993248e+16
1.971241e+16
1.262839e+16
1.263849e+16
1.508539e+16
2.028848e+16
2.001004e+16
2.063018e+16
2.077849e+16
2.077903e+16
2.062591e+16
2.000489e+16
2.027855e+16
1.507404e+16
1.262835e+16
1.295509e+16
1.501045e+16
2.005866e+16
1.968759e+16
1.969017e+16
2.005556e+16
1.50065e+16
1.294962e+16
1.233629e+16
1.403709e+16
1.403805e+16
1.233542e+16
1.026397e+16
1.208578e+16
1.261847e+16
1.298144e+16
1.321026e+16
1.321083e+16
1.29833e+16
1.262133e+16
1.208989e+16
1.02698e+16
1.050796e+16
1.270697e+16
1.749444e+16
1.796218e+16
1.865084e+16
1.950669e+16
2.019254e+16
2.019341e+16
1.951065e+16
1.865255e+16
1.795999e+16
1.748998e+16
1.270368e+16
1.050675e+16
1.073961e+16
1.715893e+16
1.801243e+16
1.951734e+16
2.105837e+16
2.237422e+16
2.448683e+16
2.611679e+16
2.611724e+16
2.448935e+16
2.237143e+16
2.105298e+16
1.951492e+16
1.801046e+16
1.716072e+16
1.074281e+16
1.084618e+16
1.746698e+16
1.902898e+16
2.095506e+16
2.302277e+16
2.655371e+16
3.115419e+16
3.752402e+16
3.93445e+16
3.934398e+16
3.751842e+16
3.115061e+16
2.655283e+16
2.302385e+16
2.095594e+16
1.903e+16
1.746566e+16
1.084943e+16
1.073935e+16
1.746507e+16
1.923409e+16
2.150484e+16
2.59674e+16
3.163744e+16
3.965569e+16
4.448194e+16
4.809825e+16
5.378146e+16
5.37798e+16
4.809702e+16
4.44787e+16
3.964922e+16
3.163688e+16
2.59649e+16
2.150583e+16
1.923287e+16
1.746293e+16
1.074113e+16
1.050958e+16
1.716452e+16
1.903097e+16
2.150792e+16
2.792556e+16
3.830361e+16
4.443943e+16
4.951933e+16
5.76024e+16
6.1181e+16
6.330089e+16
6.329886e+16
6.117564e+16
5.759434e+16
4.951134e+16
4.442996e+16
3.829049e+16
2.791755e+16
2.150016e+16
1.902571e+16
1.71609e+16
1.050989e+16
1.270428e+16
1.801301e+16
2.095711e+16
2.597067e+16
3.830456e+16
4.704097e+16
5.66619e+16
6.190422e+16
6.599758e+16
6.850755e+16
6.978665e+16
6.978434e+16
6.850039e+16
6.598775e+16
6.189207e+16
5.664657e+16
4.702514e+16
3.828982e+16
2.595898e+16
2.095112e+16
1.800955e+16
1.270323e+16
1.026884e+16
1.749407e+16
1.95169e+16
2.302634e+16
3.164029e+16
4.444866e+16
5.666619e+16
6.380413e+16
6.834129e+16
7.145846e+16
7.342713e+16
7.439669e+16
7.439429e+16
7.341945e+16
7.144794e+16
6.832805e+16
6.378816e+16
5.665e+16
4.443592e+16
3.163411e+16
2.302296e+16
1.951215e+16
1.748843e+16
1.02642e+16
1.209041e+16
1.79685e+16
2.105939e+16
2.656223e+16
3.967178e+16
4.953524e+16
6.191486e+16
6.834681e+16
7.242991e+16
7.515824e+16
7.687275e+16
7.770567e+16
7.770331e+16
7.686579e+16
7.514794e+16
7.241601e+16
6.833032e+16
6.189743e+16
4.952017e+16
3.965965e+16
2.655031e+16
2.105355e+16
1.796118e+16
1.208468e+16
1.26227e+16
1.866016e+16
2.237686e+16
3.115756e+16
4.450298e+16
5.762188e+16
6.601325e+16
7.146968e+16
7.516486e+16
7.767782e+16
7.926397e+16
8.003746e+16
8.003508e+16
7.925745e+16
7.766677e+16
7.515003e+16
7.145316e+16
6.599524e+16
5.760174e+16
4.447862e+16
3.11514e+16
2.237397e+16
1.865086e+16
1.261679e+16
1.298461e+16
1.951725e+16
2.449905e+16
3.754186e+16
4.81236e+16
6.120644e+16
6.852925e+16
7.344543e+16
7.688707e+16
7.927247e+16
8.078132e+16
8.151892e+16
8.151544e+16
8.077324e+16
7.925967e+16
7.68719e+16
7.342972e+16
6.85127e+16
6.118795e+16
4.810411e+16
3.753126e+16
2.448852e+16
1.950786e+16
1.298063e+16
1.321122e+16
2.01978e+16
2.612453e+16
3.936489e+16
5.380941e+16
6.333001e+16
6.981438e+16
7.442196e+16
7.772721e+16
8.005423e+16
8.152852e+16
8.225315e+16
8.224585e+16
8.151825e+16
8.00415e+16
7.771329e+16
7.440755e+16
6.979966e+16
6.331499e+16
5.379419e+16
3.93549e+16
2.61186e+16
2.019314e+16
1.320878e+16
1.320927e+16
2.019337e+16
2.611913e+16
3.936095e+16
5.38102e+16
6.333295e+16
6.981783e+16
7.44257e+16
7.77313e+16
8.005834e+16
8.153395e+16
8.226198e+16
8.225446e+16
8.152437e+16
8.004676e+16
7.771817e+16
7.441244e+16
6.980475e+16
6.332065e+16
5.379906e+16
3.935299e+16
2.611464e+16
2.019004e+16
1.320693e+16
1.297998e+16
1.951227e+16
2.449904e+16
3.754577e+16
4.812292e+16
6.121321e+16
6.853965e+16
7.345735e+16
7.690005e+16
7.92866e+16
8.079774e+16
8.153827e+16
8.153352e+16
8.078978e+16
7.927609e+16
7.688786e+16
7.344515e+16
6.852812e+16
6.12037e+16
4.81175e+16
3.753846e+16
2.449417e+16
1.950969e+16
1.297781e+16
1.262031e+16
1.86603e+16
2.238446e+16
3.116682e+16
4.450778e+16
5.763466e+16
6.603107e+16
7.149069e+16
7.518775e+16
7.770312e+16
7.929171e+16
8.006821e+16
8.006421e+16
7.928542e+16
7.769356e+16
7.517612e+16
7.147884e+16
6.602018e+16
5.762558e+16
4.450325e+16
3.115567e+16
2.237498e+16
1.865746e+16
1.26182e+16
1.20911e+16
1.797335e+16
2.106931e+16
2.656792e+16
3.968815e+16
4.955565e+16
6.194074e+16
6.83762e+16
7.246204e+16
7.519407e+16
7.691132e+16
7.774657e+16
7.774323e+16
7.690614e+16
7.518596e+16
7.245174e+16
6.8365e+16
6.192904e+16
4.954153e+16
3.967436e+16
2.656082e+16
2.105897e+16
1.796849e+16
1.208824e+16
1.027073e+16
1.75034e+16
1.952813e+16
2.303569e+16
3.166025e+16
4.4474e+16
5.669907e+16
6.384158e+16
6.838305e+16
7.150414e+16
7.347636e+16
7.444468e+16
7.444193e+16
7.34705e+16
7.149577e+16
6.837234e+16
6.382965e+16
5.668561e+16
4.44571e+16
3.16438e+16
2.30266e+16
1.951714e+16
1.749557e+16
1.026821e+16
1.271517e+16
1.802336e+16
2.096757e+16
2.598575e+16
3.833259e+16
4.707499e+16
5.67042e+16
6.195293e+16
6.605019e+16
6.856393e+16
6.983814e+16
6.983598e+16
6.855764e+16
6.604089e+16
6.194065e+16
5.669119e+16
4.706068e+16
3.831468e+16
2.597069e+16
2.095876e+16
1.801273e+16
1.270361e+16
1.051858e+16
1.717212e+16
1.904163e+16
2.15206e+16
2.794555e+16
3.8334e+16
4.448089e+16
4.956947e+16
5.765684e+16
6.124073e+16
6.335693e+16
6.335654e+16
6.123492e+16
5.764698e+16
4.955458e+16
4.446792e+16
3.832133e+16
2.793027e+16
2.150709e+16
1.903248e+16
1.716313e+16
1.0506e+16
1.074846e+16
1.748193e+16
1.924951e+16
2.151797e+16
2.598246e+16
3.166109e+16
3.969936e+16
4.452888e+16
4.814725e+16
5.382947e+16
5.383067e+16
4.814307e+16
4.451823e+16
3.968278e+16
3.164941e+16
2.597201e+16
2.150666e+16
1.92377e+16
1.747149e+16
1.073887e+16
1.08552e+16
1.747916e+16
1.904003e+16
2.096869e+16
2.303783e+16
2.656553e+16
3.117115e+16
3.756045e+16
3.937858e+16
3.937797e+16
3.755201e+16
3.116256e+16
2.656053e+16
2.302668e+16
2.095661e+16
1.902894e+16
1.746939e+16
1.084814e+16
1.074226e+16
1.717022e+16
1.802083e+16
1.952283e+16
2.106242e+16
2.238452e+16
2.450309e+16
2.6129e+16
2.61278e+16
2.449873e+16
2.23756e+16
2.105779e+16
1.951907e+16
1.8014e+16
1.71611e+16
1.073649e+16
1.051415e+16
1.27098e+16
1.749983e+16
1.797213e+16
1.866286e+16
1.951788e+16
2.020247e+16
2.020225e+16
1.951594e+16
1.865772e+16
1.796556e+16
1.749855e+16
1.270791e+16
1.051039e+16
1.026615e+16
1.208735e+16
1.261849e+16
1.298024e+16
1.320932e+16
1.320909e+16
1.298271e+16
1.262097e+16
1.208843e+16
1.026479e+16
8.650786e+15
1.017417e+16
1.049857e+16
1.061739e+16
1.061525e+16
1.049207e+16
1.01615e+16
8.642447e+15
8.646291e+15
1.082696e+16
1.200296e+16
1.637647e+16
1.695501e+16
1.731485e+16
1.747695e+16
1.74746e+16
1.730714e+16
1.694237e+16
1.637109e+16
1.200287e+16
1.082903e+16
8.654555e+15
9.603712e+15
1.580822e+16
1.741387e+16
1.9776e+16
2.221745e+16
2.326701e+16
2.3904e+16
2.419742e+16
2.419511e+16
2.389707e+16
2.325599e+16
2.22055e+16
1.97699e+16
1.741036e+16
1.580777e+16
9.612833e+15
8.97437e+15
1.165226e+16
1.7055e+16
2.117272e+16
2.595164e+16
3.290434e+16
3.573371e+16
3.723926e+16
3.821846e+16
3.872005e+16
3.871584e+16
3.820626e+16
3.722022e+16
3.570987e+16
3.288075e+16
2.593916e+16
2.11704e+16
1.705e+16
1.165415e+16
8.975497e+15
9.051801e+15
1.539254e+16
1.81449e+16
2.415538e+16
3.358157e+16
3.936071e+16
4.420188e+16
5.173178e+16
5.517474e+16
5.718994e+16
5.817878e+16
5.817393e+16
5.717682e+16
5.515593e+16
5.171142e+16
4.418868e+16
3.934863e+16
3.356736e+16
2.414458e+16
1.814469e+16
1.538748e+16
9.051366e+15
8.974613e+15
1.53967e+16
1.882189e+16
2.526029e+16
3.640635e+16
4.374252e+16
5.342171e+16
5.959868e+16
6.497312e+16
6.89817e+16
7.177651e+16
7.314687e+16
7.314161e+16
7.176332e+16
6.895894e+16
6.494387e+16
5.956895e+16
5.339077e+16
4.371569e+16
3.638569e+16
2.525462e+16
1.881432e+16
1.538892e+16
8.97373e+15
1.165727e+16
1.814921e+16
2.526364e+16
3.703272e+16
4.535156e+16
5.676006e+16
6.503915e+16
7.178218e+16
7.764276e+16
8.244368e+16
8.614416e+16
8.761316e+16
8.760707e+16
8.612603e+16
8.241677e+16
7.761218e+16
7.175121e+16
6.500617e+16
5.672869e+16
4.532397e+16
3.700454e+16
2.525137e+16
1.81436e+16
1.165499e+16
9.615021e+15
1.705596e+16
2.415438e+16
3.64163e+16
4.535176e+16
5.776286e+16
6.760601e+16
7.630064e+16
8.38492e+16
9.050263e+16
9.535667e+16
9.883773e+16
1.008266e+17
1.008208e+17
9.882085e+16
9.533088e+16
9.047104e+16
8.381483e+16
7.626422e+16
6.757332e+16
5.773146e+16
4.532727e+16
3.639401e+16
2.414526e+16
1.705046e+16
9.609909e+15
8.649476e+15
1.581323e+16
2.117593e+16
3.358588e+16
4.376054e+16
5.677591e+16
6.761475e+16
7.798088e+16
8.764376e+16
9.535619e+16
1.017262e+17
1.07009e+17
1.107212e+17
1.12727e+17
1.127214e+17
1.10705e+17
1.069844e+17
1.016956e+17
9.531973e+16
8.760408e+16
7.794356e+16
6.757771e+16
5.674188e+16
4.373264e+16
3.355931e+16
2.117035e+16
1.580692e+16
8.643722e+15
1.083294e+16
1.741918e+16
2.595238e+16
3.938033e+16
5.344219e+16
6.506097e+16
7.631303e+16
8.764834e+16
9.716964e+16
1.054584e+17
1.121301e+17
1.173025e+17
1.207726e+17
1.225434e+17
1.22538e+17
1.207571e+17
1.172795e+17
1.12101e+17
1.054237e+17
9.713188e+16
8.760997e+16
7.627477e+16
6.502606e+16
5.34108e+16
3.934751e+16
2.594469e+16
1.741501e+16
1.082702e+16
1.200588e+16
1.977606e+16
3.289928e+16
4.423206e+16
5.962588e+16
7.180908e+16
8.386616e+16
9.536925e+16
1.054657e+17
1.140254e+17
1.206359e+17
1.254983e+17
1.286938e+17
1.302859e+17
1.302809e+17
1.286794e+17
1.254769e+17
1.206091e+17
1.139941e+17
1.05432e+17
9.533525e+16
8.383323e+16
7.177714e+16
5.959683e+16
4.420279e+16
3.289879e+16
1.9776e+16
1.200253e+16
8.652628e+15
1.638137e+16
2.221283e+16
3.573507e+16
5.17633e+16
6.500757e+16
7.767605e+16
9.053311e+16
1.01752e+17
1.121482e+17
1.206457e+17
1.270716e+17
1.316917e+17
1.346895e+17
1.361671e+17
1.361625e+17
1.346762e+17
1.316715e+17
1.270461e+17
1.206163e+17
1.121163e+17
1.017192e+17
9.050061e+16
7.764339e+16
6.497833e+16
5.173677e+16
3.573464e+16
2.221524e+16
1.637346e+16
8.648731e+15
1.016857e+16
1.695345e+16
2.326927e+16
3.725232e+16
5.52112e+16
6.902418e+16
8.248191e+16
9.539658e+16
1.070449e+17
1.173315e+17
1.255195e+17
1.317038e+17
1.361363e+17
1.390043e+17
1.404156e+17
1.404109e+17
1.38991e+17
1.361159e+17
1.316785e+17
1.254914e+17
1.173013e+17
1.07013e+17
9.536442e+16
8.245549e+16
6.899646e+16
5.518679e+16
3.724586e+16
2.326632e+16
1.695125e+16
1.01686e+16
1.049787e+16
1.731714e+16
2.391085e+16
3.824211e+16
5.723454e+16
7.183025e+16
8.619682e+16
9.888905e+16
1.107685e+17
1.208135e+17
1.28728e+17
1.347156e+17
1.390192e+17
1.418047e+17
1.431739e+17
1.431681e+17
1.417893e+17
1.389969e+17
1.346898e+17
1.287013e+17
1.207864e+17
1.107403e+17
9.886101e+16
8.617133e+16
7.180251e+16
5.721151e+16
3.823083e+16
2.390627e+16
1.731384e+16
1.04953e+16
1.0622e+16
1.748665e+16
2.421096e+16
3.875321e+16
5.823137e+16
7.320691e+16
8.767609e+16
1.008888e+17
1.127859e+17
1.225971e+17
1.303337e+17
1.362074e+17
1.404457e+17
1.431905e+17
1.445395e+17
1.44532e+17
1.431731e+17
1.404223e+17
1.361818e+17
1.303085e+17
1.225729e+17
1.12762e+17
1.00865e+17
8.765346e+16
7.318396e+16
5.821009e+16
3.873907e+16
2.420292e+16
1.747937e+16
1.061766e+16
1.062309e+16
1.748838e+16
2.4213e+16
3.875696e+16
5.823391e+16
7.320865e+16
8.767906e+16
1.008935e+17
1.127925e+17
1.226049e+17
1.303422e+17
1.362163e+17
1.404551e+17
1.432009e+17
1.445511e+17
1.445436e+17
1.431838e+17
1.404324e+17
1.361917e+17
1.303185e+17
1.225831e+17
1.127723e+17
1.008739e+17
8.765925e+16
7.318884e+16
5.821431e+16
3.874086e+16
2.420318e+16
1.747965e+16
1.061834e+16
1.050296e+16
1.732477e+16
2.391846e+16
3.825362e+16
5.724262e+16
7.184067e+16
8.621271e+16
9.890524e+16
1.107884e+17
1.20837e+17
1.287538e+17
1.34743e+17
1.390483e+17
1.418358e+17
1.43207e+17
1.432008e+17
1.418209e+17
1.390279e+17
1.347207e+17
1.287325e+17
1.208179e+17
1.107714e+17
9.888888e+16
8.619405e+16
7.18228e+16
5.722375e+16
3.82328e+16
2.390652e+16
1.73149e+16
1.04975e+16
1.017912e+16
1.696611e+16
2.328168e+16
3.727286e+16
5.522573e+16
6.904452e+16
8.251106e+16
9.54276e+16
1.070797e+17
1.173711e+17
1.255631e+17
1.317506e+17
1.361862e+17
1.39057e+17
1.404703e+17
1.404654e+17
1.39045e+17
1.361693e+17
1.317317e+17
1.255449e+17
1.173546e+17
1.070644e+17
9.54119e+16
8.249183e+16
6.902668e+16
5.520637e+16
3.724438e+16
2.326671e+16
1.695516e+16
1.017287e+16
8.664035e+15
1.63928e+16
2.223461e+16
3.576863e+16
5.178374e+16
6.503719e+16
7.77103e+16
9.05769e+16
1.01802e+17
1.122041e+17
1.207067e+17
1.271374e+17
1.31762e+17
1.347633e+17
1.362427e+17
1.362389e+17
1.347542e+17
1.31749e+17
1.271225e+17
1.206917e+17
1.121891e+17
1.017865e+17
9.05621e+16
7.769699e+16
6.501979e+16
5.176604e+16
3.573308e+16
2.221753e+16
1.638454e+16
8.657741e+15
1.201664e+16
1.979767e+16
3.294035e+16
4.42515e+16
5.966268e+16
7.184774e+16
8.391859e+16
9.543128e+16
1.055352e+17
1.141019e+17
1.207195e+17
1.255878e+17
1.287873e+17
1.303789e+17
1.303759e+17
1.287795e+17
1.255768e+17
1.207068e+17
1.140887e+17
1.055211e+17
9.541579e+16
8.390579e+16
7.183616e+16
5.964338e+16
4.424032e+16
3.290166e+16
1.977897e+16
1.200856e+16
1.083776e+16
1.743506e+16
2.598194e+16
3.94086e+16
5.348439e+16
6.510257e+16
7.63663e+16
8.771623e+16
9.724729e+16
1.055465e+17
1.122286e+17
1.174083e+17
1.208827e+17
1.226514e+17
1.226487e+17
1.208751e+17
1.173971e+17
1.122157e+17
1.055339e+17
9.723438e+16
8.77018e+16
7.635459e+16
6.508869e+16
5.346161e+16
3.939745e+16
2.59567e+16
1.742164e+16
1.083483e+16
8.649565e+15
1.583118e+16
2.120086e+16
3.361714e+16
4.37985e+16
5.681799e+16
6.766765e+16
7.804883e+16
8.772443e+16
9.545096e+16
1.018351e+17
1.071256e+17
1.10843e+17
1.128478e+17
1.128458e+17
1.108352e+17
1.071129e+17
1.0182e+17
9.54382e+16
8.771249e+16
7.803632e+16
6.765577e+16
5.680241e+16
4.377232e+16
3.360598e+16
2.11799e+16
1.581538e+16
8.652375e+15
9.614859e+15
1.707289e+16
2.417808e+16
3.644206e+16
4.539397e+16
5.781555e+16
6.767292e+16
7.637904e+16
8.394156e+16
9.061168e+16
9.547452e+16
9.896085e+16
1.009497e+17
1.009482e+17
9.895363e+16
9.546115e+16
9.059582e+16
8.392871e+16
7.63669e+16
6.766072e+16
5.78044e+16
4.538278e+16
3.64322e+16
2.416554e+16
1.705989e+16
9.611463e+15
1.166359e+16
1.816506e+16
2.528556e+16
3.706685e+16
4.53926e+16
5.682564e+16
6.511853e+16
7.187244e+16
7.774019e+16
8.255085e+16
8.62627e+16
8.773492e+16
8.773273e+16
8.6255e+16
8.253959e+16
7.772871e+16
7.185831e+16
6.510453e+16
5.681306e+16
4.538307e+16
3.705582e+16
2.527264e+16
1.815279e+16
1.165581e+16
8.983962e+15
1.54105e+16
1.88383e+16
2.528388e+16
3.645234e+16
4.380301e+16
5.348877e+16
5.967754e+16
6.50611e+16
6.907819e+16
7.188107e+16
7.325297e+16
7.325083e+16
7.187708e+16
6.90699e+16
6.505093e+16
5.96686e+16
5.348388e+16
4.379571e+16
3.644286e+16
2.527491e+16
1.882878e+16
1.540068e+16
8.977272e+15
9.05754e+15
1.541098e+16
1.816681e+16
2.417332e+16
3.360873e+16
3.93989e+16
4.425943e+16
5.179699e+16
5.524378e+16
5.726515e+16
5.825626e+16
5.82541e+16
5.726662e+16
5.524655e+16
5.17974e+16
4.425518e+16
3.940388e+16
3.361396e+16
2.417199e+16
1.816026e+16
1.540399e+16
9.053289e+15
8.983127e+15
1.166612e+16
1.706631e+16
2.119119e+16
2.596553e+16
3.292631e+16
3.575415e+16
3.726057e+16
3.824811e+16
3.87742e+16
3.876848e+16
3.825834e+16
3.727615e+16
3.576893e+16
3.293828e+16
2.59728e+16
2.119145e+16
1.706621e+16
1.166055e+16
8.980656e+15
9.612713e+15
1.58197e+16
1.742558e+16
1.978566e+16
2.222105e+16
2.326889e+16
2.390894e+16
2.421193e+16
2.420571e+16
2.391291e+16
2.327373e+16
2.222531e+16
1.978652e+16
1.742277e+16
1.5823e+16
9.610717e+15
8.645742e+15
1.083396e+16
1.2008e+16
1.638432e+16
1.695455e+16
1.73153e+16
1.749294e+16
1.749073e+16
1.7315e+16
1.695305e+16
1.638532e+16
1.200661e+16
1.082964e+16
8.649053e+15
8.656337e+15
1.017007e+16
1.049471e+16
1.062113e+16
1.062009e+16
1.049321e+16
1.016666e+16
8.648377e+15
7.699542e+15
8.994308e+15
9.251451e+15
9.248981e+15
8.985696e+15
7.695427e+15
7.33842e+15
9.600884e+15
1.093451e+16
1.273821e+16
1.719606e+16
1.801312e+16
1.831252e+16
1.830537e+16
1.799471e+16
1.717374e+16
1.273797e+16
1.093904e+16
9.603627e+15
7.34613e+15
7.39682e+15
1.016443e+16
1.583158e+16
1.905968e+16
2.21625e+16
2.799671e+16
3.065044e+16
3.164693e+16
3.212252e+16
3.211121e+16
3.161816e+16
3.062292e+16
2.798695e+16
2.21548e+16
1.904796e+16
1.582944e+16
1.017167e+16
7.409174e+15
8.375464e+15
1.492377e+16
1.993837e+16
2.841836e+16
3.265845e+16
3.685228e+16
4.075799e+16
4.716844e+16
4.95871e+16
5.053948e+16
5.052805e+16
4.955648e+16
4.712968e+16
4.072285e+16
3.681392e+16
3.262563e+16
2.837948e+16
1.993715e+16
1.492331e+16
8.386962e+15
9.089649e+15
1.710434e+16
2.358457e+16
3.318185e+16
4.003629e+16
4.921367e+16
5.517104e+16
5.970605e+16
6.349195e+16
6.579905e+16
6.685634e+16
6.684502e+16
6.576741e+16
6.344695e+16
5.965742e+16
5.512561e+16
4.917486e+16
4.000454e+16
3.31461e+16
2.357787e+16
1.709735e+16
9.093336e+15
9.513352e+15
1.906208e+16
2.953752e+16
3.682507e+16
4.417647e+16
5.629363e+16
6.496574e+16
7.201298e+16
7.686214e+16
8.048871e+16
8.282451e+16
8.395097e+16
8.393957e+16
8.279211e+16
8.044036e+16
7.680457e+16
7.195227e+16
6.491039e+16
5.625256e+16
4.414571e+16
3.678779e+16
2.950678e+16
1.904605e+16
9.509645e+15
9.09356e+15
1.906574e+16
3.111828e+16
3.971455e+16
5.180454e+16
6.192912e+16
7.227461e+16
8.074679e+16
8.778071e+16
9.365843e+16
9.795777e+16
1.006958e+17
1.020216e+17
1.020104e+17
1.006641e+17
9.791087e+16
9.360292e+16
8.772202e+16
8.068717e+16
7.221837e+16
6.187452e+16
5.175514e+16
3.967245e+16
3.106973e+16
1.904718e+16
9.088982e+15
8.382508e+15
1.710842e+16
2.955228e+16
3.971693e+16
5.32867e+16
6.529032e+16
7.667486e+16
8.66104e+16
9.581511e+16
1.036053e+17
1.100019e+17
1.147396e+17
1.178286e+17
1.193317e+17
1.193206e+17
1.177973e+17
1.146919e+17
1.099433e+17
1.035411e+17
9.574735e+16
8.654286e+16
7.660855e+16
6.522981e+16
5.323198e+16
3.967486e+16
2.951649e+16
1.709615e+16
8.37811e+15
7.404212e+15
1.49296e+16
2.360344e+16
3.683553e+16
5.181716e+16
6.530012e+16
7.818118e+16
8.950517e+16
1.003891e+17
1.102523e+17
1.185729e+17
1.253562e+17
1.30497e+17
1.33913e+17
1.35528e+17
1.355166e+17
1.338805e+17
1.304478e+17
1.252965e+17
1.185073e+17
1.10182e+17
1.003171e+17
8.943194e+16
7.810776e+16
6.523487e+16
5.176283e+16
3.679788e+16
2.358662e+16
1.492046e+16
7.399258e+15
1.017339e+16
1.995728e+16
3.318557e+16
4.420973e+16
6.195309e+16
7.669702e+16
8.951798e+16
1.0187e+17
1.134228e+17
1.237224e+17
1.324923e+17
1.396349e+17
1.450377e+17
1.486847e+17
1.505412e+17
1.505302e+17
1.48653e+17
1.449898e+17
1.395765e+17
1.324268e+17
1.236521e+17
1.133509e+17
1.017964e+17
8.944445e+16
7.662586e+16
6.189176e+16
4.41641e+16
3.316009e+16
1.99438e+16
1.016987e+16
7.34863e+15
1.583719e+16
2.841996e+16
4.005838e+16
5.633684e+16
7.231186e+16
8.664661e+16
1.004168e+17
1.134366e+17
1.254157e+17
1.360827e+17
1.451553e+17
1.525731e+17
1.58345e+17
1.623078e+17
1.643444e+17
1.643342e+17
1.622787e+17
1.58301e+17
1.525189e+17
1.450931e+17
1.360153e+17
1.253457e+17
1.133639e+17
1.003431e+17
8.657394e+16
7.2243e+16
5.628009e+16
4.000812e+16
2.840254e+16
1.582797e+16
7.350462e+15
9.600725e+15
1.906369e+16
3.26656e+16
4.925522e+16
6.50115e+16
8.079558e+16
9.586125e+16
1.102909e+17
1.237464e+17
1.360929e+17
1.470113e+17
1.564878e+17
1.642851e+17
1.702989e+17
1.743773e+17
1.764432e+17
1.764342e+17
1.743516e+17
1.702603e+17
1.642372e+17
1.564327e+17
1.469509e+17
1.36029e+17
1.23679e+17
1.102219e+17
9.57915e+16
8.072553e+16
6.495213e+16
4.919626e+16
3.263231e+16
1.905027e+16
9.599739e+15
1.094156e+16
2.21762e+16
3.688071e+16
5.522725e+16
7.206386e+16
8.784201e+16
1.036629e+17
1.186215e+17
1.325259e+17
1.451762e+17
1.564983e+17
1.66339e+17
1.743524e+17
1.804232e+17
1.844895e+17
1.865278e+17
1.8652e+17
1.844674e+17
1.8039e+17
1.743114e+17
1.662923e+17
1.564473e+17
1.451217e+17
1.32468e+17
1.185606e+17
1.035997e+17
8.777644e+16
7.200666e+16
5.516366e+16
3.683217e+16
2.214902e+16
1.092919e+16
1.275003e+16
2.803966e+16
4.081552e+16
5.977425e+16
7.692653e+16
9.373031e+16
1.100714e+17
1.254159e+17
1.39682e+17
1.526082e+17
1.64309e+17
1.743652e+17
1.824516e+17
1.884982e+17
1.925115e+17
1.945107e+17
1.945038e+17
1.92492e+17
1.884688e+17
1.824156e+17
1.743248e+17
1.64265e+17
1.52561e+17
1.396316e+17
1.25362e+17
1.100143e+17
9.367104e+16
7.687079e+16
5.970984e+16
4.075272e+16
2.797873e+16
1.272847e+16
7.708139e+15
1.72058e+16
3.070015e+16
4.723977e+16
6.357067e+16
8.056826e+16
9.804224e+16
1.148226e+17
1.305697e+17
1.450996e+17
1.583957e+17
1.703385e+17
1.804519e+17
1.885144e+17
1.945042e+17
1.98462e+17
2.004281e+17
2.004213e+17
1.984429e+17
1.944758e+17
1.884807e+17
1.804155e+17
1.702999e+17
1.583547e+17
1.450563e+17
1.305241e+17
1.147717e+17
9.798841e+16
8.051271e+16
6.350504e+16
4.716817e+16
3.063661e+16
1.717853e+16
7.695068e+15
8.994395e+15
1.802815e+16
3.169502e+16
4.966331e+16
6.588721e+16
8.291998e+16
1.007963e+17
1.179285e+17
1.340042e+17
1.487649e+17
1.623767e+17
1.744352e+17
1.84537e+17
1.925473e+17
1.984822e+17
2.023962e+17
2.043373e+17
2.043295e+17
2.023749e+17
1.984518e+17
1.925132e+17
1.845028e+17
1.744012e+17
1.623418e+17
1.487281e+17
1.339644e+17
1.178831e+17
1.007473e+17
8.286683e+16
6.582686e+16
4.959818e+16
3.164026e+16
1.800187e+16
8.989125e+15
9.257883e+15
1.833485e+16
3.217235e+16
5.062454e+16
6.695876e+16
8.406414e+16
1.021402e+17
1.194495e+17
1.356387e+17
1.506418e+17
1.644338e+17
1.765217e+17
1.865958e+17
1.945672e+17
2.004699e+17
2.043602e+17
2.06288e+17
2.062791e+17
2.043365e+17
2.004374e+17
1.945323e+17
1.865628e+17
1.76491e+17
1.644036e+17
1.506102e+17
1.35604e+17
1.194098e+17
1.020959e+17
8.401505e+16
6.690528e+16
5.057122e+16
3.213465e+16
1.831584e+16
9.253597e+15
9.258439e+15
1.833775e+16
3.2181e+16
5.062995e+16
6.696479e+16
8.407076e+16
1.021471e+17
1.194568e+17
1.356475e+17
1.50652e+17
1.644455e+17
1.765347e+17
1.866097e+17
1.945817e+17
2.004849e+17
2.043757e+17
2.063039e+17
2.062948e+17
2.043517e+17
2.004522e+17
1.945471e+17
1.865778e+17
1.765063e+17
1.644189e+17
1.506245e+17
1.356169e+17
1.194219e+17
1.021071e+17
8.4026e+16
6.691801e+16
5.058469e+16
3.214695e+16
1.83228e+16
9.25687e+15
9.001949e+15
1.803501e+16
3.170258e+16
4.967292e+16
6.59028e+16
8.293897e+16
1.008161e+17
1.179512e+17
1.340323e+17
1.487966e+17
1.624122e+17
1.744744e+17
1.84579e+17
1.925913e+17
1.985279e+17
2.024432e+17
2.043851e+17
2.043768e+17
2.024213e+17
1.984976e+17
1.925593e+17
1.845497e+17
1.744488e+17
1.623887e+17
1.487723e+17
1.340047e+17
1.179201e+17
1.007794e+17
8.289686e+16
6.586256e+16
4.96358e+16
3.167473e+16
1.802259e+16
8.999763e+15
7.718417e+15
1.720442e+16
3.069805e+16
4.724919e+16
6.359167e+16
8.059856e+16
9.807405e+16
1.148605e+17
1.306169e+17
1.451534e+17
1.584554e+17
1.704041e+17
1.805226e+17
1.885891e+17
1.945819e+17
1.985418e+17
2.005089e+17
2.00502e+17
1.985235e+17
1.945565e+17
1.885621e+17
1.804979e+17
1.703824e+17
1.584351e+17
1.451319e+17
1.30592e+17
1.148322e+17
9.803962e+16
8.055723e+16
6.355776e+16
4.722119e+16
3.068105e+16
1.719764e+16
7.716377e+15
1.275483e+16
2.802832e+16
4.082766e+16
5.980036e+16
7.69683e+16
9.37732e+16
1.101237e+17
1.25478e+17
1.39755e+17
1.526908e+17
1.644e+17
1.744637e+17
1.825563e+17
1.88608e+17
1.926247e+17
1.946257e+17
1.946204e+17
1.926106e+17
1.885883e+17
1.825355e+17
1.744445e+17
1.643827e+17
1.52674e+17
1.397377e+17
1.254581e+17
1.100983e+17
9.374206e+16
7.692772e+16
5.977292e+16
4.08079e+16
2.80246e+16
1.274814e+16
1.094515e+16
2.218619e+16
3.689941e+16
5.52526e+16
7.211258e+16
8.789264e+16
1.037269e+17
1.186954e+17
1.326137e+17
1.452772e+17
1.566107e+17
1.66462e+17
1.744849e+17
1.805634e+17
1.846349e+17
1.866757e+17
1.866714e+17
1.846234e+17
1.805477e+17
1.744686e+17
1.664471e+17
1.56597e+17
1.452634e+17
1.325999e+17
1.186783e+17
1.03703e+17
8.786635e+16
7.207447e+16
5.523224e+16
3.68813e+16
2.217335e+16
1.093689e+16
9.613092e+15
1.908257e+16
3.269631e+16
4.927994e+16
6.505692e+16
8.085333e+16
9.593355e+16
1.103727e+17
1.238428e+17
1.362061e+17
1.471393e+17
1.566305e+17
1.644413e+17
1.704656e+17
1.74551e+17
1.766204e+17
1.766164e+17
1.745401e+17
1.704505e+17
1.644258e+17
1.566169e+17
1.471273e+17
1.361939e+17
1.238302e+17
1.103556e+17
9.590974e+16
8.083097e+16
6.502914e+16
4.926727e+16
3.267182e+16
1.906542e+16
9.60112e+15
7.358093e+15
1.585224e+16
2.846134e+16
4.00791e+16
5.636951e+16
7.23675e+16
8.671896e+16
1.005021e+17
1.135386e+17
1.255367e+17
1.362218e+17
1.453124e+17
1.52747e+17
1.585314e+17
1.625029e+17
1.645445e+17
1.645405e+17
1.624913e+17
1.585146e+17
1.527294e+17
1.452971e+17
1.362085e+17
1.255238e+17
1.135251e+17
1.004848e+17
8.669763e+16
7.235272e+16
5.635574e+16
4.007551e+16
2.842357e+16
1.584091e+16
7.349878e+15
1.018031e+16
1.996834e+16
3.322085e+16
4.4225e+16
6.200413e+16
7.676457e+16
8.960347e+16
1.019751e+17
1.13549e+17
1.23868e+17
1.326569e+17
1.398173e+17
1.452337e+17
1.488906e+17
1.507534e+17
1.507494e+17
1.488786e+17
1.452158e+17
1.397979e+17
1.326394e+17
1.238523e+17
1.135342e+17
1.01961e+17
8.958884e+16
7.675117e+16
6.199367e+16
4.422484e+16
3.320579e+16
1.995737e+16
1.017313e+16
7.405058e+15
1.494327e+16
2.362201e+16
3.688137e+16
5.18731e+16
6.536622e+16
7.826552e+16
8.961077e+16
1.005176e+17
1.104005e+17
1.187392e+17
1.255377e+17
1.30692e+17
1.341198e+17
1.357424e+17
1.357383e+17
1.341082e+17
1.30675e+17
1.25519e+17
1.187207e+17
1.103836e+17
1.005015e+17
8.959553e+16
7.824995e+16
6.534923e+16
5.1854e+16
3.686201e+16
2.360829e+16
1.49353e+16
7.40672e+15
8.384647e+15
1.71298e+16
2.958972e+16
3.97565e+16
5.334043e+16
6.536716e+16
7.6776e+16
8.673368e+16
9.595372e+16
1.037618e+17
1.101737e+17
1.14924e+17
1.180239e+17
1.195342e+17
1.195304e+17
1.180148e+17
1.149104e+17
1.101582e+17
1.037475e+17
9.59419e+16
8.671949e+16
7.676077e+16
6.53547e+16
5.332896e+16
3.974768e+16
2.956593e+16
1.711762e+16
8.384428e+15
9.098154e+15
1.908172e+16
3.116317e+16
3.97507e+16
5.187303e+16
6.201306e+16
7.237764e+16
8.086341e+16
8.791542e+16
9.380667e+16
9.811688e+16
1.008663e+17
1.022009e+17
1.021971e+17
1.00861e+17
9.811081e+16
9.379959e+16
8.790861e+16
8.085844e+16
7.236683e+16
6.199872e+16
5.186353e+16
3.974374e+16
3.115123e+16
1.907426e+16
9.094632e+15
9.517445e+15
1.90799e+16
2.959294e+16
3.68827e+16
4.424573e+16
5.638262e+16
6.506281e+16
7.212007e+16
7.6982e+16
8.061946e+16
8.29685e+16
8.411048e+16
8.410477e+16
8.296505e+16
8.061717e+16
7.698027e+16
7.212083e+16
6.50595e+16
5.636983e+16
4.422448e+16
3.68754e+16
2.958701e+16
1.907673e+16
9.515224e+15
9.092932e+15
1.712093e+16
2.362642e+16
3.322399e+16
4.00778e+16
4.92822e+16
5.525844e+16
5.981135e+16
6.360764e+16
6.592342e+16
6.698601e+16
6.697859e+16
6.591374e+16
6.359604e+16
5.98002e+16
5.525505e+16
4.928517e+16
4.00866e+16
3.322022e+16