/*--------------------------------*- C++ -*----------------------------------*\
  =========                 |
  \\      /  F ield         | OpenFOAM: The Open Source CFD Toolbox
   \\    /   O peration     | Website:  https://openfoam.org
    \\  /    A nd           | Version:  6
     \\/     M anipulation  |
\*---------------------------------------------------------------------------*/
FoamFile
{
    version     2.0;
    format      ascii;
    class       volScalarField;
    location    "49.8/region0/neutronTransport";
    object      discFlux5;
}
// * * * * * * * * * * * * * * * * * * * * * * * * * * * * * * * * * * * * * //

dimensions      [0 -2 -1 0 0 0 0];

internalField   nonuniform List<scalar> 
203709
(
7377404
9362403
9362448
7383665
7846130
1.008107e+07
1.454023e+07
1.429812e+07
1.429766e+07
1.454442e+07
1.00856e+07
7850058
7611936
1.011803e+07
1.469972e+07
1.452901e+07
1.500844e+07
1.513049e+07
1.51309e+07
1.500982e+07
1.453094e+07
1.470165e+07
1.011907e+07
7612884
7612790
1.426595e+07
1.447409e+07
1.509059e+07
1.540818e+07
1.569575e+07
1.582074e+07
1.582163e+07
1.569489e+07
1.54067e+07
1.508903e+07
1.447228e+07
1.426505e+07
7611738
1.011756e+07
1.447363e+07
1.519168e+07
1.568735e+07
1.606488e+07
1.633853e+07
1.647399e+07
1.647402e+07
1.633603e+07
1.606183e+07
1.56841e+07
1.518776e+07
1.446994e+07
1.011458e+07
7846511
1.469823e+07
1.509036e+07
1.568678e+07
1.620074e+07
1.660363e+07
1.688252e+07
1.701893e+07
1.701787e+07
1.687983e+07
1.660138e+07
1.619776e+07
1.568406e+07
1.508864e+07
1.469767e+07
7845226
1.007866e+07
1.452504e+07
1.540452e+07
1.606002e+07
1.660002e+07
1.701767e+07
1.729428e+07
1.742249e+07
1.74213e+07
1.729239e+07
1.701496e+07
1.659722e+07
1.605871e+07
1.540312e+07
1.45228e+07
1.007676e+07
7376066
1.453552e+07
1.500445e+07
1.569133e+07
1.633269e+07
1.687492e+07
1.728887e+07
1.754134e+07
1.766868e+07
1.766959e+07
1.754385e+07
1.729031e+07
1.687578e+07
1.633149e+07
1.568771e+07
1.499959e+07
1.453189e+07
7370259
9352141
1.428722e+07
1.512315e+07
1.581583e+07
1.646809e+07
1.701118e+07
1.741589e+07
1.766505e+07
1.78069e+07
1.780354e+07
1.766987e+07
1.742199e+07
1.701573e+07
1.646789e+07
1.581126e+07
1.511777e+07
1.428153e+07
9348490
9352597
1.428937e+07
1.512308e+07
1.581432e+07
1.646754e+07
1.701209e+07
1.741656e+07
1.766604e+07
1.781219e+07
1.780822e+07
1.76709e+07
1.742291e+07
1.701633e+07
1.646882e+07
1.581129e+07
1.511666e+07
1.42818e+07
9349009
7370337
1.453352e+07
1.500173e+07
1.568937e+07
1.633274e+07
1.687751e+07
1.729235e+07
1.754507e+07
1.767254e+07
1.767165e+07
1.754663e+07
1.729478e+07
1.687874e+07
1.633197e+07
1.56854e+07
1.499468e+07
1.4524e+07
7369689
1.007424e+07
1.452154e+07
1.540312e+07
1.606177e+07
1.660308e+07
1.702214e+07
1.72989e+07
1.742857e+07
1.742541e+07
1.729639e+07
1.701734e+07
1.659724e+07
1.605453e+07
1.539462e+07
1.451276e+07
1.006929e+07
7844465
1.469669e+07
1.508956e+07
1.568889e+07
1.620462e+07
1.660996e+07
1.688773e+07
1.70252e+07
1.702091e+07
1.68808e+07
1.6598e+07
1.619086e+07
1.567432e+07
1.507537e+07
1.468255e+07
7837157
1.011839e+07
1.447634e+07
1.51969e+07
1.569403e+07
1.607135e+07
1.634392e+07
1.648511e+07
1.648032e+07
1.63319e+07
1.605374e+07
1.567288e+07
1.517483e+07
1.445686e+07
1.010543e+07
7614852
1.427214e+07
1.447851e+07
1.509485e+07
1.540933e+07
1.569427e+07
1.582276e+07
1.581844e+07
1.568202e+07
1.539095e+07
1.507143e+07
1.445244e+07
1.424584e+07
7600840
7612395
1.011671e+07
1.469637e+07
1.451996e+07
1.499718e+07
1.511807e+07
1.511644e+07
1.498776e+07
1.450633e+07
1.467627e+07
1.009884e+07
7598554
7839742
1.006924e+07
1.452096e+07
1.427999e+07
1.428079e+07
1.451399e+07
1.006098e+07
7831927
7364500
9338440
9338688
7362782
6176773
8098745
8525071
8799970
8968062
8969761
8805181
8533544
8110533
6190039
6360613
8551473
1.270965e+07
1.308767e+07
1.362334e+07
1.429807e+07
1.483733e+07
1.48403e+07
1.430798e+07
1.363552e+07
1.310046e+07
1.272422e+07
8564206
6371360
6564661
1.243568e+07
1.310458e+07
1.425713e+07
1.546734e+07
1.649268e+07
1.824747e+07
1.959399e+07
1.959749e+07
1.825856e+07
1.65041e+07
1.548073e+07
1.42754e+07
1.312493e+07
1.245969e+07
6577642
6648773
1.26644e+07
1.387566e+07
1.537598e+07
1.697511e+07
1.986417e+07
2.3724e+07
3.002431e+07
3.160762e+07
3.161259e+07
3.003456e+07
2.374064e+07
1.988484e+07
1.699764e+07
1.539935e+07
1.38992e+07
1.268611e+07
6663413
6560627
1.26614e+07
1.403447e+07
1.578962e+07
1.939793e+07
2.409463e+07
3.17549e+07
3.58635e+07
3.894256e+07
4.376172e+07
4.376694e+07
3.895948e+07
3.588562e+07
3.17773e+07
2.411996e+07
1.941889e+07
1.581125e+07
1.405383e+07
1.26794e+07
6572314
6356268
1.243189e+07
1.387409e+07
1.579182e+07
2.107332e+07
3.064572e+07
3.581905e+07
4.010544e+07
4.693051e+07
4.994507e+07
5.173697e+07
5.174055e+07
4.995629e+07
4.694597e+07
4.01234e+07
3.583553e+07
3.065576e+07
2.108437e+07
1.579996e+07
1.38845e+07
1.244483e+07
6365548
8540798
1.309633e+07
1.537307e+07
1.939922e+07
3.064532e+07
3.80384e+07
4.614005e+07
5.053695e+07
5.397245e+07
5.607564e+07
5.714937e+07
5.715039e+07
5.607841e+07
5.397656e+07
5.054128e+07
4.614167e+07
3.803676e+07
3.064085e+07
1.939668e+07
1.5376e+07
1.310258e+07
8548565
6171419
1.269165e+07
1.424556e+07
1.697134e+07
2.409285e+07
3.582302e+07
4.614127e+07
5.213445e+07
5.592952e+07
5.85327e+07
6.017447e+07
6.098285e+07
6.098135e+07
6.016995e+07
5.852707e+07
5.592195e+07
5.212418e+07
4.612987e+07
3.581376e+07
2.409096e+07
1.697363e+07
1.424893e+07
1.270012e+07
6176868
8084980
1.30711e+07
1.545285e+07
1.986062e+07
3.17597e+07
4.011179e+07
5.053975e+07
5.593022e+07
5.933841e+07
6.16105e+07
6.303707e+07
6.372921e+07
6.372616e+07
6.302936e+07
6.160137e+07
5.932778e+07
5.591875e+07
5.052859e+07
4.010352e+07
3.175501e+07
1.985715e+07
1.545687e+07
1.307964e+07
8093431
8508296
1.360499e+07
1.647382e+07
2.370846e+07
3.586522e+07
4.693214e+07
5.39705e+07
5.85273e+07
6.16039e+07
6.369523e+07
6.50175e+07
6.566299e+07
6.566021e+07
6.501116e+07
6.368725e+07
6.159425e+07
5.851571e+07
5.395648e+07
4.691583e+07
3.584712e+07
2.370822e+07
1.648012e+07
1.361132e+07
8516265
8780586
1.427612e+07
1.822864e+07
3.00077e+07
3.893807e+07
4.994241e+07
5.606896e+07
6.016151e+07
6.301843e+07
6.500297e+07
6.626501e+07
6.688733e+07
6.688941e+07
6.627177e+07
6.501001e+07
6.302138e+07
6.015475e+07
5.605251e+07
4.992069e+07
3.891891e+07
3.000142e+07
1.822732e+07
1.42801e+07
8787705
8945780
1.480696e+07
1.956333e+07
3.158071e+07
4.374345e+07
5.172527e+07
5.713873e+07
6.096953e+07
6.371132e+07
6.564439e+07
6.687595e+07
6.748871e+07
6.749198e+07
6.689149e+07
6.566277e+07
6.372282e+07
6.096782e+07
5.712391e+07
5.170348e+07
4.372306e+07
3.157251e+07
1.956377e+07
1.481188e+07
8951405
8945125
1.480342e+07
1.955729e+07
3.157308e+07
4.373739e+07
5.172069e+07
5.713575e+07
6.096914e+07
6.371364e+07
6.56479e+07
6.688019e+07
6.749452e+07
6.749678e+07
6.689464e+07
6.566639e+07
6.37267e+07
6.09707e+07
5.712462e+07
5.170221e+07
4.371989e+07
3.156483e+07
1.955653e+07
1.480628e+07
8948266
8779384
1.427227e+07
1.822416e+07
2.999985e+07
3.892073e+07
4.992919e+07
5.606111e+07
6.016082e+07
6.302557e+07
6.501277e+07
6.627495e+07
6.68974e+07
6.689829e+07
6.628138e+07
6.502099e+07
6.303038e+07
6.015828e+07
5.604955e+07
4.991289e+07
3.890813e+07
2.998987e+07
1.822027e+07
1.427224e+07
8780012
8509682
1.360535e+07
1.647403e+07
2.370347e+07
3.584954e+07
4.691893e+07
5.396212e+07
5.852579e+07
6.161019e+07
6.370786e+07
6.503315e+07
6.568104e+07
6.567688e+07
6.502562e+07
6.369629e+07
6.1595e+07
5.85072e+07
5.39402e+07
4.68962e+07
3.583383e+07
2.36875e+07
1.646318e+07
1.360143e+07
8507774
8088971
1.307569e+07
1.545495e+07
1.985475e+07
3.17559e+07
4.010794e+07
5.053829e+07
5.593548e+07
5.935165e+07
6.163108e+07
6.306003e+07
6.375091e+07
6.374123e+07
6.303636e+07
6.159606e+07
5.931016e+07
5.589252e+07
5.049719e+07
4.007052e+07
3.172567e+07
1.983826e+07
1.543976e+07
1.306663e+07
8084513
6175366
1.270096e+07
1.42502e+07
1.697188e+07
2.409808e+07
3.582945e+07
4.615326e+07
5.215209e+07
5.595173e+07
5.855605e+07
6.019484e+07
6.099294e+07
6.097998e+07
6.015946e+07
5.850324e+07
5.588789e+07
5.208572e+07
4.609157e+07
3.577909e+07
2.406159e+07
1.694961e+07
1.423133e+07
1.268617e+07
6170565
8548974
1.310203e+07
1.537712e+07
1.940389e+07
3.0657e+07
3.805286e+07
4.615632e+07
5.055271e+07
5.398242e+07
5.607741e+07
5.713361e+07
5.712116e+07
5.604133e+07
5.39278e+07
5.048532e+07
4.608571e+07
3.798839e+07
3.060166e+07
1.936727e+07
1.535214e+07
1.308176e+07
8534856
6361661
1.24358e+07
1.387756e+07
1.579311e+07
2.107584e+07
3.064704e+07
3.582121e+07
4.010652e+07
4.691968e+07
4.992437e+07
5.169723e+07
5.16887e+07
4.989582e+07
4.687672e+07
4.00548e+07
3.577077e+07
3.059979e+07
2.103652e+07
1.576256e+07
1.385371e+07
1.241712e+07
6349621
6565209
1.266649e+07
1.403464e+07
1.57839e+07
1.938658e+07
2.407973e+07
3.174091e+07
3.583756e+07
3.890319e+07
4.36993e+07
4.369506e+07
3.888524e+07
3.58089e+07
3.170434e+07
2.404908e+07
1.935927e+07
1.575844e+07
1.40105e+07
1.264514e+07
6552895
6648400
1.265984e+07
1.386495e+07
1.536111e+07
1.695456e+07
1.983074e+07
2.367932e+07
2.997335e+07
3.154091e+07
3.153785e+07
2.995927e+07
2.366295e+07
1.9816e+07
1.693442e+07
1.534012e+07
1.384451e+07
1.264101e+07
6638766
6556172
1.242096e+07
1.308272e+07
1.42259e+07
1.542741e+07
1.645042e+07
1.820003e+07
1.953287e+07
1.953103e+07
1.819425e+07
1.643983e+07
1.5419e+07
1.421669e+07
1.307027e+07
1.240613e+07
6548624
6351941
8532866
1.267637e+07
1.30522e+07
1.358409e+07
1.425289e+07
1.478629e+07
1.478602e+07
1.425104e+07
1.357944e+07
1.304558e+07
1.267242e+07
8528086
6346766
6161441
8071213
8492761
8764641
8931176
8930976
8766943
8495319
8072537
6158564
5219469
6822332
7090352
7185172
7185046
7090300
6820181
5217046
5244792
7331818
8232567
1.199683e+07
1.24507e+07
1.272701e+07
1.28509e+07
1.285131e+07
1.272807e+07
1.24534e+07
1.200882e+07
8246297
7348982
5264218
5997058
1.154654e+07
1.278904e+07
1.470871e+07
1.666265e+07
1.748857e+07
1.798906e+07
1.821884e+07
1.821996e+07
1.799277e+07
1.749586e+07
1.667577e+07
1.472937e+07
1.28126e+07
1.157395e+07
6018505
5492188
7919553
1.247944e+07
1.579867e+07
1.976185e+07
2.638175e+07
2.876993e+07
3.001147e+07
3.081465e+07
3.122668e+07
3.122802e+07
3.081943e+07
3.002119e+07
2.878576e+07
2.640491e+07
1.979088e+07
1.583219e+07
1.250446e+07
7938254
5503383
5563340
1.119544e+07
1.333045e+07
1.825301e+07
2.692005e+07
3.178913e+07
3.586901e+07
4.220517e+07
4.509088e+07
4.677969e+07
4.76083e+07
4.76119e+07
4.67918e+07
4.511309e+07
4.223844e+07
3.591307e+07
3.183733e+07
2.696506e+07
1.828536e+07
1.336022e+07
1.121591e+07
5574740
5487946
1.119616e+07
1.384263e+07
1.912366e+07
2.925479e+07
3.545557e+07
4.359206e+07
4.876987e+07
5.328193e+07
5.665454e+07
5.902855e+07
6.019201e+07
6.019793e+07
5.904801e+07
5.668387e+07
5.331983e+07
4.881657e+07
4.364156e+07
3.550329e+07
2.93008e+07
1.916225e+07
1.386884e+07
1.121475e+07
5499233
7917462
1.332611e+07
1.912091e+07
2.975673e+07
3.677692e+07
4.636182e+07
5.33061e+07
5.896277e+07
6.390621e+07
6.7974e+07
7.11821e+07
7.245602e+07
7.246384e+07
7.120453e+07
6.80097e+07
6.395396e+07
5.901966e+07
5.336495e+07
4.642046e+07
3.682728e+07
2.979721e+07
1.915422e+07
1.335221e+07
7933291
6000694
1.246757e+07
1.823729e+07
2.924651e+07
3.676766e+07
4.718648e+07
5.544605e+07
6.275724e+07
6.911702e+07
7.479497e+07
7.891927e+07
8.188933e+07
8.358928e+07
8.359847e+07
8.191577e+07
7.895961e+07
7.484501e+07
6.917338e+07
6.281481e+07
5.550598e+07
4.724167e+07
3.681635e+07
2.928834e+07
1.826972e+07
1.249051e+07
6009574
5241174
1.153441e+07
1.577983e+07
2.689343e+07
3.544213e+07
4.635544e+07
5.544572e+07
6.417997e+07
7.238086e+07
7.889401e+07
8.427852e+07
8.873944e+07
9.18773e+07
9.357845e+07
9.358532e+07
9.189772e+07
8.877096e+07
8.431696e+07
7.893408e+07
7.241956e+07
6.422071e+07
5.548492e+07
4.639404e+07
3.547791e+07
2.692107e+07
1.580652e+07
1.155342e+07
5246662
7322471
1.276895e+07
1.972875e+07
3.175925e+07
4.356549e+07
5.329597e+07
6.27545e+07
7.238034e+07
8.043737e+07
8.742229e+07
9.30363e+07
9.738669e+07
1.003061e+08
1.017994e+08
1.018024e+08
1.00315e+08
9.739957e+07
9.30509e+07
8.743516e+07
8.044715e+07
7.238815e+07
6.276383e+07
5.331211e+07
4.358907e+07
3.177769e+07
1.975527e+07
1.278866e+07
7330999
8215416
1.467624e+07
2.632384e+07
3.583405e+07
4.873672e+07
5.89491e+07
6.911254e+07
7.889549e+07
8.742345e+07
9.462507e+07
1.001765e+08
1.042565e+08
1.069371e+08
1.082734e+08
1.082714e+08
1.069322e+08
1.042499e+08
1.001673e+08
9.461168e+07
8.740614e+07
7.88769e+07
6.910074e+07
5.894954e+07
4.875389e+07
3.585489e+07
2.636533e+07
1.470127e+07
8227930
5204890
1.196981e+07
1.661849e+07
2.870464e+07
4.215067e+07
5.323908e+07
6.388618e+07
7.479212e+07
8.428222e+07
9.303871e+07
1.001774e+08
1.055679e+08
1.094407e+08
1.119542e+08
1.131926e+08
1.131875e+08
1.11941e+08
1.094236e+08
1.055478e+08
1.001554e+08
9.301584e+07
8.426116e+07
7.477825e+07
6.388512e+07
5.32597e+07
4.218359e+07
2.875206e+07
1.665045e+07
1.198723e+07
5215943
6800590
1.241713e+07
1.744516e+07
2.994746e+07
4.502505e+07
5.660042e+07
6.793966e+07
7.890907e+07
8.873806e+07
9.738355e+07
1.042503e+08
1.094323e+08
1.131488e+08
1.155597e+08
1.167481e+08
1.16744e+08
1.155494e+08
1.131352e+08
1.094141e+08
1.042272e+08
9.735563e+07
8.87083e+07
7.888592e+07
6.793773e+07
5.661855e+07
4.5058e+07
2.998843e+07
1.747272e+07
1.243847e+07
6814519
7071889
1.26944e+07
1.794547e+07
3.075296e+07
4.670704e+07
5.896385e+07
7.113585e+07
8.18666e+07
9.186708e+07
1.002957e+08
1.069188e+08
1.119245e+08
1.155359e+08
1.17886e+08
1.190507e+08
1.190553e+08
1.178984e+08
1.155499e+08
1.119308e+08
1.069042e+08
1.002625e+08
9.182657e+07
8.183409e+07
7.112474e+07
5.897278e+07
4.673199e+07
3.07826e+07
1.796803e+07
1.271258e+07
7082483
7169145
1.282228e+07
1.817828e+07
3.116865e+07
4.75318e+07
6.011402e+07
7.239276e+07
8.35481e+07
9.355429e+07
1.017821e+08
1.082544e+08
1.131649e+08
1.167167e+08
1.190302e+08
1.201808e+08
1.201916e+08
1.190596e+08
1.167499e+08
1.131846e+08
1.082488e+08
1.017521e+08
9.351283e+07
8.35122e+07
7.237658e+07
6.011715e+07
4.754645e+07
3.11858e+07
1.819189e+07
1.283338e+07
7177028
7169603
1.282421e+07
1.818134e+07
3.117421e+07
4.75351e+07
6.011205e+07
7.238573e+07
8.353835e+07
9.35455e+07
1.017767e+08
1.082544e+08
1.131698e+08
1.167238e+08
1.190372e+08
1.201868e+08
1.201963e+08
1.190641e+08
1.167557e+08
1.131911e+08
1.082537e+08
1.017533e+08
9.350985e+07
8.350522e+07
7.236669e+07
6.010809e+07
4.753895e+07
3.117926e+07
1.818677e+07
1.28294e+07
7175178
7075129
1.270193e+07
1.795545e+07
3.076952e+07
4.671749e+07
5.896388e+07
7.112406e+07
8.184407e+07
9.184552e+07
1.002821e+08
1.069179e+08
1.119378e+08
1.155527e+08
1.179018e+08
1.19065e+08
1.190693e+08
1.179143e+08
1.155671e+08
1.119449e+08
1.069101e+08
1.002573e+08
9.181104e+07
8.181064e+07
7.109861e+07
5.895015e+07
4.670934e+07
3.076095e+07
1.795324e+07
1.270179e+07
7077624
6809076
1.242949e+07
1.746045e+07
2.997508e+07
4.504375e+07
5.660759e+07
6.793238e+07
7.888873e+07
8.871726e+07
9.736951e+07
1.042469e+08
1.094419e+08
1.131699e+08
1.155859e+08
1.167765e+08
1.167716e+08
1.155734e+08
1.131503e+08
1.094152e+08
1.042123e+08
9.732666e+07
8.866993e+07
7.8844e+07
6.78935e+07
5.657969e+07
4.50221e+07
2.995144e+07
1.745105e+07
1.242496e+07
6808459
5217474
1.198276e+07
1.664216e+07
2.874518e+07
4.217714e+07
5.325733e+07
6.38861e+07
7.478554e+07
8.427535e+07
9.30372e+07
1.001876e+08
1.055919e+08
1.094762e+08
1.119932e+08
1.132273e+08
1.132118e+08
1.119507e+08
1.094136e+08
1.055177e+08
1.001096e+08
9.296024e+07
8.420185e+07
7.472118e+07
6.383467e+07
5.321414e+07
4.21445e+07
2.870803e+07
1.662723e+07
1.197711e+07
5212762
8226831
1.469935e+07
2.637057e+07
3.586056e+07
4.876625e+07
5.896278e+07
6.912469e+07
7.890936e+07
8.744405e+07
9.465483e+07
1.002136e+08
1.042947e+08
1.069677e+08
1.08286e+08
1.082635e+08
1.069042e+08
1.041997e+08
1.000996e+08
9.453537e+07
8.732978e+07
7.880713e+07
6.904015e+07
5.889541e+07
4.870802e+07
3.582578e+07
2.632468e+07
1.468009e+07
8219460
7328044
1.278639e+07
1.975913e+07
3.179225e+07
4.360306e+07
5.332027e+07
6.277689e+07
7.240512e+07
8.046208e+07
8.744678e+07
9.30576e+07
9.739721e+07
1.002981e+08
1.017634e+08
1.017409e+08
1.002334e+08
9.729866e+07
9.293724e+07
8.731827e+07
8.033598e+07
7.228914e+07
6.268091e+07
5.324152e+07
4.353551e+07
3.175469e+07
1.972595e+07
1.276955e+07
7324224
5239639
1.155072e+07
1.580239e+07
2.692267e+07
3.547157e+07
4.637632e+07
5.546042e+07
6.419025e+07
7.238306e+07
7.888948e+07
8.42655e+07
8.870867e+07
9.182292e+07
9.349367e+07
9.347612e+07
9.177093e+07
8.862883e+07
8.416782e+07
7.878615e+07
7.228047e+07
6.409352e+07
5.537625e+07
4.630424e+07
3.540902e+07
2.688821e+07
1.577442e+07
1.1532e+07
5242453
5999264
1.248179e+07
1.82538e+07
2.925891e+07
3.678104e+07
4.71896e+07
5.543972e+07
6.273616e+07
6.90828e+07
7.474748e+07
7.885037e+07
8.17948e+07
8.346515e+07
8.345357e+07
8.175894e+07
7.87937e+07
7.467758e+07
6.900947e+07
6.266217e+07
5.536802e+07
4.712704e+07
3.673162e+07
2.922148e+07
1.822753e+07
1.246138e+07
5994308
7920281
1.33347e+07
1.912839e+07
2.976011e+07
3.67673e+07
4.634593e+07
5.327313e+07
5.891047e+07
6.382975e+07
6.787504e+07
7.106241e+07
7.231415e+07
7.230704e+07
7.104045e+07
6.784103e+07
6.378799e+07
5.886081e+07
5.322091e+07
4.629519e+07
3.672625e+07
2.972449e+07
1.910119e+07
1.331513e+07
7910522
5492847
1.12018e+07
1.384522e+07
1.912205e+07
2.924994e+07
3.543844e+07
4.354634e+07
4.870416e+07
5.319326e+07
5.654518e+07
5.890154e+07
6.004772e+07
6.004454e+07
5.889383e+07
5.653012e+07
5.317199e+07
4.867906e+07
4.352155e+07
3.541176e+07
2.922341e+07
1.910218e+07
1.38286e+07
1.118718e+07
5487527
5562989
1.119938e+07
1.332901e+07
1.823439e+07
2.688256e+07
3.173398e+07
3.580449e+07
4.211205e+07
4.497825e+07
4.665538e+07
4.747435e+07
4.747342e+07
4.665904e+07
4.49833e+07
4.211337e+07
3.579864e+07
3.1733e+07
2.687986e+07
1.822718e+07
1.331851e+07
1.118951e+07
5558176
5488425
7915944
1.246238e+07
1.577296e+07
1.971299e+07
2.630996e+07
2.867812e+07
2.990864e+07
3.071043e+07
3.113759e+07
3.113428e+07
3.072344e+07
2.992819e+07
2.869731e+07
2.632459e+07
1.972115e+07
1.577377e+07
1.246263e+07
7910917
5486465
5992564
1.152548e+07
1.275681e+07
1.466287e+07
1.660036e+07
1.741856e+07
1.791723e+07
1.815088e+07
1.81467e+07
1.792381e+07
1.742767e+07
1.661e+07
1.466936e+07
1.2759e+07
1.153003e+07
5990655
5231629
7313435
8205906
1.195501e+07
1.23995e+07
1.267447e+07
1.280908e+07
1.280825e+07
1.267721e+07
1.240278e+07
1.196059e+07
8208608
7313516
5234411
5202629
6792482
7059847
7159436
7159295
7060599
6792283
5196278
4714893
6081739
6290867
6290999
6079608
4716814
4486218
6529084
7564590
8978742
1.287243e+07
1.353096e+07
1.37676e+07
1.376492e+07
1.352535e+07
1.286869e+07
8993460
7585670
6550074
4506244
4525976
6952343
1.174796e+07
1.434705e+07
1.691597e+07
2.248707e+07
2.472948e+07
2.555273e+07
2.594567e+07
2.594107e+07
2.554389e+07
2.473316e+07
2.251595e+07
1.694685e+07
1.437713e+07
1.178303e+07
6979618
4550418
5254429
1.095327e+07
1.50738e+07
2.280781e+07
2.635171e+07
2.985924e+07
3.315629e+07
3.856103e+07
4.059449e+07
4.139603e+07
4.139382e+07
4.05916e+07
3.856745e+07
3.317741e+07
2.988718e+07
2.638876e+07
2.284012e+07
1.511841e+07
1.098736e+07
5279557
5803771
1.272097e+07
1.799867e+07
2.672507e+07
3.251443e+07
4.023481e+07
4.525867e+07
4.907735e+07
5.226737e+07
5.421053e+07
5.510372e+07
5.510366e+07
5.421296e+07
5.227938e+07
4.910583e+07
4.530453e+07
4.029162e+07
3.257047e+07
2.676717e+07
1.80431e+07
1.274882e+07
5821098
6109867
1.436786e+07
2.371508e+07
2.978008e+07
3.594344e+07
4.615236e+07
5.347256e+07
5.947947e+07
6.358823e+07
6.665154e+07
6.862417e+07
6.957945e+07
6.958184e+07
6.863335e+07
6.667251e+07
6.362475e+07
5.953118e+07
5.353515e+07
4.62237e+07
3.600421e+07
2.982071e+07
2.374364e+07
1.43844e+07
6119436
5805986
1.436923e+07
2.504104e+07
3.222343e+07
4.234807e+07
5.087023e+07
5.96446e+07
6.68094e+07
7.276283e+07
7.773023e+07
8.136392e+07
8.368269e+07
8.481189e+07
8.481784e+07
8.370221e+07
8.140027e+07
7.778479e+07
7.283331e+07
6.688768e+07
5.972481e+07
5.093788e+07
4.240065e+07
3.225566e+07
2.504758e+07
1.437938e+07
5813065
5258563
1.271968e+07
2.372091e+07
3.221944e+07
4.357937e+07
5.367237e+07
6.331566e+07
7.171671e+07
7.948367e+07
8.605504e+07
9.145484e+07
9.546158e+07
9.808675e+07
9.937368e+07
9.938372e+07
9.811769e+07
9.551332e+07
9.152558e+07
8.614019e+07
7.957459e+07
7.180779e+07
6.339712e+07
5.373892e+07
4.362487e+07
3.224622e+07
2.373288e+07
1.273234e+07
5265655
4528133
1.095141e+07
1.800321e+07
2.97721e+07
4.233922e+07
5.36663e+07
6.455736e+07
7.411818e+07
8.329205e+07
9.160267e+07
9.861483e+07
1.043427e+08
1.086959e+08
1.116115e+08
1.130017e+08
1.130153e+08
1.116516e+08
1.087604e+08
1.044276e+08
9.871335e+07
9.170567e+07
8.339466e+07
7.421187e+07
6.463612e+07
5.372863e+07
4.238291e+07
2.980076e+07
1.802343e+07
1.096644e+07
4533802
6952435
1.50749e+07
2.670384e+07
3.593932e+07
5.085063e+07
6.329791e+07
7.410776e+07
8.450904e+07
9.423671e+07
1.029138e+08
1.103055e+08
1.163423e+08
1.209138e+08
1.240123e+08
1.256021e+08
1.256171e+08
1.240561e+08
1.209828e+08
1.164303e+08
1.104047e+08
1.030166e+08
9.434041e+07
8.46077e+07
7.419729e+07
6.337383e+07
5.090937e+07
3.597677e+07
2.673704e+07
1.509334e+07
6963814
4489875
1.173823e+07
2.278128e+07
3.249122e+07
4.612997e+07
5.960741e+07
7.168284e+07
8.327056e+07
9.422906e+07
1.04322e+08
1.133186e+08
1.209624e+08
1.272141e+08
1.320811e+08
1.354303e+08
1.371622e+08
1.371741e+08
1.354655e+08
1.321365e+08
1.272835e+08
1.210386e+08
1.133964e+08
1.044015e+08
9.430861e+07
8.335012e+07
7.175803e+07
5.966887e+07
4.61756e+07
3.251322e+07
2.281049e+07
1.175315e+07
4500702
6519344
1.432791e+07
2.631287e+07
4.01994e+07
5.341929e+07
6.674683e+07
7.942694e+07
9.156963e+07
1.029014e+08
1.133166e+08
1.225181e+08
1.304916e+08
1.370476e+08
1.421038e+08
1.455365e+08
1.472821e+08
1.472886e+08
1.455551e+08
1.421311e+08
1.370802e+08
1.30525e+08
1.225496e+08
1.133478e+08
1.029363e+08
9.161469e+07
7.948319e+07
6.679932e+07
5.346451e+07
4.022247e+07
2.633197e+07
1.434245e+07
6530338
7555868
1.689273e+07
2.982024e+07
4.520884e+07
5.939727e+07
7.267673e+07
8.597903e+07
9.857304e+07
1.102903e+08
1.209606e+08
1.304918e+08
1.387614e+08
1.454892e+08
1.505843e+08
1.539975e+08
1.557105e+08
1.557089e+08
1.539938e+08
1.505795e+08
1.454826e+08
1.387498e+08
1.304744e+08
1.209412e+08
1.102802e+08
9.858559e+07
8.602229e+07
7.272885e+07
5.944805e+07
4.523394e+07
2.983157e+07
1.690227e+07
7560405
8966620
2.246938e+07
3.31237e+07
4.901214e+07
6.34864e+07
7.761878e+07
9.135759e+07
1.042862e+08
1.163217e+08
1.2721e+08
1.370465e+08
1.454891e+08
1.522735e+08
1.573459e+08
1.607141e+08
1.623921e+08
1.623854e+08
1.606964e+08
1.573215e+08
1.522448e+08
1.454577e+08
1.370134e+08
1.271795e+08
1.163042e+08
1.042979e+08
9.140756e+07
7.768417e+07
6.354843e+07
4.904766e+07
3.313351e+07
2.246266e+07
8968819
4708608
1.284529e+07
2.470593e+07
3.851661e+07
5.218895e+07
6.653639e+07
8.123203e+07
9.53425e+07
1.086168e+08
1.208785e+08
1.320684e+08
1.420953e+08
1.505763e+08
1.573365e+08
1.623631e+08
1.656939e+08
1.673522e+08
1.673473e+08
1.65681e+08
1.623445e+08
1.573097e+08
1.505419e+08
1.420544e+08
1.320263e+08
1.208508e+08
1.086243e+08
9.53886e+07
8.129587e+07
6.659587e+07
5.222573e+07
3.853016e+07
2.470465e+07
1.285458e+07
4711901
6064801
1.350473e+07
2.552109e+07
4.054193e+07
5.412541e+07
6.850368e+07
8.35387e+07
9.794868e+07
1.11508e+08
1.239548e+08
1.35403e+08
1.455183e+08
1.539745e+08
1.606762e+08
1.656626e+08
1.689693e+08
1.706223e+08
1.706295e+08
1.689878e+08
1.656832e+08
1.606846e+08
1.539513e+08
1.454687e+08
1.35345e+08
1.239124e+08
1.115026e+08
9.797956e+07
8.358635e+07
6.854788e+07
5.415536e+07
4.055695e+07
2.55272e+07
1.351606e+07
6077246
6278678
1.374491e+07
2.591063e+07
4.13435e+07
5.502196e+07
6.946241e+07
8.4665e+07
9.922161e+07
1.128739e+08
1.255169e+08
1.371142e+08
1.472537e+08
1.556868e+08
1.623569e+08
1.673097e+08
1.705931e+08
1.722395e+08
1.722565e+08
1.706362e+08
1.673572e+08
1.62384e+08
1.556758e+08
1.472075e+08
1.370534e+08
1.254688e+08
1.128582e+08
9.923592e+07
8.469132e+07
6.948574e+07
5.503806e+07
4.135565e+07
2.592525e+07
1.375946e+07
6290509
6278373
1.374701e+07
2.591842e+07
4.134959e+07
5.503052e+07
6.947321e+07
8.467507e+07
9.922592e+07
1.12869e+08
1.255052e+08
1.371023e+08
1.472468e+08
1.556877e+08
1.623653e+08
1.673204e+08
1.706025e+08
1.722463e+08
1.722614e+08
1.706414e+08
1.673643e+08
1.62392e+08
1.556817e+08
1.472084e+08
1.37048e+08
1.254581e+08
1.128449e+08
9.922313e+07
8.467974e+07
6.947546e+07
5.503094e+07
4.13521e+07
2.592636e+07
1.376057e+07
6291377
6070884
1.351085e+07
2.552901e+07
4.05543e+07
5.414822e+07
6.853439e+07
8.356796e+07
9.796374e+07
1.114991e+08
1.239271e+08
1.353744e+08
1.45501e+08
1.539749e+08
1.606961e+08
1.656862e+08
1.689899e+08
1.706398e+08
1.706468e+08
1.690077e+08
1.657045e+08
1.607016e+08
1.53957e+08
1.454586e+08
1.353193e+08
1.238755e+08
1.114617e+08
9.794091e+07
8.355033e+07
6.85165e+07
5.413543e+07
4.054814e+07
2.55311e+07
1.351995e+07
6080569
4720515
1.284747e+07
2.470686e+07
3.853089e+07
5.222054e+07
6.65835e+07
8.127858e+07
9.537213e+07
1.086147e+08
1.208529e+08
1.320404e+08
1.420777e+08
1.505728e+08
1.5735e+08
1.623923e+08
1.657299e+08
1.673898e+08
1.673834e+08
1.657113e+08
1.623621e+08
1.573078e+08
1.505174e+08
1.420089e+08
1.319656e+08
1.207823e+08
1.085551e+08
9.53247e+07
8.123769e+07
6.654628e+07
5.219773e+07
3.85196e+07
2.470787e+07
1.285327e+07
4724823
8973694
2.246338e+07
3.314092e+07
4.904965e+07
6.354617e+07
7.767941e+07
9.140493e+07
1.043001e+08
1.163151e+08
1.272008e+08
1.370456e+08
1.455051e+08
1.523085e+08
1.573956e+08
1.60768e+08
1.624389e+08
1.624165e+08
1.607051e+08
1.573025e+08
1.521979e+08
1.45388e+08
1.36929e+08
1.270888e+08
1.16214e+08
1.042134e+08
9.133121e+07
7.761753e+07
6.349198e+07
4.901957e+07
3.312646e+07
2.246688e+07
8972382
7559814
1.690439e+07
2.98428e+07
4.524484e+07
5.946156e+07
7.274422e+07
8.604197e+07
9.860918e+07
1.103118e+08
1.209801e+08
1.305195e+08
1.38802e+08
1.455392e+08
1.506343e+08
1.540352e+08
1.557235e+08
1.556904e+08
1.539413e+08
1.504938e+08
1.453714e+08
1.386261e+08
1.303506e+08
1.208266e+08
1.101782e+08
9.849517e+07
8.594534e+07
7.266792e+07
5.939549e+07
4.521073e+07
2.982356e+07
1.689464e+07
7555744
6528986
1.434405e+07
2.634378e+07
4.023123e+07
5.347472e+07
6.681477e+07
7.949696e+07
9.162256e+07
1.029417e+08
1.133509e+08
1.225487e+08
1.305193e+08
1.370676e+08
1.421064e+08
1.455104e+08
1.47218e+08
1.471847e+08
1.454153e+08
1.419623e+08
1.368927e+08
1.303322e+08
1.223643e+08
1.131789e+08
1.027904e+08
9.149296e+07
7.938855e+07
6.673294e+07
5.341066e+07
4.019811e+07
2.631516e+07
1.432952e+07
6521016
4497485
1.175155e+07
2.281875e+07
3.251369e+07
4.616485e+07
5.965965e+07
7.173797e+07
8.331342e+07
9.425649e+07
1.043348e+08
1.133158e+08
1.209444e+08
1.271768e+08
1.320154e+08
1.353275e+08
1.370172e+08
1.36991e+08
1.352518e+08
1.319002e+08
1.270363e+08
1.207931e+08
1.131645e+08
1.041903e+08
9.412615e+07
8.319969e+07
7.164259e+07
5.959027e+07
4.611608e+07
3.249021e+07
2.277703e+07
1.173916e+07
4490488
6958104
1.5084e+07
2.673465e+07
3.595247e+07
5.088822e+07
6.333519e+07
7.4135e+07
8.451904e+07
9.422513e+07
1.028762e+08
1.102413e+08
1.162483e+08
1.207838e+08
1.238423e+08
1.253919e+08
1.253745e+08
1.237914e+08
1.20705e+08
1.161505e+08
1.101338e+08
1.027658e+08
9.411696e+07
8.442013e+07
7.404873e+07
6.32643e+07
5.083483e+07
3.592484e+07
2.670531e+07
1.506829e+07
6950119
4527157
1.096144e+07
1.801607e+07
2.980657e+07
4.237415e+07
5.369353e+07
6.457281e+07
7.411473e+07
8.326227e+07
9.153817e+07
9.851436e+07
1.042034e+08
1.085176e+08
1.113968e+08
1.127549e+08
1.127456e+08
1.113695e+08
1.084743e+08
1.041474e+08
9.844898e+07
9.146809e+07
8.319113e+07
7.404805e+07
6.451243e+07
5.364031e+07
4.232782e+07
2.977098e+07
1.799568e+07
1.094996e+07
4529191
5256741
1.273372e+07
2.374528e+07
3.223733e+07
4.359161e+07
5.367641e+07
6.330191e+07
7.167437e+07
7.939965e+07
8.593178e+07
9.12919e+07
9.526218e+07
9.785748e+07
9.912127e+07
9.91183e+07
9.785012e+07
9.524924e+07
9.127257e+07
8.590719e+07
7.937141e+07
7.16409e+07
6.326643e+07
5.364397e+07
4.356185e+07
3.221356e+07
2.371361e+07
1.271869e+07
5256625
5805476
1.437458e+07
2.506175e+07
3.222201e+07
4.234641e+07
5.084653e+07
5.959129e+07
6.671573e+07
7.263291e+07
7.75632e+07
8.116567e+07
8.346373e+07
8.458039e+07
8.458078e+07
8.346983e+07
8.117585e+07
7.757352e+07
7.264112e+07
6.672056e+07
5.958628e+07
5.083392e+07
4.233426e+07
3.220965e+07
2.504465e+07
1.436483e+07
5802478
6107673
1.436832e+07
2.373312e+07
2.977965e+07
3.592686e+07
4.610924e+07
5.338998e+07
5.935909e+07
6.343912e+07
6.648008e+07
6.844211e+07
6.939753e+07
6.939739e+07
6.845319e+07
6.649961e+07
6.346282e+07
5.938464e+07
5.340747e+07
4.611311e+07
3.591727e+07
2.977752e+07
2.372853e+07
1.436553e+07
6106000
5799539
1.271598e+07
1.799852e+07
2.670152e+07
3.246348e+07
4.016633e+07
4.517019e+07
4.897287e+07
5.214578e+07
5.407976e+07
5.496815e+07
5.496602e+07
5.408395e+07
5.215511e+07
4.898595e+07
4.518999e+07
4.018761e+07
3.248386e+07
2.67074e+07
1.799733e+07
1.272145e+07
5799833
5249443
1.094284e+07
1.506248e+07
2.277134e+07
2.62932e+07
2.978853e+07
3.309155e+07
3.848022e+07
4.050526e+07
4.130139e+07
4.130024e+07
4.050883e+07
3.848821e+07
3.309977e+07
2.981026e+07
2.632091e+07
2.278863e+07
1.50614e+07
1.094546e+07
5248575
4516724
6943412
1.172415e+07
1.430901e+07
1.687005e+07
2.243748e+07
2.467786e+07
2.549725e+07
2.58876e+07
2.588381e+07
2.550003e+07
2.468901e+07
2.245776e+07
1.688774e+07
1.432338e+07
1.173216e+07
6942821
4518964
4488610
6508533
7541733
8954905
1.282801e+07
1.348943e+07
1.372956e+07
1.372838e+07
1.349178e+07
1.283541e+07
8959503
7549557
6515089
4479374
4709376
6057706
6269425
6268538
6057448
4703064
3796992
5417190
6576666
7259838
7478473
7487999
7285964
6627899
5465600
3818451
3954805
6621062
8215637
1.208919e+07
1.45166e+07
1.956385e+07
2.092283e+07
2.139556e+07
2.138695e+07
2.091622e+07
1.957019e+07
1.454391e+07
1.213482e+07
8241089
6654214
3972608
5984395
1.266457e+07
1.923274e+07
2.226234e+07
2.526447e+07
2.842244e+07
3.128988e+07
3.6094e+07
3.755125e+07
3.754388e+07
3.608514e+07
3.129329e+07
2.84278e+07
2.529852e+07
2.232943e+07
1.930421e+07
1.271157e+07
6005419
4475483
8870165