/*--------------------------------*- C++ -*----------------------------------*\
  =========                 |
  \\      /  F ield         | OpenFOAM: The Open Source CFD Toolbox
   \\    /   O peration     | Website:  https://openfoam.org
    \\  /    A nd           | Version:  6
     \\/     M anipulation  |
\*---------------------------------------------------------------------------*/
FoamFile
{
    version     2.0;
    format      ascii;
    class       volScalarField;
    location    "49.8/region0/neutronTransport";
    object      discFlux7;
}
// * * * * * * * * * * * * * * * * * * * * * * * * * * * * * * * * * * * * * //

dimensions      [0 -2 -1 0 0 0 0];

internalField   nonuniform List<scalar> 
203709
(
6.145023
16.38673
15.36256
6.145023
4.096682
15.36256
47.11184
39.94265
38.91848
48.13601
14.33839
7.169193
5.120852
13.31422
46.08767
36.87014
34.82179
36.87014
36.87014
36.87014
36.87014
48.13601
13.31422
7.169193
5.120852
47.11184
37.89431
35.84596
35.84596
32.77345
34.82179
35.84596
32.77345
35.84596
36.87014
39.94265
48.13601
8.193363
14.33839
38.91848
33.79762
36.87014
35.84596
33.79762
35.84596
34.82179
33.79762
37.89431
35.84596
34.82179
40.96682
18.43507
4.096682
46.08767
35.84596
36.87014
35.84596
34.82179
33.79762
34.82179
34.82179
33.79762
34.82179
34.82179
36.87014
36.87014
51.20852
8.193363
14.33839
36.87014
34.82179
35.84596
34.82179
33.79762
34.82179
33.79762
33.79762
34.82179
33.79762
33.79762
36.87014
36.87014
38.91848
18.43507
5.120852
46.08767
33.79762
33.79762
32.77345
32.77345
34.82179
31.74928
31.74928
32.77345
30.72511
34.82179
33.79762
33.79762
34.82179
36.87014
51.20852
9.217534
16.38673
39.94265
37.89431
34.82179
33.79762
33.79762
33.79762
31.74928
32.77345
33.79762
32.77345
33.79762
34.82179
34.82179
35.84596
36.87014
40.96682
21.50758
14.33839
37.89431
37.89431
35.84596
34.82179
33.79762
33.79762
31.74928
33.79762
32.77345
30.72511
33.79762
34.82179
34.82179
35.84596
37.89431
40.96682
22.53175
7.169193
47.11184
34.82179
34.82179
32.77345
34.82179
34.82179
31.74928
32.77345
31.74928
31.74928
34.82179
33.79762
33.79762
34.82179
34.82179
49.16018
12.29005
14.33839
37.89431
35.84596
36.87014
33.79762
33.79762
34.82179
34.82179
33.79762
34.82179
33.79762
33.79762
35.84596
36.87014
37.89431
18.43507
7.169193
48.13601
35.84596
35.84596
35.84596
33.79762
34.82179
34.82179
33.79762
33.79762
34.82179
34.82179
36.87014
36.87014
48.13601
12.29005
13.31422
39.94265
34.82179
35.84596
36.87014
34.82179
34.82179
34.82179
33.79762
35.84596
35.84596
34.82179
39.94265
18.43507
7.169193
48.13601
40.96682
36.87014
36.87014
34.82179
36.87014
36.87014
35.84596
36.87014
36.87014
39.94265
50.18435
12.29005
8.193363
17.4109
51.20852
38.91848
35.84596
37.89431
36.87014
34.82179
36.87014
48.13601
18.43507
12.29005
8.193363
18.43507
49.16018
40.96682
41.99099
50.18435
18.43507
12.29005
9.217534
21.50758
22.53175
13.31422
5.120852
11.26587
11.26587
13.31422
13.31422
12.29005
13.31422
11.26587
12.29005
7.169193
5.120852
14.33839
44.03933
37.89431
36.87014
36.87014
37.89431
36.87014
36.87014
36.87014
37.89431
46.08767
14.33839
7.169193
4.096682
41.99099
35.84596
34.82179
35.84596
32.77345
56.32937
69.64359
68.61942
58.37771
32.77345
35.84596
34.82179
34.82179
43.01516
6.145023
4.096682
41.99099
33.79762
33.79762
31.74928
57.35354
113.6829
9.473962e+14
1.223581e+15
1.218843e+15
1.052682e+15
136.2147
62.4744
32.77345
34.82179
34.82179
45.0635
6.145023
4.096682
41.99099
33.79762
32.77345
58.37771
116.7554
9.794929e+14
1.388935e+15
1.730772e+15
2.051773e+15
2.080084e+15
1.780037e+15
1.398971e+15
1.091812e+15
138.263
60.42606
31.74928
35.84596
44.03933
6.145023
4.096682
43.01516
33.79762
31.74928
89.10283
9.775084e+14
1.389701e+15
1.755069e+15
2.133942e+15
2.287494e+15
2.407603e+15
2.426147e+15
2.358957e+15
2.196419e+15
1.809908e+15
1.399453e+15
1.088981e+15
112.6587
31.74928
35.84596
44.03933
7.169193
14.33839
34.82179
34.82179
58.37771
9.774311e+14
1.709175e+15
2.121479e+15
2.29574e+15
2.444678e+15
2.514041e+15
2.555263e+15
2.56411e+15
2.542176e+15
2.483262e+15
2.371384e+15
2.17594e+15
1.752759e+15
1.131008e+15
79.88529
35.84596
37.89431
17.4109
5.120852
43.01516
34.82179
31.74928
115.7313
1.389928e+15
2.121525e+15
2.397151e+15
2.50654e+15
2.570364e+15
2.60394e+15
2.621502e+15
2.625025e+15
2.614869e+15
2.588549e+15
2.537308e+15
2.435566e+15
2.21464e+15
1.607739e+15
146.4564
31.74928
34.82179
48.13601
8.193363
11.26587
36.87014
34.82179
58.37771
9.798114e+14
1.755498e+15
2.295939e+15
2.506619e+15
2.586714e+15
2.624451e+15
2.643169e+15
2.651862e+15
2.653226e+15
2.647477e+15
2.632599e+15
2.601839e+15
2.536462e+15
2.377819e+15
1.888843e+15
1.149787e+15
79.88529
34.82179
39.94265
16.38673
11.26587
36.87014
32.77345
114.7071
1.3894e+15
2.134295e+15
2.444893e+15
2.570487e+15
2.624531e+15
2.649475e+15
2.661313e+15
2.666846e+15
2.667576e+15
2.663496e+15
2.653532e+15
2.632872e+15
2.589567e+15
2.491401e+15
2.252923e+15
1.614279e+15
146.4564
32.77345
38.91848
17.4109
14.33839
35.84596
57.35354
9.473822e+14
1.731079e+15
2.287779e+15
2.514228e+15
2.604061e+15
2.643287e+15
2.661402e+15
2.670123e+15
2.67421e+15
2.674465e+15
2.671164e+15
2.663683e+15
2.64798e+15
2.615852e+15
2.545045e+15
2.373696e+15
1.86727e+15
1.120701e+15
75.78861
38.91848
19.45924
12.29005
37.89431
69.64359
1.223548e+15
2.051879e+15
2.407772e+15
2.55538e+15
2.621604e+15
2.652003e+15
2.667002e+15
2.674321e+15
2.677282e+15
2.677333e+15
2.674681e+15
2.66828e+15
2.654341e+15
2.62752e+15
2.570597e+15
2.447389e+15
2.166892e+15
1.466657e+15
94.22368
38.91848
18.43507
12.29005
37.89431
69.64359
1.218481e+15
2.079891e+15
2.426126e+15
2.564157e+15
2.625099e+15
2.653332e+15
2.667704e+15
2.674653e+15
2.677674e+15
2.677536e+15
2.674741e+15
2.668057e+15
2.653774e+15
2.625922e+15
2.566388e+15
2.438869e+15
2.152431e+15
1.505752e+15
95.24785
38.91848
18.43507
13.31422
35.84596
58.37771
1.052933e+15
1.779646e+15
2.358836e+15
2.542172e+15
2.614872e+15
2.647521e+15
2.663568e+15
2.671294e+15
2.674891e+15
2.674805e+15
2.671328e+15
2.662987e+15
2.646276e+15
2.611287e+15
2.533555e+15
2.349189e+15
1.817653e+15
1.341299e+15
85.00615
37.89431
18.43507
11.26587
36.87014
31.74928
136.2147
1.398776e+15
2.196372e+15
2.483164e+15
2.588456e+15
2.632568e+15
2.653598e+15
2.663815e+15
2.668459e+15
2.668137e+15
2.663055e+15
2.652013e+15
2.629566e+15
2.581699e+15
2.473829e+15
2.218226e+15
1.619101e+15
178.2057
31.74928
38.91848
17.4109
11.26587
36.87014
35.84596
61.45023
1.092323e+15
1.810295e+15
2.371497e+15
2.537311e+15
2.601818e+15
2.632958e+15
2.648127e+15
2.654399e+15
2.653727e+15
2.646376e+15
2.629665e+15
2.596029e+15
2.526288e+15
2.355552e+15
1.836061e+15
1.365733e+15
90.127
36.87014
39.94265
17.4109
7.169193
46.08767
34.82179
31.74928
137.2388
1.399771e+15
2.176237e+15
2.435646e+15
2.536522e+15
2.589718e+15
2.615976e+15
2.627092e+15
2.625296e+15
2.611287e+15
2.581796e+15
2.526313e+15
2.428135e+15
2.20108e+15
1.617835e+15
182.3023
33.79762
34.82179
46.08767
11.26587
14.33839
37.89431
34.82179
61.45023
1.089316e+15
1.753103e+15
2.214753e+15
2.377994e+15
2.491646e+15
2.545206e+15
2.569881e+15
2.565597e+15
2.533586e+15
2.473872e+15
2.355574e+15
2.201195e+15
1.791002e+15
1.364878e+15
88.07866
35.84596
34.82179
18.43507
7.169193
45.0635
36.87014
32.77345
112.6587
1.131329e+15
1.607886e+15
1.889134e+15
2.253351e+15
2.373946e+15
2.446816e+15
2.438235e+15
2.349241e+15
2.218238e+15
1.836153e+15
1.618187e+15
1.36519e+15
152.6014
33.79762
35.84596
45.0635
12.29005
6.145023
44.03933
35.84596
32.77345
80.90946
146.4564
1.150013e+15
1.615082e+15
1.867344e+15
2.166041e+15
2.151763e+15
1.817731e+15
1.618982e+15
1.365644e+15
182.3023
89.10283
32.77345
35.84596
44.03933
9.217534
5.120852
46.08767
35.84596
35.84596
31.74928
79.88529
144.408
1.120573e+15
1.466069e+15
1.505698e+15
1.340968e+15
179.2298
90.127
32.77345
35.84596
35.84596
44.03933
9.217534
6.145023
45.0635
38.91848
34.82179
34.82179
31.74928
76.81278
95.24785
96.27202
85.00615
33.79762
35.84596
34.82179
36.87014
45.0635
9.217534
7.169193
17.4109
48.13601
38.91848
38.91848
38.91848
40.96682
39.94265
37.89431
37.89431
39.94265
47.11184
17.4109
11.26587
7.169193
16.38673
17.4109
20.48341
18.43507
18.43507
20.48341
17.4109
17.4109
12.29005
3.072511
12.29005
12.29005
11.26587
11.26587
12.29005
13.31422
5.120852
3.072511
12.29005
12.29005
44.03933
38.91848
38.91848
37.89431
36.87014
38.91848
38.91848
47.11184
12.29005
13.31422
5.120852
3.072511
46.08767
32.77345
57.35354
71.69193
71.69193
72.7161
71.69193
71.69193
71.69193
72.7161
70.66776
58.37771
33.79762
45.0635
6.145023
6.145023
12.29005
38.91848
59.40188
116.7554
1.002064e+15
1.289035e+15
1.306963e+15
1.304391e+15
1.301644e+15
1.300372e+15
1.299703e+15
1.297086e+15
1.277236e+15
1.110602e+15
139.2872
63.49857
40.96682
13.31422
7.169193
6.145023
44.03933
32.77345
94.22368
1.034362e+15
1.467463e+15
1.843277e+15
2.192487e+15
2.31096e+15
2.352445e+15
2.36034e+15
2.357496e+15
2.34373e+15
2.303081e+15
2.21497e+15
1.887921e+15
1.476504e+15
1.15566e+15
118.8038
33.79762
44.03933
8.193363
5.120852
43.01516
33.79762
98.32036
1.136624e+15
1.830666e+15
2.249365e+15
2.44515e+15
2.62195e+15
2.728477e+15
2.829686e+15
2.850347e+15
2.84651e+15
2.818994e+15
2.712755e+15
2.632291e+15
2.505122e+15
2.298138e+15
1.87613e+15
1.274863e+15
124.9488
33.79762
45.0635
8.193363
12.29005
33.79762
100.3687
1.140325e+15
1.856947e+15
2.330775e+15
2.615224e+15
2.778031e+15
2.947721e+15
3.085119e+15
3.501203e+15
3.608455e+15
3.615844e+15
3.560475e+15
3.09908e+15
2.951878e+15
2.786368e+15
2.643237e+15
2.420533e+15
1.932276e+15
1.282453e+15
125.973
34.82179
16.38673
5.120852
38.91848
95.24785
1.137026e+15
1.856843e+15
2.347764e+15
2.67945e+15
2.922801e+15
3.100839e+15
3.551501e+15
3.720414e+15
3.861037e+15
3.985807e+15
4.013282e+15
3.968434e+15
3.788078e+15
3.63032e+15
3.126766e+15
2.936977e+15
2.708464e+15
2.444239e+15
1.935444e+15
1.282069e+15
120.8521
41.99099
6.145023
3.072511
43.01516
59.40188
1.033882e+15
1.831044e+15
2.33121e+15
2.679792e+15
3.003391e+15
3.5233e+15
3.720186e+15
3.883637e+15
4.040386e+15
4.126756e+15
4.190322e+15
4.209822e+15
4.189613e+15
4.113808e+15
4.00727e+15
3.793235e+15
3.601973e+15
3.033991e+15
2.711383e+15
2.430098e+15
1.907727e+15
1.205497e+15
81.93363
46.08767
7.169193
13.31422
32.77345
117.7796
1.467703e+15
2.249529e+15
2.615626e+15
2.923036e+15
3.523194e+15
3.830431e+15
4.02712e+15
4.1341e+15
4.218084e+15
4.266878e+15
4.2971e+15
4.306807e+15
4.29686e+15
4.263205e+15
4.206844e+15
4.103898e+15
3.962346e+15
3.656398e+15
2.952973e+15
2.657641e+15
2.349731e+15
1.695422e+15
150.5531
34.82179
16.38673
12.29005
57.35354
1.000593e+15
1.843568e+15
2.445384e+15
2.778339e+15
3.10089e+15
3.720196e+15
4.027125e+15
4.182768e+15
4.261133e+15
4.30953e+15
4.337487e+15
4.352898e+15
4.357222e+15
4.350862e+15
4.332298e+15
4.298945e+15
4.239913e+15
4.139429e+15
3.924288e+15
3.166738e+15
2.799351e+15
2.520547e+15
1.97926e+15
1.186582e+15
79.88529
17.4109
3.072511
46.08767
70.66776
1.287624e+15
2.19225e+15
2.622051e+15
2.947923e+15
3.551683e+15
3.883845e+15
4.134222e+15
4.261196e+15
4.322779e+15
4.355545e+15
4.373199e+15
4.381976e+15
4.383875e+15
4.379279e+15
4.367046e+15
4.344192e+15
4.303431e+15
4.228416e+15
4.076857e+15
3.708404e+15
2.977626e+15
2.657391e+15
2.307022e+15
1.543788e+15
98.32036
49.16018
5.120852
12.29005
38.91848
72.7161
1.30614e+15
2.310528e+15
2.728378e+15
3.08502e+15
3.720551e+15
4.040574e+15
4.218225e+15
4.309623e+15
4.355592e+15
4.379376e+15
4.391843e+15
4.397812e+15
4.398702e+15
4.394835e+15
4.385569e+15
4.368326e+15
4.337659e+15
4.282374e+15
4.174287e+15
3.934318e+15
3.149368e+15
2.742859e+15
2.38801e+15
1.605524e+15
100.3687
41.99099
18.43507
12.29005
39.94265
71.69193
1.303965e+15
2.352069e+15
2.829559e+15
3.50108e+15
3.861116e+15
4.126918e+15
4.266994e+15
4.337574e+15
4.373275e+15
4.391894e+15
4.401574e+15
4.405992e+15
4.406378e+15
4.403079e+15
4.395319e+15
4.381106e+15
4.355946e+15
4.31115e+15
4.226735e+15
4.056713e+15
3.655563e+15
2.859089e+15
2.429882e+15
1.619442e+15
100.3687
40.96682
18.43507
11.26587
35.84596
71.69193
1.301453e+15
2.360132e+15
2.850199e+15
3.608384e+15
3.985847e+15
4.190418e+15
4.297181e+15
4.352978e+15
4.382064e+15
4.397898e+15
4.406054e+15
4.409749e+15
4.409843e+15
4.406867e+15
4.399706e+15
4.386799e+15
4.364323e+15
4.324976e+15
4.255202e+15
4.120692e+15
3.821617e+15
2.908768e+15
2.448288e+15
1.624961e+15
100.3687
39.94265
17.4109
10.2417
37.89431
71.69193
1.300329e+15
2.357487e+15
2.846467e+15
3.615675e+15
4.01316e+15
4.209813e+15
4.306843e+15
4.357275e+15
4.383948e+15
4.398785e+15
4.40648e+15
4.409962e+15
4.409898e+15
4.406862e+15
4.399643e+15
4.386709e+15
4.364211e+15
4.32501e+15
4.256524e+15
4.125479e+15
3.843916e+15
2.922046e+15
2.453506e+15
1.627486e+15
100.3687
39.94265
16.38673
12.29005
38.91848
72.7161
1.299705e+15
2.343728e+15
2.818966e+15
3.560601e+15
3.968324e+15
4.189567e+15
4.296848e+15
4.350873e+15
4.37932e+15
4.394895e+15
4.403163e+15
4.406972e+15
4.406901e+15
4.403241e+15
4.395277e+15
4.381004e+15
4.355884e+15
4.311768e+15
4.23174e+15
4.084707e+15
3.752096e+15
2.907415e+15
2.44688e+15
1.628383e+15
99.34453
40.96682
17.4109
12.29005
37.89431
71.69193
1.297039e+15
2.302806e+15
2.712547e+15
3.099133e+15
3.788131e+15
4.113804e+15
4.263162e+15
4.332266e+15
4.36705e+15
4.385613e+15
4.395401e+15
4.399789e+15
4.399686e+15
4.395312e+15
4.385847e+15
4.368632e+15
4.338396e+15
4.284178e+15
4.176948e+15
3.947774e+15
3.184216e+15
2.780511e+15
2.40253e+15
1.624754e+15
100.3687
40.96682
18.43507
5.120852
46.08767
71.69193
1.277305e+15
2.214528e+15
2.632175e+15
2.95194e+15
3.63055e+15
4.007437e+15
4.206928e+15
4.298967e+15
4.344203e+15
4.368383e+15
4.381173e+15
4.386772e+15
4.386669e+15
4.381037e+15
4.36867e+15
4.346548e+15
4.308267e+15
4.238138e+15
4.104461e+15
3.795543e+15
3.025235e+15
2.675038e+15
2.300299e+15
1.601929e+15
98.32036
47.11184
11.26587
12.29005
58.37771
1.110863e+15
1.887379e+15
2.505118e+15
2.786327e+15
3.126618e+15
3.793374e+15
4.104016e+15
4.239968e+15
4.303487e+15
4.337745e+15
4.355958e+15
4.363948e+15
4.363884e+15
4.355843e+15
4.338422e+15
4.308284e+15
4.2572e+15
4.161321e+15
3.94595e+15
3.199917e+15
2.830663e+15
2.518536e+15
1.938262e+15
1.417975e+15
88.07866
16.38673
12.29005
32.77345
140.3113
1.475918e+15
2.298441e+15
2.643342e+15
2.936739e+15
3.60201e+15
3.962431e+15
4.139512e+15
4.228534e+15
4.282518e+15
4.311202e+15
4.324529e+15
4.324623e+15
4.311708e+15
4.284179e+15
4.238174e+15
4.161375e+15
4.048269e+15
3.767504e+15
3.002778e+15
2.669721e+15
2.337739e+15
1.70917e+15
184.3507
36.87014
17.4109
5.120852
45.0635
62.4744
1.155053e+15
1.876537e+15
2.420577e+15
2.70797e+15
3.033608e+15
3.656472e+15
3.924401e+15
4.077019e+15
4.174469e+15
4.226784e+15
4.254712e+15
4.256139e+15
4.231712e+15
4.176943e+15
4.104488e+15
3.946065e+15
3.767586e+15
3.111912e+15
2.745745e+15
2.422938e+15
1.916506e+15
1.44092e+15
91.15117
48.13601
10.2417
6.145023
39.94265
117.7796
1.274439e+15
1.932106e+15
2.443628e+15
2.710949e+15
2.952889e+15
3.166768e+15
3.708465e+15
3.934458e+15
4.05665e+15
4.120192e+15
4.125178e+15
4.084724e+15
3.947777e+15
3.795462e+15
3.199856e+15
3.002724e+15
2.745782e+15
2.443195e+15
1.94005e+15
1.495591e+15
160.7948
40.96682
9.217534
12.29005
32.77345
124.9488
1.28289e+15
1.934964e+15
2.430076e+15
2.657716e+15
2.799365e+15
2.977601e+15
3.149319e+15
3.655422e+15
3.821345e+15
3.843842e+15
3.752147e+15
3.184386e+15
3.025135e+15
2.830641e+15
2.669907e+15
2.423289e+15
1.940011e+15
1.498426e+15
165.9156
33.79762
16.38673
8.193363
45.0635
33.79762
128.0213
1.282273e+15
1.908261e+15
2.349907e+15
2.520555e+15
2.657349e+15
2.742742e+15
2.858917e+15
2.908307e+15
2.921489e+15
2.907441e+15
2.780739e+15
2.675158e+15
2.518708e+15
2.338074e+15
1.917393e+15
1.49599e+15
167.9639
35.84596
47.11184
12.29005
8.193363
46.08767
33.79762
119.8279
1.205681e+15
1.695272e+15
1.979068e+15
2.306489e+15
2.387265e+15
2.429286e+15
2.447523e+15
2.45245e+15
2.446823e+15
2.402947e+15
2.300722e+15
1.938062e+15
1.708452e+15
1.440545e+15
159.7706
34.82179
47.11184
11.26587
9.217534
17.4109
41.99099
81.93363
150.5531
1.185825e+15
1.542403e+15
1.603988e+15
1.618412e+15
1.625444e+15
1.627022e+15
1.628393e+15
1.62546e+15
1.603191e+15
1.4197e+15
184.3507
92.17534
40.96682
17.4109
13.31422
6.145023
46.08767
34.82179
78.86112
98.32036
100.3687
100.3687
101.3929
101.3929
99.34453
100.3687
98.32036
89.10283
35.84596
47.11184
9.217534
6.145023
16.38673
16.38673
48.13601
41.99099
39.94265
38.91848
39.94265
39.94265
39.94265
48.13601
15.36256
18.43507
10.2417
6.145023
17.4109
16.38673
17.4109
17.4109
17.4109
18.43507
11.26587
4.096682
11.26587
13.31422
13.31422
11.26587
5.120852
3.072511
11.26587
10.2417
25.60426
78.86112
76.81278
78.86112
77.83695
76.81278
78.86112
27.6526
10.2417
11.26587
4.096682
5.120852
12.29005
62.4744
82.9578
124.9488
1.058276e+15
1.367609e+15
1.38213e+15
1.377469e+15
1.375308e+15
1.374702e+15
1.365621e+15
1.179103e+15
148.5047
82.9578
67.59525
9.217534
5.120852
4.096682
40.96682
100.3687
1.074624e+15
1.411286e+15
1.583345e+15
1.949252e+15
2.301914e+15
2.406098e+15
2.429854e+15
2.429279e+15
2.40814e+15
2.331296e+15
2.004257e+15
1.588321e+15
1.397329e+15
1.1878e+15
123.9246
40.96682
6.145023
1.02417
67.59525
129.0455
1.209194e+15
1.94616e+15
2.38173e+15
2.617546e+15
2.731284e+15
2.863468e+15
2.922006e+15
2.942396e+15
2.943522e+15
2.928952e+15
2.888519e+15
2.797802e+15
2.636621e+15
2.386366e+15
1.978026e+15
1.338596e+15
156.6981
69.64359
3.072511
2.048341
102.417
1.119925e+15
1.580728e+15
2.046622e+15
2.606373e+15
2.951601e+15
3.471583e+15
3.627093e+15
3.686446e+15
3.710578e+15
3.718828e+15
3.718954e+15
3.71259e+15
3.695977e+15
3.655801e+15
3.548216e+15
2.995296e+15
2.698488e+15
2.112458e+15
1.581715e+15
1.245743e+15
122.9005
2.048341
2.048341
101.3929
1.232491e+15
1.971327e+15
2.456663e+15
2.824389e+15
3.458291e+15
3.71629e+15
3.908565e+15
4.060703e+15
4.124971e+15
4.149613e+15
4.156776e+15
4.157044e+15
4.152401e+15
4.137817e+15
4.103695e+15
4.024359e+15
3.802791e+15
3.577609e+15
2.916741e+15
2.485477e+15
1.992572e+15
1.375448e+15
126.9971
3.072511
3.072511
66.57108
1.120691e+15
1.971339e+15
2.519721e+15
2.958412e+15
3.553841e+15
3.875658e+15
4.086203e+15
4.202237e+15
4.287519e+15
4.333913e+15
4.363098e+15
4.372047e+15
4.373373e+15
4.369823e+15
4.348659e+15
4.321543e+15
4.272538e+15
4.17032e+15
4.024366e+15
3.70835e+15
3.016134e+15
2.585869e+15
2.021218e+15
1.299633e+15
87.05449
5.120852
4.096682
38.91848
130.0696
1.580681e+15
2.456352e+15
2.958513e+15
3.583809e+15
3.906921e+15
4.137737e+15
4.28025e+15
4.361067e+15
4.422479e+15
4.464734e+15
4.549983e+15
4.584579e+15
4.593482e+15
4.588344e+15
4.502079e+15
4.455394e+15
4.405309e+15
4.34277e+15
4.24955e+15
4.077536e+15
3.736621e+15
3.025254e+15
2.535685e+15
1.798914e+15
163.8673
43.01516
7.169193
10.2417
99.34453
1.20738e+15
2.046805e+15
2.824416e+15
3.554067e+15
3.906985e+15
4.146476e+15
4.301132e+15
4.404759e+15
4.471826e+15
4.574679e+15
4.629209e+15
4.677891e+15
4.715522e+15
4.729929e+15
4.725764e+15
4.678129e+15
4.634694e+15
4.526495e+15
4.457152e+15
4.378472e+15
4.270016e+15
4.082011e+15
3.716982e+15
2.931341e+15
2.176225e+15
1.363232e+15
126.9971
13.31422
4.096682
63.49857
1.07286e+15
1.945091e+15
2.606671e+15
3.458232e+15
3.875887e+15
4.138002e+15
4.30129e+15
4.420685e+15
4.555951e+15
4.627796e+15
4.688283e+15
4.737971e+15
4.771874e+15
4.796927e+15
4.807913e+15
4.80563e+15
4.782669e+15
4.751985e+15
4.6878e+15
4.629316e+15
4.49949e+15
4.390308e+15
4.265867e+15
4.057755e+15
3.645791e+15
2.739316e+15
2.022971e+15
1.257828e+15
88.07866
6.145023
12.29005
82.9578
1.409758e+15
2.381308e+15
2.951573e+15
3.716259e+15
4.086287e+15
4.280482e+15
4.40489e+15
4.55594e+15
4.661516e+15
4.730467e+15
4.774818e+15
4.80862e+15
4.830688e+15
4.845181e+15
4.851516e+15
4.849918e+15
4.838356e+15
4.819308e+15
4.784484e+15
4.742953e+15
4.658931e+15
4.494183e+15
4.374158e+15
4.226674e+15
3.949009e+15
3.059387e+15
2.474966e+15
1.65814e+15
113.6829
16.38673
10.2417
124.9488
1.582465e+15
2.617755e+15
3.470965e+15
3.908563e+15
4.202339e+15
4.361245e+15
4.471885e+15
4.6278e+15
4.730468e+15
4.792004e+15
4.827452e+15
4.850327e+15
4.864483e+15
4.872861e+15
4.876163e+15
4.874631e+15
4.867658e+15
4.855231e+15
4.834307e+15
4.804678e+15
4.748381e+15
4.571711e+15
4.442627e+15
4.317223e+15
4.117096e+15
3.654741e+15
2.713708e+15
1.873379e+15
163.8673
15.36256
25.60426
1.059158e+15
1.950099e+15
2.732173e+15
3.626744e+15
4.060588e+15
4.287564e+15
4.422574e+15
4.574741e+15
4.688342e+15
4.774858e+15
4.827475e+15
4.856726e+15
4.873564e+15
4.883236e+15
4.88843e+15
4.890145e+15
4.888665e+15
4.883688e+15
4.874623e+15
4.859751e+15
4.836782e+15
4.796339e+15
4.692141e+15
4.512901e+15
4.379895e+15
4.212638e+15
3.868035e+15
2.856532e+15
2.119429e+15
1.265106e+15
41.99099
3.072511
77.83695
1.368502e+15
2.303448e+15
2.864511e+15
3.686382e+15
4.124793e+15
4.333864e+15
4.4647e+15
4.629235e+15
4.73803e+15
4.808672e+15
4.850363e+15
4.873581e+15
4.886499e+15
4.893642e+15
4.897261e+15
4.898216e+15
4.896767e+15
4.892749e+15
4.885507e+15
4.873701e+15
4.855207e+15
4.824243e+15
4.758131e+15
4.568051e+15
4.419693e+15
4.257829e+15
3.944295e+15
2.965537e+15
2.438304e+15
1.63726e+15
108.5621
6.145023
11.26587
77.83695
1.382666e+15
2.407318e+15
2.922714e+15
3.710604e+15
4.149459e+15
4.363017e+15
4.549922e+15
4.677899e+15
4.771924e+15
4.830734e+15
4.86452e+15
4.883264e+15
4.89366e+15
4.89933e+15
4.902083e+15
4.902653e+15
4.901279e+15
4.897765e+15
4.891536e+15
4.881389e+15
4.865408e+15
4.839527e+15
4.792067e+15
4.674447e+15
4.467595e+15
4.285372e+15
3.972991e+15
3.011605e+15
2.507073e+15
1.685518e+15
107.5379
16.38673
13.31422
78.86112
1.377423e+15
2.430233e+15
2.9427e+15
3.718871e+15
4.156717e+15
4.371989e+15
4.584543e+15
4.715527e+15
4.79696e+15
4.845216e+15
4.872894e+15
4.888463e+15
4.89729e+15
4.902103e+15
4.904404e+15
4.904769e+15
4.903444e+15
4.900158e+15
4.89442e+15
4.885149e+15
4.870622e+15
4.848007e+15
4.809597e+15
4.726068e+15
4.494388e+15
4.29938e+15
3.983817e+15
3.028877e+15
2.528373e+15
1.702835e+15
109.5862
17.4109
13.31422
77.83695
1.375583e+15
2.429475e+15
2.943733e+15
3.71905e+15
4.157103e+15
4.373383e+15
4.593447e+15
4.729899e+15
4.807914e+15
4.851532e+15
4.876186e+15
4.890173e+15
4.898246e+15
4.902686e+15
4.904799e+15
4.905059e+15
4.903706e+15
4.900442e+15
4.894804e+15
4.885763e+15
4.871745e+15
4.850415e+15
4.814934e+15
4.740993e+15
4.504176e+15
4.303539e+15
3.984919e+15
3.028837e+15
2.528883e+15
1.708109e+15
109.5862
18.43507
11.26587
77.83695
1.375313e+15
2.408302e+15
2.929168e+15
3.712705e+15
4.152431e+15
4.369796e+15
4.588362e+15
4.725745e+15
4.80562e+15
4.849917e+15
4.874639e+15
4.888683e+15
4.896791e+15
4.901308e+15
4.903476e+15
4.903719e+15
4.902211e+15
4.898764e+15
4.892859e+15
4.883455e+15
4.869056e+15
4.84703e+15
4.811119e+15
4.728221e+15
4.500582e+15
4.298677e+15
3.976352e+15
3.009887e+15
2.505636e+15
1.708359e+15
108.5621
18.43507
4.096682
81.93363
1.365455e+15
2.331569e+15
2.888752e+15
3.696043e+15
4.137682e+15
4.34855e+15
4.502097e+15
4.678152e+15
4.782673e+15
4.838348e+15
4.867653e+15
4.883694e+15
4.892765e+15
4.89779e+15
4.900182e+15
4.900455e+15
4.898773e+15
4.894951e+15
4.888393e+15
4.878074e+15
4.862309e+15
4.836341e+15
4.785488e+15
4.618155e+15
4.454386e+15
4.272939e+15
3.949952e+15
2.957945e+15
2.417914e+15
1.696801e+15
107.5379
9.217534
27.6526
1.177027e+15
2.004461e+15
2.797797e+15
3.655802e+15
4.103428e+15
4.321453e+15
4.455386e+15
4.634734e+15
4.752023e+15
4.819331e+15
4.85524e+15
4.874631e+15
4.885524e+15
4.891552e+15
4.894409e+15
4.894787e+15
4.892861e+15
4.8884e+15
4.880801e+15
4.869022e+15
4.85096e+15
4.821162e+15
4.751104e+15
4.560724e+15
4.408065e+15
4.226698e+15
3.89031e+15
2.849867e+15
2.05964e+15
1.490429e+15
47.11184
9.217534
147.4805
1.588299e+15
2.636522e+15
3.548371e+15
4.024074e+15
4.272498e+15
4.405269e+15
4.526435e+15
4.687813e+15
4.784508e+15
4.834325e+15
4.859769e+15
4.873724e+15
4.881385e+15
4.885043e+15
4.885659e+15
4.883424e+15
4.878073e+15
4.869025e+15
4.854851e+15
4.831959e+15
4.78587e+15
4.627591e+15
4.484205e+15
4.341997e+15
4.145112e+15
3.742413e+15
2.74094e+15
1.84363e+15
196.6407
16.38673
11.26587
83.98197
1.396959e+15
2.385266e+15
2.99493e+15
3.802409e+15
4.170349e+15
4.342756e+15
4.457007e+15
4.629253e+15
4.742946e+15
4.804696e+15
4.836816e+15
4.855244e+15
4.865409e+15
4.870482e+15
4.871607e+15
4.869009e+15
4.862298e+15
4.850967e+15
4.831971e+15
4.804394e+15
4.739149e+15
4.551974e+15
4.408619e+15
4.246006e+15
3.958701e+15
3.075659e+15
2.498194e+15
1.723773e+15
113.6829
18.43507
5.120852
67.59525
1.18932e+15
1.976625e+15
2.69747e+15
3.576772e+15
4.02421e+15
4.249435e+15
4.378185e+15
4.499254e+15
4.658884e+15
4.7484e+15
4.796382e+15
4.824284e+15
4.839522e+15
4.847843e+15
4.850266e+15
4.846989e+15
4.83633e+15
4.821164e+15
4.785892e+15
4.73917e+15
4.5919e+15
4.448907e+15
4.30509e+15
4.110633e+15
3.728244e+15
2.747615e+15
2.050795e+15
1.513152e+15
96.27202
9.217534
9.217534
124.9488
1.338884e+15
2.111207e+15
2.915984e+15
3.708028e+15
4.077318e+15
4.26967e+15
4.390078e+15
4.494099e+15
4.571701e+15
4.692151e+15
4.758141e+15
4.792023e+15
4.80942e+15
4.814804e+15
4.811101e+15
4.78549e+15
4.751083e+15
4.627579e+15
4.551987e+15
4.448949e+15
4.320373e+15
4.144438e+15
3.811186e+15
2.97099e+15
2.150506e+15
1.580724e+15
170.0123
12.29005
7.169193
40.96682
156.6981
1.582801e+15
2.485502e+15
3.015863e+15
3.736565e+15
4.081868e+15
4.265852e+15
4.374185e+15
4.442632e+15
4.512905e+15
4.568023e+15
4.67436e+15
4.725896e+15
4.740893e+15
4.728235e+15
4.618207e+15
4.560718e+15
4.484246e+15
4.408741e+15
4.305286e+15
4.144603e+15
3.837043e+15
3.07722e+15
2.563181e+15
1.832088e+15
200.7374
41.99099
10.2417
5.120852
69.64359
1.247316e+15
1.992425e+15
2.585197e+15
3.025107e+15
3.717105e+15
4.057947e+15
4.226752e+15
4.31722e+15
4.379849e+15
4.419585e+15
4.467442e+15
4.493981e+15
4.503814e+15
4.500528e+15
4.454497e+15
4.408164e+15
4.342077e+15
4.246056e+15
4.110712e+15
3.811221e+15
3.077453e+15
2.618715e+15
2.054821e+15
1.547538e+15
96.27202
9.217534
2.048341
125.973
1.37804e+15
2.020589e+15
2.535809e+15
2.931224e+15
3.645837e+15
3.948954e+15
4.116971e+15
4.212392e+15
4.257542e+15
4.285162e+15
4.29892e+15
4.30305e+15
4.298517e+15
4.273047e+15
4.226908e+15
4.145285e+15
3.958595e+15
3.727929e+15
2.970455e+15
2.563307e+15
2.054283e+15
1.603405e+15
161.8189
5.120852
4.096682
128.0213
1.301167e+15
1.799229e+15
2.175874e+15
2.739263e+15
3.059393e+15
3.654649e+15
3.867835e+15
3.944109e+15
3.972974e+15
3.983712e+15
3.984594e+15
3.976185e+15
3.949953e+15
3.890472e+15
3.742726e+15
3.075659e+15
2.747196e+15
2.149798e+15
1.832811e+15
1.549279e+15
162.8431
7.169193
3.072511
88.07866
165.9156
1.363626e+15
2.022907e+15
2.475128e+15
2.713921e+15
2.857206e+15
2.966401e+15
3.01242e+15
3.028808e+15
3.028069e+15
3.009648e+15
2.957643e+15
2.849394e+15
2.740576e+15
2.498045e+15
2.050631e+15
1.58143e+15
200.7374
97.29619
6.145023
5.120852
43.01516
128.0213
1.257772e+15
1.658498e+15
1.872922e+15
2.120011e+15
2.439124e+15
2.507952e+15
2.528379e+15
2.528362e+15
2.505869e+15
2.418272e+15
2.059716e+15
1.844112e+15
1.725667e+15
1.515372e+15
170.0123
43.01516
9.217534
7.169193
12.29005
87.05449
113.6829
163.8673
1.265816e+15
1.637948e+15
1.686334e+15
1.70323e+15
1.707939e+15
1.708753e+15
1.697717e+15
1.491803e+15
196.6407
113.6829
96.27202
14.33839
11.26587
7.169193
16.38673
15.36256
43.01516
108.5621
108.5621
110.6104
110.6104
109.5862
107.5379
47.11184
17.4109
17.4109
9.217534
6.145023
16.38673
18.43507
18.43507
17.4109
10.2417
1.02417
6.145023
23.55592
29.70094
30.72511
30.72511
30.72511
24.58009
7.169193
3.072511
-1.02417
25.60426
31.74928
86.03032
133.1422
1.119686e+15
1.447146e+15
1.473925e+15
1.467288e+15
1.434739e+15
1.23636e+15
156.6981
87.05449
30.72511
25.60426
1.02417
15.36256
128.0213
1.14996e+15
1.463577e+15
1.539733e+15
1.728242e+15
2.117677e+15
2.51488e+15
2.620062e+15
2.623168e+15
2.54183e+15
2.177759e+15
1.729697e+15
1.518858e+15
1.438374e+15
1.25488e+15
148.5047
17.4109
3.072511
41.99099
1.229482e+15
1.717883e+15
2.17826e+15
2.577169e+15
2.797786e+15
3.300941e+15
3.48677e+15
3.616331e+15
3.66274e+15
3.667976e+15
3.642171e+15
3.567957e+15
3.390423e+15
2.812193e+15
2.583899e+15
2.193694e+15
1.688727e+15
1.346873e+15
53.25686
4.096682
1.02417
108.5621
1.317283e+15
2.133834e+15
2.714438e+15
3.35798e+15
3.624205e+15
3.752866e+15
3.915014e+15
4.065404e+15
4.142005e+15
4.171447e+15
4.17623e+15
4.163636e+15
4.126309e+15
4.037398e+15
3.821046e+15
3.663917e+15
3.472438e+15
2.751132e+15
2.154416e+15
1.445831e+15
132.118
3.072511
3.072511
109.5862
1.346458e+15
2.202962e+15
2.817427e+15
3.533365e+15
3.88581e+15
4.099546e+15
4.209684e+15
4.282208e+15
4.351791e+15
4.393119e+15
4.411356e+15
4.414963e+15
4.407813e+15
4.388254e+15
4.34815e+15
4.266085e+15
4.165468e+15
4.03141e+15
3.692337e+15
2.928069e+15
2.26536e+15
1.474952e+15
134.1663
5.120852
2.048341
108.5621
1.354892e+15
2.262366e+15
3.276547e+15
3.690838e+15
3.967019e+15
4.204734e+15
4.355391e+15
4.500282e+15
4.568619e+15
4.60613e+15
4.626164e+15
4.635118e+15
4.637088e+15
4.633937e+15
4.625294e+15
4.607818e+15
4.569251e+15
4.438511e+15
4.328536e+15
4.143876e+15
3.819402e+15
3.441546e+15
2.34018e+15
1.487498e+15
134.1663
3.072511
2.048341
108.5621
1.346421e+15
2.262839e+15
3.310476e+15
3.830214e+15
4.116637e+15
4.289933e+15
4.4839e+15
4.594989e+15
4.676893e+15
4.732636e+15
4.761939e+15
4.77565e+15
4.781117e+15
4.78244e+15
4.781084e+15
4.776264e+15
4.765542e+15
4.742098e+15
4.672647e+15
4.597414e+15
4.423883e+15
4.236729e+15
4.010964e+15
3.526723e+15
2.351475e+15
1.483244e+15
134.1663
3.072511
41.99099
1.317331e+15
2.202601e+15
3.277084e+15
3.830278e+15
4.154029e+15
4.352396e+15
4.53009e+15
4.655883e+15
4.738513e+15
4.790388e+15
4.825886e+15
4.845961e+15
4.857004e+15
4.861432e+15
4.862812e+15
4.862538e+15
4.858167e+15
4.85048e+15
4.835499e+15
4.800658e+15
4.753774e+15
4.655562e+15
4.470376e+15
4.297717e+15
4.040716e+15
3.513837e+15
2.286159e+15
1.470948e+15
58.37771
14.33839
1.23038e+15
2.133503e+15
2.817238e+15
3.690641e+15
4.116525e+15
4.352432e+15
4.548039e+15
4.673919e+15
4.762432e+15
4.820608e+15
4.855724e+15
4.879554e+15
4.894695e+15
4.914139e+15
4.92448e+15
4.928419e+15
4.928739e+15
4.913157e+15
4.900824e+15
4.886747e+15