/*--------------------------------*- C++ -*----------------------------------*\
  =========                 |
  \\      /  F ield         | OpenFOAM: The Open Source CFD Toolbox
   \\    /   O peration     | Website:  https://openfoam.org
    \\  /    A nd           | Version:  6
     \\/     M anipulation  |
\*---------------------------------------------------------------------------*/
FoamFile
{
    version     2.0;
    format      ascii;
    class       volScalarField;
    location    "49.8/region0/neutronTransport";
    object      discFlux1;
}
// * * * * * * * * * * * * * * * * * * * * * * * * * * * * * * * * * * * * * //

dimensions      [0 -2 -1 0 0 0 0];

internalField   nonuniform List<scalar> 
203709
(
1.318977e+17
1.460884e+17
1.460771e+17
1.319431e+17
1.379748e+17
1.555337e+17
1.951927e+17
1.929458e+17
1.929272e+17
1.951953e+17
1.555365e+17
1.379923e+17
1.347409e+17
1.561151e+17
1.976753e+17
1.968513e+17
2.026193e+17
2.040365e+17
2.040305e+17
2.026101e+17
1.968343e+17
1.97663e+17
1.560982e+17
1.347268e+17
1.347587e+17
1.920936e+17
1.960113e+17
2.038303e+17
2.078431e+17
2.114052e+17
2.129744e+17
2.129782e+17
2.113858e+17
2.078102e+17
2.038e+17
1.959779e+17
1.920668e+17
1.347348e+17
1.561251e+17
1.960139e+17
2.050043e+17
2.113412e+17
2.161366e+17
2.196049e+17
2.213265e+17
2.213264e+17
2.195773e+17
2.160996e+17
2.11304e+17
2.049592e+17
1.959688e+17
1.560843e+17
1.379981e+17
1.976872e+17
2.038431e+17
2.113446e+17
2.178725e+17
2.230218e+17
2.265939e+17
2.283596e+17
2.283525e+17
2.265721e+17
2.229966e+17
2.178322e+17
2.113008e+17
2.038046e+17
1.976544e+17
1.379642e+17
1.555376e+17
1.968508e+17
2.078442e+17
2.16128e+17
2.23018e+17
2.283722e+17
2.319375e+17
2.336171e+17
2.336097e+17
2.319251e+17
2.283427e+17
2.229768e+17
2.160962e+17
2.078133e+17
1.968134e+17
1.555089e+17
1.31939e+17
1.952154e+17
2.026409e+17
2.114216e+17
2.19617e+17
2.265941e+17
2.31939e+17
2.352533e+17
2.368985e+17
2.368954e+17
2.352476e+17
2.31913e+17
2.265643e+17
2.195816e+17
2.113793e+17
2.025957e+17
1.951862e+17
1.318718e+17
1.460765e+17
1.929411e+17
2.040458e+17
2.130035e+17
2.213499e+17
2.283677e+17
2.33629e+17
2.369085e+17
2.38705e+17
2.386526e+17
2.369004e+17
2.336236e+17
2.283589e+17
2.213193e+17
2.129557e+17
2.040047e+17
1.928933e+17
1.46026e+17
1.460941e+17
1.92981e+17
2.040633e+17
2.130015e+17
2.213512e+17
2.283771e+17
2.336336e+17
2.369182e+17
2.387584e+17
2.387026e+17
2.369148e+17
2.336323e+17
2.283622e+17
2.213289e+17
2.129625e+17
2.040084e+17
1.929171e+17
1.460515e+17
1.319082e+17
1.952514e+17
2.026603e+17
2.114379e+17
2.196371e+17
2.266213e+17
2.319698e+17
2.352939e+17
2.3695e+17
2.369304e+17
2.352814e+17
2.319559e+17
2.265947e+17
2.196013e+17
2.113875e+17
2.025953e+17
1.951615e+17
1.318786e+17
1.555432e+17
1.968769e+17
2.078832e+17
2.161815e+17
2.230689e+17
2.284286e+17
2.31997e+17
2.336922e+17
2.336641e+17
2.319773e+17
2.283877e+17
2.230156e+17
2.161132e+17
2.078053e+17
1.968042e+17
1.554943e+17
1.380155e+17
1.977315e+17
2.038869e+17
2.114045e+17
2.179366e+17
2.230995e+17
2.266631e+17
2.284488e+17
2.28422e+17
2.266336e+17
2.230374e+17
2.178617e+17
2.113186e+17
2.037996e+17
1.976428e+17
1.379494e+17
1.561716e+17
1.960774e+17
2.050841e+17
2.114317e+17
2.162289e+17
2.197019e+17
2.215153e+17
2.214892e+17
2.196426e+17
2.161433e+17
2.113271e+17
2.049739e+17
1.959834e+17
1.560892e+17
1.348203e+17
1.921974e+17
1.961005e+17
2.039266e+17
2.079243e+17
2.114846e+17
2.13129e+17
2.131082e+17
2.114248e+17
2.078344e+17
2.03806e+17
1.959644e+17
1.92062e+17
1.347002e+17
1.348144e+17
1.561823e+17
1.977564e+17
1.968923e+17
2.026724e+17
2.041252e+17
2.041245e+17
2.026246e+17
1.968292e+17
1.976467e+17
1.560566e+17
1.346969e+17
1.380056e+17
1.555412e+17
1.952268e+17
1.930326e+17
1.930488e+17
1.951933e+17
1.554922e+17
1.379391e+17
1.318979e+17
1.460561e+17
1.46062e+17
1.318847e+17
1.10338e+17
1.263405e+17
1.316206e+17
1.352391e+17
1.375085e+17
1.375159e+17
1.352625e+17
1.316571e+17
1.263918e+17
1.104081e+17
1.126061e+17
1.322621e+17
1.708733e+17
1.764291e+17
1.82934e+17
1.90226e+17
1.960141e+17
1.96025e+17
1.902672e+17
1.82965e+17
1.764357e+17
1.708645e+17
1.322566e+17
1.126189e+17
1.15258e+17
1.67917e+17
1.77384e+17
1.913995e+17
2.048196e+17
2.160495e+17
2.309261e+17
2.43102e+17
2.431103e+17
2.30957e+17
2.160429e+17
2.047942e+17
1.913989e+17
1.773894e+17
1.679608e+17
1.153085e+17
1.164039e+17
1.710712e+17
1.867251e+17
2.040272e+17
2.220711e+17
2.483146e+17
2.810031e+17
3.145815e+17
3.263115e+17
3.263126e+17
3.145584e+17
2.80992e+17
2.483266e+17
2.221019e+17
2.040598e+17
1.86761e+17
1.71087e+17
1.164549e+17
1.152494e+17
1.710494e+17
1.886501e+17
2.089546e+17
2.433631e+17
2.850637e+17
3.31081e+17
3.641941e+17
3.888989e+17
4.287716e+17
4.287642e+17
3.889042e+17
3.641908e+17
3.310603e+17
2.85077e+17
2.433626e+17
2.089801e+17
1.886589e+17
1.710561e+17
1.152835e+17
1.126105e+17
1.679569e+17
1.867367e+17
2.089734e+17
2.563396e+17
3.205926e+17
3.639562e+17
3.996626e+17
4.569628e+17
4.825999e+17
4.977341e+17
4.977232e+17
4.825727e+17
4.569218e+17
3.996256e+17
3.639078e+17
3.205173e+17
2.562897e+17
2.089256e+17
1.867095e+17
1.679462e+17
1.126284e+17
1.322243e+17
1.773745e+17
2.040379e+17
2.433807e+17
3.205969e+17
3.813557e+17
4.500766e+17
4.88042e+17
5.176885e+17
5.359818e+17
5.452988e+17
5.452846e+17
5.359369e+17
5.176274e+17
4.87967e+17
4.499795e+17
3.812532e+17
3.204982e+17
2.432981e+17
2.039974e+17
1.773604e+17
1.322267e+17
1.103607e+17
1.708528e+17
1.913783e+17
2.220908e+17
2.850786e+17
3.640149e+17
4.501034e+17
5.01644e+17
5.348266e+17
5.577529e+17
5.723024e+17
5.794784e+17
5.794621e+17
5.722494e+17
5.576804e+17
5.347358e+17
5.01534e+17
4.499911e+17
3.639251e+17
2.850319e+17
2.220626e+17
1.913494e+17
1.708112e+17
1.103307e+17
1.263536e+17
1.764601e+17
2.048098e+17
2.483653e+17
3.311834e+17
3.997643e+17
4.881082e+17
5.348602e+17
5.649359e+17
5.85203e+17
5.980083e+17
6.042451e+17
6.042281e+17
5.979582e+17
5.851289e+17
5.648361e+17
5.347421e+17
4.879835e+17
3.996558e+17
3.310944e+17
2.482735e+17
2.047684e+17
1.764022e+17
1.263165e+17
1.316264e+17
1.829835e+17
2.160526e+17
2.810116e+17
3.643214e+17
4.570801e+17
5.177819e+17
5.578189e+17
5.852417e+17
6.040459e+17
6.159755e+17
6.218044e+17
6.217875e+17
6.159291e+17
6.039668e+17
5.851349e+17
5.576988e+17
5.176501e+17
4.569324e+17
3.641448e+17
2.809597e+17
2.16026e+17
1.829103e+17
1.315865e+17
1.352323e+17
1.902778e+17
2.309945e+17
3.146782e+17
3.890475e+17
4.827511e+17
5.361106e+17
5.724114e+17
5.980933e+17
6.160264e+17
6.274201e+17
6.330014e+17
6.329779e+17
6.273664e+17
6.159394e+17
5.979871e+17
5.722967e+17
5.359858e+17
4.826106e+17
3.889014e+17
3.145938e+17
2.309092e+17
1.902053e+17
1.352062e+17
1.374796e+17
1.960179e+17
2.431271e+17
3.26412e+17
4.289255e+17
4.979021e+17
5.45464e+17
5.796319e+17
6.043767e+17
6.219082e+17
6.330622e+17
6.385598e+17
6.385101e+17
6.329956e+17
6.218248e+17
6.042812e+17
5.795261e+17
5.453495e+17
4.977824e+17
4.288043e+17
3.263306e+17
2.430755e+17
1.959805e+17
1.374632e+17
1.374634e+17
1.959822e+17
2.430844e+17
3.263826e+17
4.289298e+17
4.979211e+17
5.454862e+17
5.796569e+17
6.044051e+17
6.219372e+17
6.331006e+17
6.386221e+17
6.385703e+17
6.330373e+17
6.218599e+17
6.043127e+17
5.795566e+17
5.453801e+17
4.978162e+17
4.28833e+17
3.263127e+17
2.430419e+17
1.959524e+17
1.374435e+17
1.351957e+17
1.902348e+17
2.309914e+17
3.147e+17
3.890384e+17
4.827931e+17
5.361786e+17
5.724919e+17
5.981832e+17
6.161252e+17
6.27535e+17
6.331361e+17
6.33102e+17
6.274778e+17
6.160479e+17
5.980891e+17
5.723912e+17
5.360764e+17
4.827017e+17
3.889759e+17
3.1463e+17
2.309417e+17
1.902077e+17
1.351723e+17
1.316129e+17
1.829833e+17
2.161128e+17
2.81081e+17
3.643511e+17
4.571632e+17
5.179006e+17
5.579617e+17
5.853994e+17
6.042211e+17
6.161677e+17
6.220164e+17
6.219847e+17
6.161137e+17
6.04138e+17
5.852954e+17
5.578502e+17
5.177916e+17
4.570663e+17
3.642889e+17
2.809747e+17
2.160226e+17
1.829502e+17
1.315846e+17
1.26371e+17
1.765015e+17
2.048969e+17
2.484155e+17
3.312991e+17
3.999044e+17
4.882836e+17
5.350609e+17
5.651566e+17
5.854493e+17
5.982723e+17
6.045234e+17
6.044932e+17
5.982168e+17
5.853623e+17
5.65046e+17
5.349386e+17
4.881562e+17
3.997618e+17
3.31163e+17
2.483302e+17
2.047901e+17
1.764482e+17
1.263312e+17
1.103902e+17
1.709329e+17
1.914831e+17
2.221707e+17
2.852376e+17
3.641962e+17
4.503311e+17
5.019014e+17
5.351117e+17
5.580616e+17
5.726323e+17
5.797986e+17
5.7977e+17
5.725646e+17
5.579616e+17
5.349847e+17
5.017604e+17
4.501791e+17
3.640233e+17
2.850708e+17
2.220678e+17
1.913612e+17
1.708526e+17
1.1035e+17
1.323317e+17
1.774773e+17
2.041292e+17
2.435122e+17
3.208017e+17
3.815944e+17
4.503648e+17
4.883673e+17
5.180315e+17
5.363432e+17
5.456216e+17
5.455969e+17
5.362709e+17
5.179221e+17
4.882246e+17
4.502106e+17
3.814309e+17
3.206152e+17
2.433507e+17
2.040241e+17
1.773508e+17
1.322066e+17
1.12702e+17
1.680341e+17
1.868314e+17
2.090872e+17
2.564983e+17
3.20803e+17
3.642331e+17
3.999888e+17
4.573022e+17
4.829651e+17
4.980661e+17
4.98055e+17
4.828992e+17
4.571941e+17
3.998343e+17
3.640863e+17
3.206567e+17
2.563357e+17
2.089394e+17
1.867236e+17
1.679218e+17
1.125663e+17
1.153397e+17
1.711957e+17
1.887792e+17
2.09058e+17
2.434732e+17
2.852274e+17
3.313555e+17
3.644729e+17
3.891777e+17
4.290298e+17
4.290322e+17
3.891295e+17
3.643681e+17
3.312001e+17
2.851012e+17
2.433545e+17
2.089317e+17
1.886494e+17
1.710801e+17
1.152305e+17
1.164834e+17
1.711633e+17
1.868042e+17
2.041202e+17
2.221662e+17
2.483746e+17
2.810882e+17
3.147715e+17
3.264711e+17
3.264632e+17
3.146992e+17
2.810041e+17
2.483117e+17
2.220533e+17
2.039952e+17
1.866858e+17
1.710574e+17
1.164007e+17
1.152731e+17
1.679987e+17
1.774304e+17
1.91413e+17
2.048169e+17
2.160883e+17
2.309996e+17
2.43141e+17
2.431293e+17
2.309568e+17
2.160049e+17
2.04761e+17
1.913648e+17
1.773567e+17
1.679046e+17
1.15206e+17
1.126433e+17
1.322596e+17
1.708768e+17
1.764643e+17
1.829784e+17
1.90255e+17
1.960243e+17
1.960214e+17
1.90237e+17
1.829332e+17
1.764074e+17
1.708606e+17
1.322352e+17
1.126008e+17
1.103209e+17
1.263075e+17
1.315674e+17
1.351706e+17
1.374416e+17
1.374398e+17
1.351932e+17
1.315901e+17
1.263172e+17
1.103083e+17
9.33994e+16
1.067217e+17
1.099707e+17
1.112076e+17
1.111881e+17
1.099132e+17
1.066168e+17
9.333457e+16
9.327407e+16
1.129362e+17
1.240765e+17
1.585134e+17
1.64521e+17
1.680338e+17
1.696296e+17
1.696103e+17
1.679714e+17
1.644228e+17
1.584923e+17
1.240959e+17
1.129808e+17
9.337642e+16
1.031099e+17
1.534895e+17
1.685776e+17
1.867207e+17
2.064842e+17
2.155562e+17
2.211144e+17
2.237175e+17
2.237004e+17
2.210637e+17
2.154773e+17
2.064057e+17
1.866951e+17
1.685823e+17
1.535217e+17
1.032195e+17
9.644737e+16
1.210973e+17
1.653092e+17
1.979953e+17
2.334979e+17
2.74215e+17
2.944315e+17
3.06095e+17
3.13843e+17
3.178569e+17
3.178315e+17
3.137699e+17
3.059823e+17
2.942939e+17
2.740859e+17
2.334338e+17
1.980098e+17
1.653053e+17
1.211411e+17
9.647856e+16
9.737447e+16
1.50263e+17
1.752169e+17
2.202097e+17
2.793284e+17
3.205747e+17
3.550871e+17
4.093914e+17
4.347045e+17
4.496176e+17
4.570339e+17
4.570073e+17
4.495472e+17
4.346062e+17
4.092915e+17
3.550413e+17
3.205366e+17
2.792763e+17
2.20159e+17
1.752462e+17
1.502482e+17
9.738755e+16
9.644612e+16
1.50294e+17
1.811299e+17
2.293458e+17
3.002441e+17
3.518228e+17
4.217038e+17
4.668515e+17
5.060395e+17
5.35168e+17
5.549945e+17
5.648725e+17
5.648446e+17
5.549271e+17
5.350451e+17
5.058802e+17
4.666959e+17
4.215429e+17
3.516904e+17
3.001458e+17
2.2933e+17
1.810892e+17
1.502529e+17
9.645346e+16
1.211376e+17
1.752556e+17
2.293652e+17
3.05123e+17
3.638758e+17
4.461961e+17
5.065019e+17
5.556581e+17
5.977386e+17
6.318128e+17
6.562916e+17
6.663147e+17
6.662813e+17
6.561912e+17
6.316637e+17
5.975744e+17
5.554989e+17
5.063325e+17
4.460375e+17
3.637357e+17
3.049715e+17
2.293004e+17
1.752301e+17
1.21135e+17
1.032047e+17
1.653142e+17
2.20192e+17
3.003e+17
3.638673e+17
4.535665e+17
5.250452e+17
5.878574e+17
6.420949e+17
6.880826e+17
7.223313e+17
7.467142e+17
7.60766e+17
7.607337e+17
7.466215e+17
7.221897e+17
6.879107e+17
6.419085e+17
5.87659e+17
5.248724e+17
4.533996e+17
3.63744e+17
3.001831e+17
2.201451e+17
1.652878e+17
1.031736e+17
9.329368e+16
1.535163e+17
1.98009e+17
2.793383e+17
3.519307e+17
4.462908e+17
5.250967e+17
5.994451e+17
6.672343e+17
7.22353e+17
7.677857e+17
8.056531e+17
8.322929e+17
8.467002e+17
8.466676e+17
8.321997e+17
8.055129e+17
7.676118e+17
7.221424e+17
6.670027e+17
5.992282e+17
5.248817e+17
4.460959e+17
3.517746e+17
2.791839e+17
1.979837e+17
1.534728e+17
9.325508e+16
1.129689e+17
1.686057e+17
2.334766e+17
3.206757e+17
4.218129e+17
5.066287e+17
5.879259e+17
6.67258e+17
7.348459e+17
7.944283e+17
8.425912e+17
8.800069e+17
9.051474e+17
9.179838e+17
9.179501e+17
9.050522e+17
8.798662e+17
8.424131e+17
7.94214e+17
7.346112e+17
6.670192e+17
5.876887e+17
5.064167e+17
4.21628e+17
3.204763e+17
2.334416e+17
1.68584e+17
1.129306e+17
1.240787e+17
1.866931e+17
2.741354e+17
3.552527e+17
4.669951e+17
5.558098e+17
6.421873e+17
7.224277e+17
7.944714e+17
8.562391e+17
9.041895e+17
9.395499e+17
9.628269e+17
9.744338e+17
9.744007e+17
9.627323e+17
9.394097e+17
9.040133e+17
8.560327e+17
7.942493e+17
7.222043e+17
6.419743e+17
5.556075e+17
4.668195e+17
3.55073e+17
2.741573e+17
1.867101e+17
1.240604e+17
9.339216e+16
1.585326e+17
2.064092e+17
2.943833e+17
4.095514e+17
5.062212e+17
5.979225e+17
6.882588e+17
7.679397e+17
8.426999e+17
9.042488e+17
9.51007e+17
9.847214e+17
1.006638e+18
1.017452e+18
1.017421e+18
1.006547e+18
9.845822e+17
9.508309e+17
9.040453e+17
8.424795e+17
7.677146e+17
6.880396e+17
5.977079e+17
5.06039e+17
4.093897e+17
2.944073e+17
2.064461e+17
1.584737e+17
9.336592e+16
1.066481e+17
1.644707e+17
2.155231e+17
3.061195e+17
4.348865e+17
5.353934e+17
6.320169e+17
7.225595e+17
8.058652e+17
8.801805e+17
9.396782e+17
9.847945e+17
1.017223e+18
1.038245e+18
1.0486e+18
1.048568e+18
1.038154e+18
1.017082e+18
9.846175e+17
9.394785e+17
8.799644e+17
8.056373e+17
7.22334e+17
6.318391e+17
5.352149e+17
4.347354e+17
3.060981e+17
2.155208e+17
1.644659e+17
1.066541e+17
1.099346e+17
1.680104e+17
2.21117e+17
3.139358e+17
4.498443e+17
5.55285e+17
6.565803e+17
7.470068e+17
8.325711e+17
9.053925e+17
9.630342e+17
1.006797e+18
1.038336e+18
1.058786e+18
1.068851e+18
1.068813e+18
1.058685e+18
1.038187e+18
1.00662e+18
9.628433e+17
9.051919e+17
8.323612e+17
7.468018e+17
6.564014e+17
5.550985e+17
4.496974e+17
3.138744e+17
2.210951e+17
1.679954e+17
1.099201e+17
1.112174e+17
1.696685e+17
2.237746e+17
3.180127e+17
4.57305e+17
5.651921e+17
6.666586e+17
7.611182e+17
8.470457e+17
9.183074e+17
9.747274e+17
1.017702e+18
1.048789e+18
1.068956e+18
1.078881e+18
1.078832e+18
1.068843e+18
1.048634e+18
1.017527e+18
9.745454e+17
9.181232e+17
8.468596e+17
7.609359e+17
6.664927e+17
5.650324e+17
4.571636e+17
3.179226e+17
2.237174e+17
1.696158e+17
1.111872e+17
1.112317e+17
1.69688e+17
2.237951e+17
3.180417e+17
4.573221e+17
5.652019e+17
6.666761e+17
7.611464e+17
8.470868e+17
9.183575e+17
9.747834e+17
1.017763e+18
1.048852e+18
1.069026e+18
1.07896e+18
1.07891e+18
1.068913e+18
1.0487e+18
1.017591e+18
9.746077e+17
9.181855e+17
8.469213e+17
7.609871e+17
6.665224e+17
5.650562e+17
4.571836e+17
3.179276e+17
2.23715e+17
1.696159e+17
1.111927e+17
1.099886e+17
1.680867e+17
2.211906e+17
3.140261e+17
4.499019e+17
5.553556e+17
6.566844e+17
7.471087e+17
8.326973e+17
9.055448e+17
9.632048e+17
1.006981e+18
1.038533e+18
1.058996e+18
1.069073e+18
1.06903e+18
1.058891e+18
1.038386e+18
1.006814e+18
9.630352e+17
9.053822e+17
8.325457e+17
7.469632e+17
6.565288e+17
5.552129e+17
4.497583e+17
3.138682e+17
2.21085e+17
1.679984e+17
1.099385e+17
1.067505e+17
1.645932e+17
2.156447e+17
3.062825e+17
4.349959e+17
5.355391e+17
6.322159e+17
7.227636e+17
8.060924e+17
8.804406e+17
9.399673e+17
9.851076e+17
1.017558e+18
1.038599e+18
1.048965e+18
1.048926e+18
1.038502e+18
1.017419e+18
9.849456e+17
9.398016e+17
8.802809e+17
8.059392e+17
7.226105e+17
6.320436e+17
5.353836e+17
4.348377e+17
3.0606e+17
2.155073e+17
1.644916e+17
1.066902e+17
9.350797e+16
1.586414e+17
2.06606e+17
2.94646e+17
4.0971e+17
5.064391e+17
5.981617e+17
6.885556e+17
7.682736e+17
8.430719e+17
9.04656e+17
9.51447e+17
9.851916e+17
1.007129e+18
1.017949e+18
1.017913e+18
1.007039e+18
9.850598e+17
9.512906e+17
9.044909e+17
8.429045e+17
7.681031e+17
6.883939e+17
5.980174e+17
5.062731e+17
4.095522e+17
2.943637e+17
2.064461e+17
1.585596e+17
9.344192e+16
1.241884e+17
1.868909e+17
2.744563e+17
3.554114e+17
4.6727e+17
5.560852e+17
6.425517e+17
7.228491e+17
7.949382e+17
8.567501e+17
9.047445e+17
9.4014e+17
9.634359e+17
9.750284e+17
9.749944e+17
9.633454e+17
9.400074e+17
9.04586e+17
8.565803e+17
7.947598e+17
7.226633e+17
6.423903e+17
5.559427e+17
4.67079e+17
3.5529e+17
2.741428e+17
1.867154e+17
1.241027e+17
1.130294e+17
1.687542e+17
2.337335e+17
3.209052e+17
4.221299e+17
5.069283e+17
5.882999e+17
6.677206e+17
7.353647e+17
7.950089e+17
8.432326e+17
8.806857e+17
9.058416e+17
9.186472e+17
9.186151e+17
9.057496e+17
8.805474e+17
8.43067e+17
7.948376e+17
7.351884e+17
6.675357e+17
5.881406e+17
5.067645e+17
4.219075e+17
3.207735e+17
2.335012e+17
1.686232e+17
1.129856e+17
9.330886e+16
1.53679e+17
1.982291e+17
2.795874e+17
3.522171e+17
4.465937e+17
5.254653e+17
5.999028e+17
6.677623e+17
7.229624e+17
7.684756e+17
8.063776e+17
8.330342e+17
8.474163e+17
8.473904e+17
8.329457e+17
8.062355e+17
7.683032e+17
7.22798e+17
6.676006e+17
5.997382e+17
5.2531e+17
4.464212e+17
3.519742e+17
2.794559e+17
1.980303e+17
1.535328e+17
9.33178e+16
1.032156e+17
1.654607e+17
2.204001e+17
3.005032e+17
3.64172e+17
4.539265e+17
5.254845e+17
5.883569e+17
6.426717e+17
6.887516e+17
7.230382e+17
7.474358e+17
7.614673e+17
7.614486e+17
7.473594e+17
7.229038e+17
6.885884e+17
6.425227e+17
5.882099e+17
5.253367e+17
4.537889e+17
3.640407e+17
3.003834e+17
2.202634e+17
1.653362e+17
1.031685e+17
1.212072e+17
1.753974e+17
2.295474e+17
3.053641e+17
3.641467e+17
4.466171e+17
5.069971e+17
5.562058e+17
5.983115e+17
6.324307e+17
6.569652e+17
6.669923e+17
6.669713e+17
6.56894e+17
6.32324e+17
5.981962e+17
5.560657e+17
5.068537e+17
4.464827e+17
3.64037e+17
3.052462e+17
2.2942e+17
1.752666e+17
1.211183e+17
9.653935e+16
1.504141e+17
1.812725e+17
2.295246e+17
3.005499e+17
3.522114e+17
4.221083e+17
4.673133e+17
5.065408e+17
5.357081e+17
5.555724e+17
5.654477e+17
5.654296e+17
5.555344e+17
5.356333e+17
5.064485e+17
4.672269e+17
4.220476e+17
3.521315e+17
3.004555e+17
2.294338e+17
1.81176e+17
1.503185e+17
9.646677e+16
9.74283e+16
1.504084e+17
1.753996e+17
2.203396e+17
2.794867e+17
3.207824e+17
3.554075e+17
4.097381e+17
4.350582e+17
4.499983e+17
4.574202e+17
4.574045e+17
4.500068e+17
4.350734e+17
4.097347e+17
3.553704e+17
3.208085e+17
2.7951e+17
2.20319e+17
1.753357e+17
1.503421e+17
9.738131e+16
9.652117e+16
1.212146e+17
1.653903e+17
1.981177e+17
2.335661e+17
2.74296e+17
2.944803e+17
3.061344e+17
3.139316e+17
3.181158e+17
3.18077e+17
3.140077e+17
3.06249e+17
2.945884e+17
2.74383e+17
2.336194e+17
1.981186e+17
1.653809e+17
1.211633e+17
9.649589e+16
1.031762e+17
1.535466e+17
1.686423e+17
1.867517e+17
2.064523e+17
2.154974e+17
2.210743e+17
2.23761e+17
2.237181e+17
2.211078e+17
2.155393e+17
2.064893e+17
1.867592e+17
1.686204e+17
1.535869e+17
1.031598e+17
9.324877e+16
1.129639e+17
1.240805e+17
1.58536e+17
1.644624e+17
1.679758e+17
1.696898e+17
1.696737e+17
1.679727e+17
1.644521e+17
1.585497e+17
1.240759e+17
1.129361e+17
9.328252e+16
9.341077e+16
1.066447e+17
1.098915e+17
1.111914e+17
1.111817e+17
1.09879e+17
1.066178e+17
9.334433e+16
8.295398e+16
9.419459e+16
9.665682e+16
9.663427e+16
9.412416e+16
8.292385e+16
7.953288e+16
1.000023e+17
1.123759e+17
1.268001e+17
1.596602e+17
1.666292e+17
1.692843e+17
1.692253e+17
1.664805e+17
1.594971e+17
1.268131e+17
1.124377e+17
1.000602e+17
7.963637e+16
8.014561e+16
1.051679e+17
1.489072e+17
1.751641e+17
1.984299e+17
2.326778e+17
2.512907e+17
2.589334e+17
2.626472e+17
2.625659e+17
2.587297e+17
2.511065e+17
2.326354e+17
1.984077e+17
1.75108e+17
1.4894e+17
1.052658e+17
8.028593e+16
8.997868e+16
1.433664e+17
1.812441e+17
2.35541e+17
2.666537e+17
2.974939e+17
3.252824e+17
3.713348e+17
3.890349e+17
3.960878e+17
3.960096e+17
3.888278e+17
3.71081e+17
3.250713e+17
2.972738e+17
2.664784e+17
2.353307e+17
1.812812e+17
1.434025e+17
9.010766e+16
9.668243e+16
1.599753e+17
2.10091e+17
2.715606e+17
3.198519e+17
3.860861e+17
4.290887e+17
4.621177e+17
4.897319e+17
5.066725e+17
5.14479e+17
5.144046e+17
5.064664e+17
4.894451e+17
4.618212e+17
4.288299e+17
3.858829e+17
3.196994e+17
2.713737e+17
2.100817e+17
1.599523e+17
9.673362e+16
1.004533e+17
1.737062e+17
2.43994e+17
2.975443e+17
3.505918e+17
4.373502e+17
4.996101e+17
5.489092e+17
5.838276e+17
6.102934e+17
6.274493e+17
6.357612e+17
6.356894e+17
6.272467e+17
6.099959e+17
5.834819e+17
5.48555e+17
4.992981e+17
4.371395e+17
3.504441e+17
2.973392e+17
2.438203e+17
1.736058e+17
1.004311e+17
9.671947e+16
1.737359e+17
2.551741e+17
3.173901e+17
4.05176e+17
4.779314e+17
5.50874e+17
6.116765e+17
6.622191e+17
7.048173e+17
7.361251e+17
7.561093e+17
7.658218e+17
7.657536e+17
7.559187e+17
7.358478e+17
7.04497e+17
6.618896e+17
6.113457e+17
5.505663e+17
4.776241e+17
4.048948e+17
3.171422e+17
2.548642e+17
1.73609e+17
9.668801e+16
9.004291e+16
1.600071e+17
2.440956e+17
3.174049e+17
4.158705e+17
5.022781e+17
5.827332e+17
6.538345e+17
7.203698e+17
7.768525e+17
8.232893e+17
8.57677e+17
8.799961e+17
8.908871e+17
8.908216e+17
8.798139e+17
8.574003e+17
8.229536e+17
7.764903e+17
7.199887e+17
6.534547e+17
5.823538e+17
5.019247e+17
4.155407e+17
3.171486e+17
2.438694e+17
1.599245e+17
9.001521e+16
8.020834e+16
1.434115e+17
2.102349e+17
2.976121e+17
4.052574e+17
5.02339e+17
5.936973e+17
6.748844e+17
7.535387e+17
8.250535e+17
8.854326e+17
9.345228e+17
9.716111e+17
9.959483e+17
1.0075e+18
1.007434e+18
9.957588e+17
9.713273e+17
9.341839e+17
8.850638e+17
8.246581e+17
7.53131e+17
6.744623e+17
5.932631e+17
5.019466e+17
4.049263e+17
2.973816e+17
2.101243e+17
1.433472e+17
8.017931e+16
1.052397e+17
1.813883e+17
2.715824e+17
3.508114e+17
4.780775e+17
5.828678e+17
6.74961e+17
7.642908e+17
8.479952e+17
9.225947e+17
9.860646e+17
1.037467e+18
1.076402e+18
1.102619e+18
1.115986e+18
1.115922e+18
1.102434e+18
1.076126e+18
1.037133e+18
9.856921e+17
9.221937e+17
8.47584e+17
7.638651e+17
6.745292e+17
5.82442e+17
4.777052e+17
3.505315e+17
2.714302e+17
1.81302e+17
1.052232e+17
7.96181e+16
1.489533e+17
2.35539e+17
3.199841e+17
4.376194e+17
5.510947e+17
6.540509e+17
7.537037e+17
8.48077e+17
9.347032e+17
1.011631e+18
1.077234e+18
1.130865e+18
1.172642e+18
1.20133e+18
1.216084e+18
1.216023e+18
1.201157e+18
1.172383e+18
1.130548e+18
1.076869e+18
1.011234e+18
9.342906e+17
8.476456e+17
7.532639e+17
6.536136e+17
5.506743e+17
4.372696e+17
3.196624e+17
2.354391e+17
1.488939e+17
7.964716e+16
9.999485e+16
1.751747e+17
2.666715e+17
3.863322e+17
4.998719e+17
6.119544e+17
7.206335e+17
8.252765e+17
9.227312e+17
1.011687e+18
1.090505e+18
1.15914e+18
1.215707e+18
1.259381e+18
1.289019e+18
1.304041e+18
1.303985e+18
1.28886e+18
1.259144e+18
1.215414e+18
1.158803e+18
1.090134e+18
1.011294e+18
9.223173e+17
8.248549e+17
7.202084e+17
6.115235e+17
4.99508e+17
3.859577e+17
2.664622e+17
1.750867e+17
9.999521e+16
1.12421e+17
1.985127e+17
2.976489e+17
4.294137e+17
5.491809e+17
6.625605e+17
7.771731e+17
8.857054e+17
9.86252e+17
1.077351e+18
1.1592e+18
1.230585e+18
1.288835e+18
1.333016e+18
1.362632e+18
1.377485e+18
1.377435e+18
1.362488e+18
1.332801e+18
1.28857e+18
1.230283e+18
1.158869e+18
1.076999e+18
9.858823e+17
8.853241e+17
7.767841e+17
6.621571e+17
5.488336e+17
4.290108e+17
2.973287e+17
1.983069e+17
1.123221e+17
1.268777e+17
2.329399e+17
3.25626e+17
4.625029e+17
5.841689e+17
7.052069e+17
8.236683e+17
9.348514e+17
1.03773e+18
1.131066e+18
1.215846e+18
1.288911e+18
1.347773e+18
1.391842e+18
1.421116e+18
1.435706e+18
1.435659e+18
1.420983e+18
1.391642e+18
1.347528e+18
1.288636e+18
1.215546e+18
1.130747e+18
1.037398e+18
9.345072e+17
8.233143e+17
7.048441e+17
5.838317e+17
4.620972e+17
3.252096e+17
2.325176e+17
1.266994e+17
8.301439e+16
1.597174e+17
2.515873e+17
3.717489e+17
4.901705e+17
6.107195e+17
7.365789e+17
8.581266e+17
9.720074e+17
1.076748e+18
1.172933e+18
1.259613e+18
1.333188e+18
1.39194e+18
1.43564e+18
1.46454e+18
1.478905e+18
1.478859e+18
1.464411e+18
1.435445e+18
1.391706e+18
1.332931e+18
1.259339e+18
1.172644e+18
1.076451e+18
9.717092e+17
8.578066e+17
7.36247e+17
6.103786e+17
4.897545e+17
3.712772e+17
2.511491e+17
1.594941e+17
8.290203e+16
9.417876e+16
1.667158e+17
2.592111e+17
3.894722e+17
5.071661e+17
6.279715e+17
7.566552e+17
8.805415e+17
9.964494e+17
1.10307e+18
1.201728e+18
1.289362e+18
1.362919e+18
1.421334e+18
1.464664e+18
1.493265e+18
1.50746e+18
1.507409e+18
1.493125e+18
1.46446e+18
1.421099e+18
1.362675e+18
1.289112e+18
1.20147e+18
1.102807e+18
9.961802e+17
8.802474e+17
7.563456e+17
6.276367e+17
5.067782e+17
3.890429e+17
2.588369e+17
1.665094e+17
9.4139e+16
9.66907e+16
1.694268e+17
2.629381e+17
3.965868e+17
5.150694e+17
6.363984e+17
7.664803e+17
8.915386e+17
1.008117e+18
1.116558e+18
1.216606e+18
1.304512e+18
1.377904e+18
1.436058e+18
1.479168e+18
1.507605e+18
1.521708e+18
1.52165e+18
1.507451e+18
1.478952e+18
1.435818e+18
1.377665e+18
1.304278e+18
1.216373e+18
1.11632e+18
1.007871e+18
8.912709e+17
7.661888e+17
6.360774e+17
5.147158e+17
3.962308e+17
2.626834e+17
1.692833e+17
9.666334e+16
9.670005e+16
1.694572e+17
2.630068e+17
3.966327e+17
5.151186e+17
6.364497e+17
7.665309e+17
8.915902e+17
1.008176e+18
1.116624e+18
1.216682e+18
1.304597e+18
1.377996e+18
1.436155e+18
1.479269e+18
1.507709e+18
1.521814e+18
1.521754e+18
1.507549e+18
1.479047e+18
1.435912e+18
1.377758e+18
1.304372e+18
1.216464e+18
1.116404e+18
1.007945e+18
8.913409e+17
7.662541e+17
6.361422e+17
5.147958e+17
3.963201e+17
2.627707e+17
1.693421e+17
9.669486e+16
9.425249e+16
1.667838e+17
2.592827e+17
3.895614e+17
5.072957e+17
6.281197e+17
7.568026e+17
8.807029e+17
9.966395e+17
1.103277e+18
1.201959e+18
1.289618e+18
1.363198e+18
1.421629e+18
1.464971e+18
1.49358e+18
1.507777e+18
1.507719e+18
1.493424e+18
1.464752e+18
1.421388e+18
1.362964e+18
1.289401e+18
1.201751e+18
1.103067e+18
9.964144e+17
8.804627e+17
7.565313e+17
6.278133e+17
5.070023e+17
3.892926e+17
2.590816e+17
1.666841e+17
9.423752e+16
8.311876e+16
1.597173e+17
2.515946e+17
3.718457e+17
4.903495e+17
6.109569e+17
7.36818e+17
8.583988e+17
9.723309e+17
1.077106e+18
1.173326e+18
1.260046e+18
1.333657e+18
1.392439e+18
1.43616e+18
1.465072e+18
1.479439e+18
1.479385e+18
1.464926e+18
1.435952e+18
1.392208e+18
1.333433e+18
1.259836e+18
1.173123e+18
1.076899e+18
9.721073e+17
8.581605e+17
7.365447e+17
6.106389e+17
4.900853e+17
3.716294e+17
2.514622e+17
1.596591e+17
8.309798e+16
1.269322e+17
2.328879e+17
3.257447e+17
4.627251e+17
5.844946e+17
7.055309e+17
8.240471e+17
9.352841e+17
1.038225e+18
1.131617e+18
1.216452e+18
1.289567e+18
1.348472e+18
1.392572e+18
1.421863e+18
1.436455e+18
1.436406e+18
1.421729e+18
1.39238e+18
1.348257e+18
1.289355e+18
1.216248e+18
1.131418e+18
1.038027e+18
9.350776e+17
8.238116e+17
7.052645e+17
5.84167e+17
4.624937e+17
3.255777e+17
2.328383e+17
1.268639e+17
1.124721e+17
1.986079e+17
2.97813e+17
4.29632e+17
5.495597e+17
6.629436e+17
7.77639e+17
8.862245e+17
9.868535e+17
1.078032e+18
1.159952e+18
1.231404e+18
1.289711e+18
1.333936e+18
1.363574e+18
1.378427e+18
1.378381e+18
1.363447e+18
1.333754e+18
1.289507e+18
1.2312e+18
1.159753e+18
1.077836e+18
9.866651e+17
8.86024e+17
7.774006e+17
6.626991e+17
5.492383e+17
4.29443e+17
2.976523e+17
1.984878e+17
1.123831e+17
1.001187e+17
1.753538e+17
2.669237e+17
3.865432e+17
5.002293e+17
6.123891e+17
7.211587e+17
8.258522e+17
9.233929e+17
1.012449e+18
1.091354e+18
1.160076e+18
1.21672e+18
1.260448e+18
1.290113e+18
1.305134e+18
1.30509e+18
1.289987e+18
1.260267e+18
1.216517e+18
1.159876e+18
1.091162e+18
1.012259e+18
9.232077e+17
8.256457e+17
7.20915e+17
6.121661e+17
4.999751e+17
3.864071e+17
2.667129e+17
1.751878e+17
1.000006e+17
7.971991e+16
1.490916e+17
2.358606e+17
3.201605e+17
4.37881e+17
5.515098e+17
6.545711e+17
7.542981e+17
8.487685e+17
9.355061e+17
1.012536e+18
1.078241e+18
1.131964e+18
1.173801e+18
1.202522e+18
1.217283e+18
1.217241e+18
1.202399e+18
1.173618e+18
1.131759e+18
1.078042e+18
1.012348e+18
9.353226e+17
8.485869e+17
7.540979e+17
6.543504e+17
5.51344e+17
4.377303e+17
3.200942e+17
2.355602e+17
1.489815e+17
7.96306e+16
1.053196e+17
1.814979e+17
2.718552e+17
3.509417e+17
4.784556e+17
5.833471e+17
6.755477e+17
7.649921e+17
8.488168e+17
9.235224e+17
9.870938e+17
1.038589e+18
1.077587e+18
1.103841e+18
1.117225e+18
1.117187e+18
1.103727e+18
1.077414e+18
1.038392e+18
9.869034e+17
9.23341e+17
8.48642e+17
7.648252e+17
6.753831e+17
5.831961e+17
4.783301e+17
3.508993e+17
2.717131e+17
1.813865e+17
1.052388e+17
8.023248e+16
1.435388e+17
2.104001e+17
2.979563e+17
4.056625e+17
5.02802e+17
5.942666e+17
6.755769e+17
7.543616e+17
8.259803e+17
8.864502e+17
9.356114e+17
9.727602e+17
9.971482e+17
1.008729e+18
1.008694e+18
9.970489e+17
9.726127e+17
9.354441e+17
8.862794e+17
8.258171e+17
7.54203e+17
6.754261e+17
5.941154e+17
5.02643e+17
4.054885e+17
2.977852e+17
2.102684e+17
1.434599e+17
8.022889e+16
9.00716e+16
1.601887e+17
2.44376e+17
3.176894e+17
4.162415e+17
5.027909e+17
5.833893e+17
6.546145e+17
7.212203e+17
7.777908e+17
8.242979e+17
8.587402e+17
8.811083e+17
8.920284e+17
8.919994e+17
8.810377e+17
8.586345e+17
8.241748e+17
7.776739e+17
7.211191e+17
6.544948e+17
5.83261e+17
5.026809e+17
4.161374e+17
3.17604e+17
2.441854e+17
1.600803e+17
9.005828e+16
9.676635e+16
1.738646e+17
2.55491e+17
3.17634e+17
4.056342e+17
4.784713e+17
5.515128e+17
6.12374e+17
6.630074e+17
7.056644e+17
7.37017e+17
7.570565e+17
7.668153e+17
7.667893e+17
7.57022e+17
7.369782e+17
7.056187e+17
6.629634e+17
6.123423e+17
5.514373e+17
4.783677e+17
4.055604e+17
3.175756e+17
2.55395e+17
1.737985e+17
9.67277e+16
1.004914e+17
1.738405e+17
2.443736e+17
2.979333e+17
3.510413e+17
4.37904e+17
5.001865e+17
5.495182e+17
5.844933e+17
6.110078e+17
6.282375e+17
6.366492e+17
6.366118e+17
6.282216e+17
6.110042e+17
5.84496e+17
5.495392e+17
5.001779e+17
4.378262e+17
3.508962e+17
2.978836e+17
2.443329e+17
1.738136e+17
1.00469e+17
9.670962e+16
1.600897e+17
2.10403e+17
2.718313e+17
3.200875e+17
3.864833e+17
4.295889e+17
4.627148e+17
4.903758e+17
5.073621e+17
5.152043e+17
5.151553e+17
5.073031e+17
4.903079e+17