/*--------------------------------*- C++ -*----------------------------------*\
  =========                 |
  \\      /  F ield         | OpenFOAM: The Open Source CFD Toolbox
   \\    /   O peration     | Website:  https://openfoam.org
    \\  /    A nd           | Version:  6
     \\/     M anipulation  |
\*---------------------------------------------------------------------------*/
FoamFile
{
    version     2.0;
    format      ascii;
    class       volScalarField;
    location    "49.8/region0/neutronTransport";
    object      discFlux0;
}
// * * * * * * * * * * * * * * * * * * * * * * * * * * * * * * * * * * * * * //

dimensions      [0 -2 -1 0 0 0 0];

internalField   nonuniform List<scalar> 
203709
(
4.351497e+16
4.717421e+16
4.717154e+16
4.352796e+16
4.537084e+16
5.001464e+16
5.986852e+16
5.94332e+16
5.94285e+16
5.986924e+16
5.001575e+16
4.537625e+16
4.437256e+16
5.017015e+16
6.068256e+16
6.076002e+16
6.239049e+16
6.28126e+16
6.281085e+16
6.238787e+16
6.075538e+16
6.067955e+16
5.016514e+16
4.436814e+16
4.437769e+16
5.901255e+16
6.047648e+16
6.278032e+16
6.400493e+16
6.505794e+16
6.552801e+16
6.552869e+16
6.505234e+16
6.399541e+16
6.277149e+16
6.046639e+16
5.900369e+16
4.436962e+16
5.017343e+16
6.047758e+16
6.31374e+16
6.504525e+16
6.648544e+16
6.752179e+16
6.803728e+16
6.803698e+16
6.75139e+16
6.647448e+16
6.503398e+16
6.312378e+16
6.046376e+16
5.016066e+16
4.5378e+16
6.068668e+16
6.278411e+16
6.504637e+16
6.700527e+16
6.855103e+16
6.96232e+16
7.015531e+16
7.015319e+16
6.96167e+16
6.854298e+16
6.699304e+16
6.503306e+16
6.277201e+16
6.067581e+16
4.536678e+16
5.001629e+16
6.07606e+16
6.400562e+16
6.648357e+16
6.855001e+16
7.015947e+16
7.123601e+16
7.174851e+16
7.17464e+16
7.123209e+16
7.015071e+16
6.853791e+16
6.647344e+16
6.399554e+16
6.074857e+16
5.000637e+16
4.352668e+16
5.987465e+16
6.239676e+16
6.506281e+16
6.752544e+16
6.962347e+16
7.123643e+16
7.225086e+16
7.275421e+16
7.275317e+16
7.224901e+16
7.122921e+16
6.961475e+16
6.751465e+16
6.504981e+16
6.238272e+16
5.986462e+16
4.350588e+16
4.717116e+16
5.943286e+16
6.281584e+16
6.553644e+16
6.804433e+16
7.015807e+16
7.175192e+16
7.275706e+16
7.329993e+16
7.328688e+16
7.275476e+16
7.175019e+16
7.015491e+16
6.803488e+16
6.552209e+16
6.280275e+16
5.941754e+16
4.715506e+16
4.717569e+16
5.944313e+16
6.282074e+16
6.553632e+16
6.804505e+16
7.016095e+16
7.175377e+16
7.276033e+16
7.331392e+16
7.329996e+16
7.275903e+16
7.175287e+16
7.015617e+16
6.803767e+16
6.552396e+16
6.280385e+16
5.942373e+16
4.716184e+16
4.351819e+16
5.988444e+16
6.240267e+16
6.506799e+16
6.753188e+16
6.963192e+16
7.124602e+16
7.226311e+16
7.276926e+16
7.276399e+16
7.225923e+16
7.124141e+16
6.962348e+16
6.752042e+16
6.505211e+16
6.238277e+16
5.985791e+16
4.350769e+16
5.001865e+16
6.076867e+16
6.401737e+16
6.649931e+16
6.856553e+16
7.017655e+16
7.125409e+16
7.177051e+16
7.176305e+16
7.124774e+16
7.016422e+16
6.85493e+16
6.647854e+16
6.399364e+16
6.074623e+16
5.000221e+16
4.53839e+16
6.069971e+16
6.27975e+16
6.506447e+16
6.702502e+16
6.857438e+16
6.964482e+16
7.018244e+16
7.017505e+16
6.963521e+16
6.855551e+16
6.700201e+16
6.503814e+16
6.277077e+16
6.067272e+16
4.536232e+16
5.018848e+16
6.049717e+16
6.316156e+16
6.507244e+16
6.651317e+16
6.755129e+16
6.809178e+16
6.808428e+16
6.753357e+16
6.64873e+16
6.504063e+16
6.312777e+16
6.046723e+16
5.01611e+16
4.439763e+16
5.904327e+16
6.050363e+16
6.280896e+16
6.402937e+16
6.5082e+16
6.557242e+16
6.556628e+16
6.506419e+16
6.400215e+16
6.277237e+16
6.046232e+16
5.900176e+16
4.435904e+16
4.43958e+16
5.01915e+16
6.070663e+16
6.077314e+16
6.240676e+16
6.283973e+16
6.28386e+16
6.23921e+16
6.075307e+16
6.067297e+16
5.01522e+16
4.4358e+16
4.538073e+16
5.001754e+16
5.987748e+16
5.945647e+16
5.945973e+16
5.986743e+16
5.000157e+16
4.535876e+16
4.351432e+16
4.716499e+16
4.71661e+16
4.350953e+16
3.657236e+16
4.093055e+16
4.252654e+16
4.362778e+16
4.43138e+16
4.431592e+16
4.363442e+16
4.253702e+16
4.094534e+16
3.659288e+16
3.723008e+16
4.266705e+16
5.250779e+16
5.431558e+16
5.620462e+16
5.81661e+16
5.970685e+16
5.970994e+16
5.817726e+16
5.621396e+16
5.431942e+16
5.250763e+16
4.266687e+16
3.723549e+16
3.811711e+16
5.170465e+16
5.469298e+16
5.868339e+16
6.234229e+16
6.534197e+16
6.878071e+16
7.173515e+16
7.173765e+16
6.87891e+16
6.534075e+16
6.233581e+16
5.868305e+16
5.469451e+16
5.171795e+16
3.813264e+16
3.849009e+16
5.267555e+16
5.731974e+16
6.21539e+16
6.707097e+16
7.343939e+16
8.109557e+16
8.702665e+16
8.961592e+16
8.961648e+16
8.702243e+16
8.109305e+16
7.344255e+16
6.707941e+16
6.216342e+16
5.73306e+16
5.268094e+16
3.850551e+16
3.811458e+16
5.266905e+16
5.787434e+16
6.350635e+16
7.211348e+16
8.219942e+16
9.12603e+16
9.896785e+16
1.046733e+17
1.141549e+17
1.141532e+17
1.046751e+17
9.896774e+16
9.12565e+16
8.220219e+16
7.211308e+16
6.351235e+16
5.787633e+16
5.267192e+16
3.812491e+16
3.723114e+16
5.171599e+16
5.732293e+16
6.351018e+16
7.495884e+16
8.858151e+16
9.893213e+16
1.074121e+17
1.211727e+17
1.273812e+17
1.310411e+17
1.310383e+17
1.273746e+17
1.211627e+17
1.074034e+17
9.892018e+16
8.856296e+16
7.494484e+16
6.349741e+16
5.731559e+16
5.171356e+16
3.72363e+16
4.265649e+16
5.469017e+16
6.215728e+16
7.21174e+16
8.858293e+16
1.028685e+17
1.194747e+17
1.28765e+17
1.360322e+17
1.405398e+17
1.428353e+17
1.428317e+17
1.405284e+17
1.360164e+17
1.287458e+17
1.194499e+17
1.028421e+17
8.85571e+16
7.209529e+16
6.214534e+16
5.468631e+16
4.265652e+16
3.657733e+16
5.250309e+16
5.867762e+16
6.70768e+16
8.220403e+16
9.894681e+16
1.194815e+17
1.320686e+17
1.402712e+17
1.459705e+17
1.496026e+17
1.513962e+17
1.51392e+17
1.495889e+17
1.459515e+17
1.402476e+17
1.3204e+17
1.194521e+17
9.89226e+16
8.218981e+16
6.706656e+16
5.866919e+16
5.248962e+16
3.65689e+16
4.093271e+16
5.432462e+16
6.234045e+16
7.345273e+16
9.128598e+16
1.074374e+17
1.287814e+17
1.402796e+17
1.477664e+17
1.528499e+17
1.56077e+17
1.576521e+17
1.576476e+17
1.560639e+17
1.528305e+17
1.477405e+17
1.40249e+17
1.287491e+17
1.074087e+17
9.126176e+16
7.34271e+16
6.232794e+16
5.430631e+16
4.092227e+16
4.252681e+16
5.621824e+16
6.534467e+16
8.109957e+16
9.899918e+16
1.212015e+17
1.36055e+17
1.459866e+17
1.528592e+17
1.576062e+17
1.606311e+17
1.621114e+17
1.62107e+17
1.606191e+17
1.575859e+17
1.528319e+17
1.459558e+17
1.360212e+17
1.211635e+17
9.895417e+16
8.108322e+16
6.533429e+16
5.619621e+16
4.251527e+16
4.362462e+16
5.817958e+16
6.879927e+16
8.705077e+16
1.047096e+17
1.274183e+17
1.405714e+17
1.496292e+17
1.560975e+17
1.606433e+17
1.635424e+17
1.649647e+17
1.649589e+17
1.635291e+17
1.606217e+17
1.560708e+17
1.495999e+17
1.405392e+17
1.273819e+17
1.046716e+17
8.702685e+16
6.877465e+16
5.815868e+16
4.361664e+16
4.430457e+16
5.970749e+16
7.174223e+16
8.963971e+16
1.141923e+17
1.310822e+17
1.42876e+17
1.51434e+17
1.576843e+17
1.621367e+17
1.649795e+17
1.663835e+17
1.663715e+17
1.649634e+17
1.621163e+17
1.576605e+17
1.514069e+17
1.428462e+17
1.310507e+17
1.1416e+17
8.961688e+16
7.172635e+16
5.969579e+16
4.429902e+16
4.430025e+16
5.969814e+16
7.173131e+16
8.963265e+16
1.141935e+17
1.310871e+17
1.428817e+17
1.514405e+17
1.576917e+17
1.621443e+17
1.649895e+17
1.663992e+17
1.663867e+17
1.64974e+17
1.621252e+17
1.576685e+17
1.514146e+17
1.428537e+17
1.310588e+17
1.14167e+17
8.961271e+16
7.171804e+16
5.968846e+16
4.429335e+16
4.361525e+16
5.816763e+16
6.879812e+16
8.70556e+16
1.04708e+17
1.274292e+17
1.405888e+17
1.4965e+17
1.561208e+17
1.60669e+17
1.635721e+17
1.64999e+17
1.649906e+17
1.635577e+17
1.606493e+17
1.560964e+17
1.496233e+17
1.405611e+17
1.274036e+17
1.046889e+17
8.70353e+16
6.878276e+16
5.815866e+16
4.360685e+16
4.252465e+16
5.621782e+16
6.536077e+16
8.111798e+16
9.900742e+16
1.212229e+17
1.360855e+17
1.460233e+17
1.528999e+17
1.576514e+17
1.606805e+17
1.621656e+17
1.621575e+17
1.606661e+17
1.576292e+17
1.528719e+17
1.459927e+17
1.360549e+17
1.211951e+17
9.898778e+16
8.108779e+16
6.533468e+16
5.62071e+16
4.251418e+16
4.09402e+16
5.433599e+16
6.23655e+16
7.346825e+16
9.131593e+16
1.074732e+17
1.288261e+17
1.40331e+17
1.478232e+17
1.529132e+17
1.561447e+17
1.577237e+17
1.577157e+17
1.561291e+17
1.528887e+17
1.477922e+17
1.402965e+17
1.2879e+17
1.074332e+17
9.12775e+16
7.344156e+16
6.233353e+16
5.431964e+16
4.092578e+16
3.6589e+16
5.252541e+16
5.870911e+16
6.710033e+16
8.224788e+16
9.899414e+16
1.1954e+17
1.321346e+17
1.403443e+17
1.460493e+17
1.496869e+17
1.514796e+17
1.514717e+17
1.496677e+17
1.460207e+17
1.403078e+17
1.320941e+17
1.194964e+17
9.894513e+16
8.219983e+16
6.706897e+16
5.867126e+16
5.250158e+16
3.657364e+16
4.268974e+16
5.472267e+16
6.218458e+16
7.21568e+16
8.863729e+16
1.029307e+17
1.195486e+17
1.288475e+17
1.361186e+17
1.406308e+17
1.429183e+17
1.429114e+17
1.406103e+17
1.360873e+17
1.288065e+17
1.195037e+17
1.028828e+17
8.858346e+16
7.210874e+16
6.215185e+16
5.468179e+16
4.265051e+16
3.726074e+16
5.174163e+16
5.735208e+16
6.354599e+16
7.500445e+16
8.863698e+16
9.900279e+16
1.074937e+17
1.212568e+17
1.274715e+17
1.311246e+17
1.311209e+17
1.274527e+17
1.212261e+17
1.0745e+17
9.895957e+16
8.859319e+16
7.495633e+16
6.350116e+16
5.731834e+16
5.170449e+16
3.721786e+16
3.814393e+16
5.27126e+16
5.791308e+16
6.353749e+16
7.21459e+16
8.224469e+16
9.132838e+16
9.903567e+16
1.047405e+17
1.142182e+17
1.142179e+17
1.047265e+17
9.900644e+16
9.12855e+16
8.220743e+16
7.210976e+16
6.349881e+16
5.787326e+16
5.267687e+16
3.810858e+16
3.851538e+16
5.270261e+16
5.734343e+16
6.218082e+16
6.709768e+16
7.345697e+16
8.11191e+16
8.707155e+16
8.965295e+16
8.965052e+16
8.705235e+16
8.10951e+16
7.343713e+16
6.706471e+16
6.214359e+16
5.730743e+16
5.267003e+16
3.848828e+16
3.812397e+16
5.172999e+16
5.470743e+16
5.868847e+16
6.234348e+16
6.535347e+16
6.880017e+16
7.17472e+16
7.174384e+16
6.878772e+16
6.532972e+16
6.232547e+16
5.867261e+16
5.468474e+16
5.170159e+16
3.810197e+16
3.724153e+16
4.266674e+16
5.250844e+16
5.432441e+16
5.621533e+16
5.817201e+16
5.970742e+16
5.970648e+16
5.816694e+16
5.620295e+16
5.430895e+16
5.250317e+16
4.265866e+16
3.722802e+16
3.656574e+16
4.0919e+16
4.250891e+16
4.360575e+16
4.429295e+16
4.429255e+16
4.361226e+16
4.251546e+16
4.092181e+16
3.656238e+16
3.106427e+16
3.465754e+16
3.563834e+16
3.602718e+16
3.602098e+16
3.562057e+16
3.462777e+16
3.104629e+16
3.099794e+16
3.647057e+16
3.970227e+16
4.828487e+16
5.009706e+16
5.11464e+16
5.162898e+16
5.162314e+16
5.112811e+16
5.006928e+16
4.828046e+16
3.970839e+16
3.648472e+16
3.102885e+16
3.404309e+16
4.689284e+16
5.119508e+16
5.575886e+16
6.087415e+16
6.335747e+16
6.489974e+16
6.563195e+16
6.562707e+16
6.488536e+16
6.333546e+16
6.085292e+16
5.575235e+16
5.119846e+16
4.690405e+16
3.407554e+16
3.196625e+16
3.892815e+16
5.031367e+16
5.863367e+16
6.730563e+16
7.554341e+16
8.044425e+16
8.345052e+16
8.547692e+16
8.653417e+16
8.65281e+16
8.545954e+16
8.342397e+16
8.041244e+16
7.551439e+16
6.728994e+16
5.863854e+16
5.031522e+16
3.894164e+16
3.19759e+16
3.226898e+16
4.610878e+16
5.30798e+16
6.408982e+16
7.682134e+16
8.676133e+16
9.506632e+16
1.082925e+17
1.14557e+17
1.182602e+17
1.201158e+17
1.201097e+17
1.182442e+17
1.145345e+17
1.0827e+17
9.505725e+16
8.67539e+16
7.681145e+16
6.40776e+16
5.308857e+16
4.610567e+16
3.227234e+16
3.196642e+16
4.611713e+16
5.467032e+16
6.6515e+16
8.199573e+16
9.427998e+16
1.11318e+17
1.224318e+17
1.320607e+17
1.39196e+17
1.439599e+17
1.463572e+17
1.463508e+17
1.439443e+17
1.39167e+17
1.320229e+17
1.223954e+17
1.112809e+17
9.425093e+16
8.197423e+16
6.651036e+16
5.465845e+16
4.610621e+16
3.196806e+16
3.894026e+16
5.309225e+16
6.651954e+16
8.325317e+16
9.730424e+16
1.173618e+17
1.321769e+17
1.442576e+17
1.54477e+17
1.626746e+17
1.682631e+17
1.706159e+17
1.706081e+17
1.682395e+17
1.626392e+17
1.544381e+17
1.442203e+17
1.321378e+17
1.173258e+17
9.727272e+16
8.321895e+16
6.650307e+16
5.308465e+16
3.893911e+16
3.407013e+16
5.031738e+16
6.408604e+16
8.20086e+16
9.73015e+16
1.191872e+17
1.367036e+17
1.520343e+17
1.652232e+17
1.761115e+17
1.843539e+17
1.90191e+17
1.935793e+17
1.935716e+17
1.901689e+17
1.843201e+17
1.760705e+17
1.651786e+17
1.519869e+17
1.366625e+17
1.191479e+17
9.727357e+16
8.198182e+16
6.407331e+16
5.030954e+16
3.406094e+16
3.100408e+16
4.690098e+16
5.863907e+16
7.682402e+16
9.430614e+16
1.173843e+17
1.367155e+17
1.54761e+17
1.709782e+17
1.843718e+17
1.954059e+17
2.046425e+17
2.111461e+17
2.146659e+17
2.146579e+17
2.111234e+17
2.046084e+17
1.953637e+17
1.843206e+17
1.709219e+17
1.547079e+17
1.366635e+17
1.173378e+17
9.42695e+16
7.678754e+16
5.863136e+16
4.688668e+16
3.0993e+16
3.647943e+16
5.120453e+16
6.730065e+16
8.678454e+16
1.113438e+17
1.322074e+17
1.520507e+17
1.709842e+17
1.873264e+17
2.018884e+17
2.137038e+17
2.229004e+17
2.290876e+17
2.322478e+17
2.322394e+17
2.29064e+17
2.228654e+17
2.136597e+17
2.018353e+17
1.872682e+17
1.709249e+17
1.519922e+17
1.321554e+17
1.112991e+17
8.673678e+16
6.729138e+16
5.119691e+16
3.64682e+16
3.970366e+16
5.575249e+16
7.552335e+16
9.510532e+16
1.224659e+17
1.442945e+17
1.652461e+17
1.843905e+17
2.018992e+17
2.170497e+17
2.28863e+17
2.375941e+17
2.433494e+17
2.462208e+17
2.462125e+17
2.433256e+17
2.375588e+17
2.288187e+17
2.169978e+17
2.018434e+17
1.843343e+17
1.651926e+17
1.442437e+17
1.224225e+17
9.506111e+16
7.552807e+16
5.575588e+16
3.969669e+16
3.106254e+16
4.829278e+16
6.085492e+16
8.043088e+16
1.083306e+17
1.321043e+17
1.545219e+17
1.76155e+17
1.954441e+17
2.137308e+17
2.288776e+17
2.404293e+17
2.487788e+17
2.542149e+17
2.56899e+17
2.56891e+17
2.541917e+17
2.487437e+17
2.40385e+17
2.288264e+17
2.136753e+17
1.953874e+17
1.760997e+17
1.544679e+17
1.320588e+17
1.0829e+17
8.043627e+16
6.08633e+16
4.827377e+16
3.105282e+16
3.463816e+16
5.00838e+16
6.334752e+16
8.34542e+16
1.146005e+17
1.392508e+17
1.627248e+17
1.844102e+17
2.046949e+17
2.229432e+17
2.376256e+17
2.487967e+17
2.568451e+17
2.620704e+17
2.64646e+17
2.646379e+17
2.620474e+17
2.568097e+17
2.487523e+17
2.375755e+17
2.228889e+17
2.046375e+17
1.843533e+17
1.626794e+17
1.392056e+17
1.145622e+17
8.344856e+16
6.33467e+16
5.008079e+16
3.463678e+16
3.562809e+16
5.113969e+16
6.489983e+16
8.5497e+16
1.183142e+17
1.440303e+17
1.683336e+17
1.902628e+17
2.112146e+17
2.29148e+17
2.434003e+17
2.542537e+17
2.620925e+17
2.671823e+17
2.69689e+17
2.696796e+17
2.671573e+17
2.620555e+17
2.542096e+17
2.433526e+17
2.290975e+17
2.111615e+17
1.902107e+17
1.682879e+17
1.439831e+17
1.182771e+17
8.548147e+16
6.489315e+16
5.113436e+16
3.562217e+16
3.602996e+16
5.163978e+16
6.564738e+16
8.656952e+16
1.201797e+17
1.464341e+17
1.706992e+17
1.936654e+17
2.147509e+17
2.323276e+17
2.462932e+17
2.569605e+17
2.646922e+17
2.697148e+17
2.721886e+17
2.721767e+17
2.696873e+17
2.646543e+17
2.569172e+17
2.462477e+17
2.322811e+17
2.147035e+17
1.936188e+17
1.706568e+17
1.463934e+17
1.201441e+17
8.654656e+16
6.563072e+16
5.162408e+16
3.602021e+16
3.603529e+16
5.164626e+16
6.565358e+16
8.657678e+16
1.201836e+17
1.464362e+17
1.707034e+17
1.936724e+17
2.14761e+17
2.323401e+17
2.463072e+17
2.569757e+17
2.647084e+17
2.697325e+17
2.722083e+17
2.721961e+17
2.697048e+17
2.646707e+17
2.56933e+17
2.462631e+17
2.322963e+17
2.147185e+17
1.936312e+17
1.706639e+17
1.463989e+17
1.201484e+17
8.654723e+16
6.563007e+16
5.162451e+16
3.602243e+16
3.564559e+16
5.116313e+16
6.492165e+16
8.551996e+16
1.183279e+17
1.440474e+17
1.683589e+17
1.902879e+17
2.112459e+17
2.29186e+17
2.434431e+17
2.543001e+17
2.62142e+17
2.672352e+17
2.697448e+17
2.69734e+17
2.67209e+17
2.621053e+17
2.54258e+17
2.433999e+17
2.29144e+17
2.112063e+17
1.902497e+17
1.683185e+17
1.440104e+17
1.182911e+17
8.547899e+16
6.489067e+16
5.113648e+16
3.562926e+16
3.466864e+16
5.012025e+16
6.338373e+16
8.34963e+16
1.146279e+17
1.392873e+17
1.627741e+17
1.844607e+17
2.047513e+17
2.230081e+17
2.37698e+17
2.488753e+17
2.569294e+17
2.621592e+17
2.647377e+17
2.647278e+17
2.621346e+17
2.568937e+17
2.488336e+17
2.376549e+17
2.22966e+17
2.047106e+17
1.8442e+17
1.627288e+17
1.392462e+17
1.145868e+17
8.343883e+16
6.334377e+16
5.008988e+16
3.46495e+16
3.109742e+16
4.83246e+16
6.091068e+16
8.049854e+16
1.083715e+17
1.321598e+17
1.545822e+17
1.762291e+17
1.955274e+17
2.138237e+17
2.289796e+17
2.405397e+17
2.488968e+17
2.543381e+17
2.570238e+17
2.570145e+17
2.543144e+17
2.48862e+17
2.404982e+17
2.289354e+17
2.137786e+17
1.954813e+17
1.761851e+17
1.545424e+17
1.321148e+17
1.083292e+17
8.042561e+16
6.086432e+16
4.829959e+16
3.107627e+16
3.973717e+16
5.580911e+16
7.560631e+16
9.514804e+16
1.225366e+17
1.443647e+17
1.653383e+17
1.844962e+17
2.020161e+17
2.171777e+17
2.29002e+17
2.377418e+17
2.435019e+17
2.463702e+17
2.463611e+17
2.434776e+17
2.377059e+17
2.289588e+17
2.171311e+17
2.019671e+17
1.84445e+17
1.652928e+17
1.443243e+17
1.22484e+17
9.511293e+16
7.552455e+16
5.575854e+16
3.97102e+16
3.650069e+16
5.124784e+16
6.737218e+16
8.684651e+16
1.114259e+17
1.322847e+17
1.521466e+17
1.711009e+17
1.874565e+17
2.020336e+17
2.138637e+17
2.230692e+17
2.292603e+17
2.324134e+17
2.324047e+17
2.292355e+17
2.230317e+17
2.138183e+17
2.019859e+17
1.87407e+17
1.71049e+17
1.521007e+17
1.322383e+17
1.113644e+17
8.680661e+16
6.730682e+16
5.120941e+16
3.648433e+16
3.101292e+16
4.694778e+16
5.870151e+16
7.689123e+16
9.438142e+16
1.174631e+17
1.368107e+17
1.548769e+17
1.711104e+17
1.845234e+17
1.955767e+17
2.048214e+17
2.113289e+17
2.148428e+17
2.148357e+17
2.113051e+17
2.047831e+17
1.955297e+17
1.844775e+17
1.710645e+17
1.548298e+17
1.367656e+17
1.174143e+17
9.431463e+16
7.685076e+16
5.864451e+16
4.690629e+16
3.10109e+16
3.407751e+16
5.035928e+16
6.41463e+16
8.206516e+16
9.738138e+16
1.192796e+17
1.368141e+17
1.521588e+17
1.653661e+17
1.762758e+17
1.84527e+17
1.903673e+17
1.937507e+17
1.937454e+17
1.903467e+17
1.84491e+17
1.762318e+17
1.653246e+17
1.521171e+17
1.367716e+17
1.192393e+17
9.734259e+16
8.202838e+16
6.410465e+16
5.032326e+16
3.406055e+16
3.896488e+16
5.313506e+16
6.657237e+16
8.331685e+16
9.737357e+16
1.174664e+17
1.322988e+17
1.443916e+17
1.546166e+17
1.628249e+17
1.684262e+17
1.707796e+17
1.70774e+17
1.684072e+17
1.627961e+17
1.54585e+17
1.443533e+17
1.322589e+17
1.174281e+17
9.734102e+16
8.328224e+16
6.653543e+16
5.309465e+16
3.893564e+16
3.199696e+16
4.615354e+16
5.471375e+16
6.656531e+16
8.207319e+16
9.437654e+16
1.114169e+17
1.225434e+17
1.321814e+17
1.39326e+17
1.440987e+17
1.464957e+17
1.464909e+17
1.44088e+17
1.393054e+17
1.32156e+17
1.225191e+17
1.113982e+17
9.435259e+16
8.204574e+16
6.653848e+16
5.468485e+16
4.612492e+16
3.197319e+16
3.228768e+16
4.615035e+16
5.313414e+16
6.412835e+16
7.686245e+16
8.681184e+16
9.514232e+16
1.083744e+17
1.1464e+17
1.183492e+17
1.202062e+17
1.202023e+17
1.183506e+17
1.146424e+17
1.083718e+17
9.513158e+16
8.681585e+16
7.686503e+16
6.412085e+16
5.31151e+16
4.613063e+16
3.227218e+16
3.199007e+16
3.896493e+16
5.033957e+16
5.866892e+16
6.732594e+16
7.556125e+16
8.045264e+16
8.345543e+16
8.549314e+16
8.659182e+16
8.658287e+16
8.551168e+16
8.348302e+16
8.047827e+16
7.558142e+16
6.733791e+16
5.866804e+16
5.033445e+16
3.894973e+16
3.198176e+16
3.406334e+16
4.690767e+16
5.121477e+16
5.576823e+16
6.086633e+16
6.334124e+16
6.488817e+16
6.564456e+16
6.563461e+16
6.489653e+16
6.335165e+16
6.087511e+16
5.576884e+16
5.120794e+16
4.691989e+16
3.405864e+16
3.099165e+16
3.647796e+16
3.970363e+16
4.829289e+16
5.008182e+16
5.11303e+16
5.164263e+16
5.163847e+16
5.112845e+16
5.00783e+16
4.829631e+16
3.970274e+16
3.647152e+16
3.100138e+16
3.106634e+16
3.463602e+16
3.561545e+16
3.602088e+16
3.60178e+16
3.561141e+16
3.462848e+16
3.104857e+16
2.751739e+16
3.052311e+16
3.124069e+16
3.123344e+16
3.0503e+16
2.750808e+16
2.652974e+16
3.22376e+16
3.577139e+16
3.946834e+16
4.723424e+16
4.909612e+16
4.983621e+16
4.981968e+16
4.90552e+16
4.719203e+16
3.947128e+16
3.578888e+16
3.225679e+16
2.656297e+16
2.67439e+16
3.368276e+16
4.448889e+16
5.134222e+16
5.710567e+16
6.405993e+16
6.844871e+16
7.038865e+16
7.134774e+16
7.132697e+16
7.033682e+16
6.84023e+16
6.40497e+16
5.710166e+16
5.132938e+16
4.450219e+16
3.371267e+16
2.678542e+16
2.972556e+16
4.340351e+16
5.275438e+16
6.466557e+16
7.233375e+16
7.993781e+16
8.660231e+16
9.776924e+16
1.021348e+17
1.038924e+17
1.038728e+17
1.020828e+17
9.770604e+16
8.655163e+16
7.988716e+16
7.22951e+16
6.462065e+16
5.276677e+16
4.341579e+16
2.976249e+16
3.166558e+16
4.756707e+16
6.014218e+16
7.370944e+16
8.521844e+16
1.013522e+17
1.118447e+17
1.199522e+17
1.267493e+17
1.309459e+17
1.328886e+17
1.328701e+17
1.308948e+17
1.266786e+17
1.1988e+17
1.117832e+17
1.013058e+17
8.518601e+16
7.366924e+16
6.014131e+16
4.756225e+16
3.167913e+16
3.271421e+16
5.077476e+16
6.68244e+16
7.999652e+16
9.287669e+16
1.138705e+17
1.29001e+17
1.407886e+17
1.493301e+17
1.558675e+17
1.601252e+17
1.621942e+17
1.621767e+17
1.600758e+17
1.557952e+17
1.492467e+17
1.40704e+17
1.289271e+17
1.138221e+17
9.284425e+16
7.994997e+16
6.678453e+16
5.074842e+16
3.270588e+16
3.167707e+16
5.078321e+16
6.948593e+16
8.462123e+16
1.060912e+17
1.237648e+17
1.412817e+17
1.561042e+17
1.684487e+17
1.789226e+17
1.866476e+17
1.915857e+17
1.939904e+17
1.939738e+17
1.915395e+17
1.865805e+17
1.788454e+17
1.683698e+17
1.560254e+17
1.41209e+17
1.236922e+17
1.060253e+17
8.456276e+16
6.941142e+16
5.074895e+16
3.166634e+16
2.974492e+16
4.757708e+16
6.684975e+16
8.462541e+16
1.086937e+17
1.297294e+17
1.490979e+17
1.664069e+17
1.827349e+17
1.9663e+17
2.080649e+17
2.165319e+17
2.220089e+17
2.246852e+17
2.246693e+17
2.219647e+17
2.164647e+17
2.079836e+17
1.965426e+17
1.826434e+17
1.663163e+17
1.490074e+17
1.296448e+17
1.086142e+17
8.456366e+16
6.679455e+16
4.75537e+16
2.973589e+16
2.676233e+16
4.34175e+16
6.018097e+16
8.001438e+16
1.06112e+17
1.297442e+17
1.518009e+17
1.715971e+17
1.908995e+17
2.084971e+17
2.233659e+17
2.354326e+17
2.445294e+17
2.504487e+17
2.532676e+17
2.532514e+17
2.504026e+17
2.444604e+17
2.353503e+17
2.232766e+17
2.084018e+17
1.908016e+17
1.714958e+17
1.516968e+17
1.296498e+17
1.060323e+17
7.995849e+16
6.015083e+16
4.339796e+16
2.675426e+16
3.370391e+16
5.279384e+16
7.371804e+16
9.293108e+16
1.238007e+17
1.491305e+17
1.716155e+17
1.935515e+17
2.141402e+17
2.324893e+17
2.480971e+17
2.606942e+17
2.702486e+17
2.766719e+17
2.799508e+17
2.799351e+17
2.766269e+17
2.701811e+17
2.606128e+17
2.480064e+17
2.323919e+17
2.140404e+17
1.934486e+17
1.715116e+17
1.490281e+17
1.237108e+17
9.286338e+16
7.368007e+16
5.277046e+16
3.369847e+16
2.655461e+16
4.4505e+16
6.46675e+16
8.525199e+16
1.139362e+17
1.413353e+17
1.664595e+17
1.909396e+17
2.1416e+17
2.354453e+17
2.543218e+17
2.704588e+17
2.836556e+17
2.939454e+17
3.010126e+17
3.046483e+17
3.046333e+17
3.009701e+17
2.938817e+17
2.835776e+17
2.703695e+17
2.542246e+17
2.353443e+17
2.140549e+17
1.908329e+17
1.663539e+17
1.412337e+17
1.138515e+17
8.517352e+16
6.464232e+16
4.44883e+16
2.656224e+16
3.223799e+16
5.134605e+16
7.233895e+16
1.014121e+17
1.290641e+17
1.561713e+17
1.827989e+17
2.085515e+17
2.325228e+17
2.543358e+17
2.737034e+17
2.906158e+17
3.045743e+17
3.153605e+17
3.226836e+17
3.263962e+17
3.263823e+17
3.226443e+17
3.153017e+17
3.045017e+17
2.905323e+17
2.736116e+17
2.542386e+17
2.32421e+17
2.084483e+17
1.826954e+17
1.560668e+17
1.289762e+17
1.013216e+17
7.228758e+16
5.132249e+16
3.223653e+16
3.578481e+16
5.7129e+16
7.997603e+16
1.119225e+17
1.408535e+17
1.685311e+17
1.967079e+17
2.234327e+17
2.481434e+17
2.70488e+17
2.906307e+17
3.082466e+17
3.22644e+17
3.335744e+17
3.409053e+17
3.445829e+17
3.445703e+17
3.408694e+17
3.335206e+17
3.225778e+17
3.081712e+17
2.905482e+17
2.704003e+17
2.480517e+17
2.233386e+17
1.966126e+17
1.684329e+17
1.407696e+17
1.118254e+17
7.989674e+16
5.707256e+16
3.575581e+16
3.949067e+16
6.412375e+16
8.668502e+16
1.200435e+17
1.494115e+17
1.790167e+17
2.081572e+17
2.355132e+17
2.607594e+17
2.837054e+17
3.046088e+17
3.226629e+17
3.372286e+17
3.481439e+17
3.553988e+17
3.590157e+17
3.59004e+17
3.553656e+17
3.480938e+17
3.371673e+17
3.22594e+17
3.045338e+17
2.836258e+17
2.606766e+17
2.35428e+17
2.080702e+17
1.789283e+17
1.493301e+17
1.19946e+17
8.658306e+16
6.40183e+16
3.943885e+16
2.753574e+16
4.725321e+16
6.85201e+16
9.786747e+16
1.268532e+17
1.559693e+17
1.867574e+17
2.166415e+17
2.446268e+17
2.70334e+17
2.940175e+17
3.154182e+17
3.33617e+17
3.481681e+17
3.590011e+17
3.661693e+17
3.697334e+17
3.697219e+17
3.661369e+17
3.589523e+17
3.481095e+17
3.335528e+17
3.153496e+17
2.939453e+17
2.7026e+17
2.445527e+17
2.165627e+17
1.866763e+17
1.558868e+17
1.267532e+17
9.775308e+16
6.841099e+16
4.718844e+16
2.750089e+16
3.052124e+16
4.912072e+16
7.045495e+16
1.022387e+17
1.310638e+17
1.602506e+17
1.917179e+17
2.221419e+17
2.505717e+17
2.767832e+17
3.011112e+17
3.227688e+17
3.409764e+17
3.554526e+17
3.661998e+17
3.732977e+17
3.768215e+17
3.768089e+17
3.732629e+17
3.661492e+17
3.553943e+17
3.409154e+17
3.227061e+17
3.010465e+17
2.767173e+17
2.505046e+17
2.220693e+17
1.916421e+17
1.601693e+17
1.309699e+17
1.021346e+17
7.036228e+16
4.906267e+16
3.0507e+16
3.12513e+16
4.98752e+16
7.141852e+16
1.040129e+17
1.330313e+17
1.623481e+17
1.9415e+17
2.24844e+17
2.534187e+17
2.800916e+17
3.047775e+17
3.26513e+17
3.446866e+17
3.591029e+17
3.697984e+17
3.768573e+17
3.803594e+17
3.803451e+17
3.768194e+17
3.69745e+17
3.590435e+17
3.446271e+17
3.264545e+17
3.047187e+17
2.800319e+17
2.533572e+17
2.247777e+17
1.940783e+17
1.622695e+17
1.329446e+17
1.039257e+17
7.135513e+16
4.98354e+16
3.124228e+16
3.125525e+16
4.988487e+16
7.143675e+16
1.040255e+17
1.330442e+17
1.623611e+17
1.941625e+17
2.248567e+17
2.534332e+17
2.801078e+17
3.04796e+17
3.26534e+17
3.447096e+17
3.591273e+17
3.698237e+17
3.768834e+17
3.803859e+17
3.80371e+17
3.76844e+17
3.697686e+17
3.590668e+17
3.446503e+17
3.264776e+17
3.047412e+17
2.800526e+17
2.533753e+17
2.247947e+17
1.94094e+17
1.62285e+17
1.329639e+17
1.039476e+17
7.137727e+16
4.985231e+16
3.125243e+16
3.054333e+16
4.914124e+16
7.047612e+16
1.022644e+17
1.310984e+17
1.602884e+17
1.917547e+17
2.221819e+17
2.506186e+17
2.768344e+17
3.011682e+17
3.228324e+17
3.410458e+17
3.555265e+17
3.662767e+17
3.733766e+17
3.769008e+17
3.768864e+17
3.733378e+17
3.662221e+17
3.554662e+17
3.409871e+17
3.227774e+17
3.011155e+17
2.767811e+17
2.505618e+17
2.221216e+17
1.916869e+17
1.602116e+17
1.31024e+17
1.021959e+17
7.042439e+16
4.911255e+16
3.053747e+16
2.756706e+16
4.725521e+16
6.852623e+16
9.789643e+16
1.269017e+17
1.560301e+17
1.868176e+17
2.167095e+17
2.44707e+17
2.704228e+17
2.941151e+17
3.155258e+17
3.33734e+17
3.482926e+17
3.59131e+17
3.663023e+17
3.698669e+17
3.698533e+17
3.662657e+17
3.590787e+17
3.482344e+17
3.336768e+17
3.154719e+17
2.940629e+17
2.703695e+17
2.446499e+17
2.166488e+17
1.867484e+17
1.559496e+17
1.268331e+17
9.783984e+16
6.849056e+16
4.723743e+16
2.755875e+16
3.950786e+16
6.411669e+16
8.67196e+16
1.201036e+17
1.494951e+17
1.790988e+17
2.082523e+17
2.356211e+17
2.608825e+17
2.838426e+17
3.047598e+17
3.228266e+17
3.37403e+17
3.483263e+17
3.555856e+17
3.592032e+17
3.591906e+17
3.555514e+17
3.482772e+17
3.373478e+17
3.227715e+17
3.047065e+17
2.837904e+17
2.608307e+17
2.355672e+17
2.081913e+17
1.790303e+17
1.494111e+17
1.200421e+17
8.66743e+16
6.409954e+16
3.948584e+16
3.580353e+16
5.715695e+16
8.002138e+16
1.119822e+17
1.40951e+17
1.686287e+17
1.968252e+17
2.235628e+17
2.482937e+17
2.706579e+17
2.908182e+17
3.084506e+17
3.228626e+17
3.338037e+17
3.411402e+17
3.448179e+17
3.44806e+17
3.411074e+17
3.337565e+17
3.228092e+17
3.083968e+17
2.907653e+17
2.706055e+17
2.482431e+17
2.235094e+17
1.967625e+17
1.685645e+17
1.408676e+17
1.119302e+17
7.997722e+16
5.712177e+16
3.577439e+16
3.227613e+16
5.139878e+16
7.240647e+16
1.0147e+17
1.291575e+17
1.562825e+17
1.829315e+17
2.086962e+17
2.326886e+17
2.54526e+17
2.73915e+17
2.908488e+17
3.048263e+17
3.156258e+17
3.229556e+17
3.266681e+17
3.266565e+17
3.229231e+17
3.155785e+17
3.047728e+17
2.907955e+17
2.738632e+17
2.544745e+17
2.326382e+17
2.086407e+17
1.828667e+17
1.562224e+17
1.290894e+17
1.014307e+17
7.234944e+16
5.134954e+16
3.223992e+16
2.658755e+16
4.454548e+16
6.4751e+16
8.530092e+16
1.140065e+17
1.414421e+17
1.665914e+17
1.910893e+17
2.143334e+17
2.356456e+17
2.54547e+17
2.707088e+17
2.83928e+17
2.942325e+17
3.013077e+17
3.049451e+17
3.04934e+17
3.012757e+17
2.941849e+17
2.83874e+17
2.706559e+17
2.544961e+17
2.355956e+17
2.142837e+17
1.91035e+17
1.665317e+17
1.413955e+17
1.139634e+17
8.527896e+16
6.467324e+16
4.451261e+16
2.655861e+16
3.373101e+16
5.282795e+16
7.378954e+16
9.296916e+16
1.23899e+17
1.492527e+17
1.717633e+17
1.937267e+17
2.143443e+17
2.327191e+17
2.483516e+17
2.609711e+17
2.705407e+17
2.769732e+17
2.802558e+17
2.802459e+17
2.769436e+17
2.704958e+17
2.609198e+17
2.483012e+17
2.326705e+17
2.142969e+17
1.93681e+17
1.71718e+17
1.492103e+17
1.238621e+17
9.295286e+16
7.374961e+16
5.279432e+16
3.370458e+16
2.677444e+16
4.345575e+16
6.022942e+16
8.010419e+16
1.062163e+17
1.298624e+17
1.519439e+17
1.717693e+17
1.911029e+17
2.087255e+17
2.236161e+17
2.356999e+17
2.448114e+17
2.507429e+17
2.535685e+17
2.535595e+17
2.507172e+17
2.447732e+17
2.356563e+17
2.235712e+17
2.08682e+17
1.910602e+17
1.717282e+17
1.519026e+17
1.298188e+17
1.061682e+17
8.005694e+16
6.019099e+16
4.343169e+16
2.676808e+16
2.975722e+16
4.762869e+16
6.69238e+16
8.470002e+16
1.087893e+17
1.298585e+17
1.492608e+17
1.665992e+17
1.829435e+17
1.968595e+17
2.083112e+17
2.167912e+17
2.2228e+17
2.249635e+17
2.249561e+17
2.222618e+17
2.167638e+17
2.08279e+17
1.968285e+17
1.82916e+17
1.665669e+17
1.492262e+17
1.29828e+17
1.087598e+17
8.467462e+16
6.687311e+16
4.759771e+16
2.975002e+16
3.169399e+16
5.082055e+16
6.956705e+16
8.468502e+16
1.062075e+17
1.238997e+17
1.414389e+17
1.562746e+17
1.686403e+17
1.791279e+17
1.868634e+17
1.918147e+17
1.942307e+17
1.942243e+17
1.918058e+17
1.86853e+17
1.791155e+17
1.686281e+17
1.562652e+17
1.414187e+17
1.238724e+17
1.061868e+17
8.466784e+16
6.954059e+16
5.080104e+16
3.168082e+16
3.272828e+16
5.081292e+16
6.691971e+16
8.009557e+16
9.298908e+16
1.140067e+17
1.291417e+17
1.409356e+17
1.494897e+17
1.560381e+17
1.603135e+17
1.624073e+17
1.623984e+17
1.603097e+17
1.560371e+17
1.4949e+17
1.4094e+17
1.291389e+17
1.139872e+17
9.29526e+16
8.008169e+16
6.690833e+16
5.080421e+16
3.27206e+16
3.167623e+16
4.759863e+16
6.022627e+16
7.37788e+16
8.52769e+16
1.014492e+17
1.119652e+17
1.200946e+17
1.269019e+17
1.311094e+17
1.330625e+17
1.330509e+17
1.310953e+17
1.268856e+17
1.200794e+17