/*--------------------------------*- C++ -*----------------------------------*\
  =========                 |
  \\      /  F ield         | OpenFOAM: The Open Source CFD Toolbox
   \\    /   O peration     | Website:  https://openfoam.org
    \\  /    A nd           | Version:  6
     \\/     M anipulation  |
\*---------------------------------------------------------------------------*/
FoamFile
{
    version     2.0;
    format      ascii;
    class       volScalarField;
    location    "49.8/region0/neutronTransport";
    object      discFlux5;
}
// * * * * * * * * * * * * * * * * * * * * * * * * * * * * * * * * * * * * * //

dimensions      [0 -2 -1 0 0 0 0];

internalField   nonuniform List<scalar> 
203709
(
7185511
9118186
9117470
7189836
7642257
9817636
1.415879e+07
1.392127e+07
1.39197e+07
1.415934e+07
9817882
7641584
7415583
9854737
1.431486e+07
1.41459e+07
1.461064e+07
1.472789e+07
1.472715e+07
1.460853e+07
1.414206e+07
1.430841e+07
9848471
7409488
7416880
1.389567e+07
1.40948e+07
1.469214e+07
1.499861e+07
1.527625e+07
1.53961e+07
1.539568e+07
1.527183e+07
1.499129e+07
1.468236e+07
1.408272e+07
1.388195e+07
7407611
9855545
1.409513e+07
1.47908e+07
1.527013e+07
1.56349e+07
1.5899e+07
1.602903e+07
1.602777e+07
1.589284e+07
1.562592e+07
1.525878e+07
1.477662e+07
1.407905e+07
9841996
7644400
1.431577e+07
1.469305e+07
1.526968e+07
1.57666e+07
1.615644e+07
1.642586e+07
1.655687e+07
1.655454e+07
1.64196e+07
1.61487e+07
1.575658e+07
1.52578e+07
1.467979e+07
1.430099e+07
7634213
9818332
1.414519e+07
1.499649e+07
1.56293e+07
1.61523e+07
1.655716e+07
1.682478e+07
1.69481e+07
1.694573e+07
1.681963e+07
1.654982e+07
1.61442e+07
1.562162e+07
1.498546e+07
1.413075e+07
9805967
7187986
1.416005e+07
1.461152e+07
1.527518e+07
1.589502e+07
1.64198e+07
1.682042e+07
1.706444e+07
1.718704e+07
1.718689e+07
1.706393e+07
1.681731e+07
1.64149e+07
1.588691e+07
1.526253e+07
1.459518e+07
1.414231e+07
7173641
9114007
1.391817e+07
1.472739e+07
1.539701e+07
1.602789e+07
1.655343e+07
1.694497e+07
1.718562e+07
1.732214e+07
1.731777e+07
1.718713e+07
1.694606e+07
1.655165e+07
1.602023e+07
1.538346e+07
1.471105e+07
1.389961e+07
9100001
9114903
1.392111e+07
1.472838e+07
1.539694e+07
1.602906e+07
1.655612e+07
1.694736e+07
1.718817e+07
1.732871e+07
1.732368e+07
1.718954e+07
1.694846e+07
1.655383e+07
1.602273e+07
1.538504e+07
1.471147e+07
1.390133e+07
9101467
7183379
1.416066e+07
1.461201e+07
1.527749e+07
1.59004e+07
1.642775e+07
1.682893e+07
1.707263e+07
1.719486e+07
1.71928e+07
1.707072e+07
1.682606e+07
1.642238e+07
1.589206e+07
1.526496e+07
1.459503e+07
1.413933e+07
7175377
9816769
1.414653e+07
1.500166e+07
1.563972e+07
1.616361e+07
1.656865e+07
1.683554e+07
1.695988e+07
1.695574e+07
1.683001e+07
1.655912e+07
1.615165e+07
1.562533e+07
1.498515e+07
1.412881e+07
9804200
7645134
1.432017e+07
1.469935e+07
1.527959e+07
1.577842e+07
1.617003e+07
1.643801e+07
1.657022e+07
1.656535e+07
1.642917e+07
1.615487e+07
1.576014e+07
1.525926e+07
1.467828e+07
1.429798e+07
7632539
9860575
1.41041e+07
1.480259e+07
1.528351e+07
1.564824e+07
1.591171e+07
1.604813e+07
1.604328e+07
1.589938e+07
1.562978e+07
1.526064e+07
1.477759e+07
1.408034e+07
9843374
7421431
1.390686e+07
1.410461e+07
1.470254e+07
1.500691e+07
1.528327e+07
1.540798e+07
1.540403e+07
1.527202e+07
1.498984e+07
1.468033e+07
1.407906e+07
1.387993e+07
7406168
7418425
9857358
1.431842e+07
1.414512e+07
1.460961e+07
1.472737e+07
1.472628e+07
1.460185e+07
1.41339e+07
1.430137e+07
9841577
7405812
7640501
9812910
1.415175e+07
1.391685e+07
1.391823e+07
1.414675e+07
9806710
7634577
7180011
9105009
9105698
7179302
6027782
7901917
8316163
8582718
8745263
8745773
8584446
8319051
7906349
6033885
6207797
8343696
1.239834e+07
1.276357e+07
1.328299e+07
1.393825e+07
1.446174e+07
1.446297e+07
1.394307e+07
1.328711e+07
1.276549e+07
1.239905e+07
8344952
6208218
6406365
1.213269e+07
1.278082e+07
1.390105e+07
1.507706e+07
1.607285e+07
1.777995e+07
1.908951e+07
1.909103e+07
1.778538e+07
1.607574e+07
1.507885e+07
1.390501e+07
1.278457e+07
1.213714e+07
6407147
6488787
1.235577e+07
1.353235e+07
1.499019e+07
1.654395e+07
1.935457e+07
2.311068e+07
2.924423e+07
3.078299e+07
3.078507e+07
2.924621e+07
2.311608e+07
1.936144e+07
1.655061e+07
1.499511e+07
1.353524e+07
1.235462e+07
6489335
6403803
1.23543e+07
1.36882e+07
1.539369e+07
1.890456e+07
2.347459e+07
3.093057e+07
3.492545e+07
3.791847e+07
4.260311e+07
4.260451e+07
3.792447e+07
3.493122e+07
3.093217e+07
2.34787e+07
1.890369e+07
1.539317e+07
1.36836e+07
1.234657e+07
6400217
6205748
1.213269e+07
1.353357e+07
1.539691e+07
2.053785e+07
2.985644e+07
3.488676e+07
3.905296e+07
4.568707e+07
4.86136e+07
5.035158e+07
5.035085e+07
4.861224e+07
4.568259e+07
3.904624e+07
3.487468e+07
2.983612e+07
2.05225e+07
1.538087e+07
1.351813e+07
1.21183e+07
6199253
8337041
1.277741e+07
1.499098e+07
1.890784e+07
2.985741e+07
3.704884e+07
4.492493e+07
4.919444e+07
5.252828e+07
5.456669e+07
5.560496e+07
5.560136e+07
5.455635e+07
5.25112e+07
4.917062e+07
4.489308e+07
3.701238e+07
2.981899e+07
1.887911e+07
1.496826e+07
1.275725e+07
8324707
6025480
1.238678e+07
1.38953e+07
1.65449e+07
2.347676e+07
3.489425e+07
4.492839e+07
5.074964e+07
5.443141e+07
5.695442e+07
5.854355e+07
5.932341e+07
5.931723e+07
5.852566e+07
5.692745e+07
5.439539e+07
5.07047e+07
4.487812e+07
3.48471e+07
2.344355e+07
1.652012e+07
1.387079e+07
1.23656e+07
6015010
7892958
1.275433e+07
1.506973e+07
1.935769e+07
3.09421e+07
3.906531e+07
4.920152e+07
5.443373e+07
5.773769e+07
5.993889e+07
6.131903e+07
6.198609e+07
6.197864e+07
6.129868e+07
5.990986e+07
5.770065e+07
5.43887e+07
4.915104e+07
3.901707e+07
3.089946e+07
1.932531e+07
1.504591e+07
1.273449e+07
7881395
8305281
1.327326e+07
1.606296e+07
2.31053e+07
3.493796e+07
4.569898e+07
5.253272e+07
5.695029e+07
5.993258e+07
6.195923e+07
6.323886e+07
6.38613e+07
6.385447e+07
6.322104e+07
6.193376e+07
5.990096e+07
5.691163e+07
5.248346e+07
4.564218e+07
3.488133e+07
2.307375e+07
1.60425e+07
1.325273e+07
8293671
8570389
1.39267e+07
1.77726e+07
2.924296e+07
3.792952e+07
4.862678e+07
5.457239e+07
5.853883e+07
6.130701e+07
6.322845e+07
6.444929e+07
6.504966e+07
6.504816e+07
6.444556e+07
6.321879e+07
6.128771e+07
5.850502e+07
5.452213e+07
4.856568e+07
3.787139e+07
2.919995e+07
1.774405e+07
1.390458e+07
8558542
8731330
1.444405e+07
1.907371e+07
3.077624e+07
4.260828e+07
5.036276e+07
5.561487e+07
5.932773e+07
6.198356e+07
6.385492e+07
6.504585e+07
6.563652e+07
6.563609e+07
6.50504e+07
6.385598e+07
6.197227e+07
5.929817e+07
5.556668e+07
5.030244e+07
4.254715e+07
3.073128e+07
1.904641e+07
1.44234e+07
8718641
8730820
1.444095e+07
1.906859e+07
3.07703e+07
4.260477e+07
5.036154e+07
5.561629e+07
5.933257e+07
6.199149e+07
6.386411e+07
6.505557e+07
6.564749e+07
6.564592e+07
6.505875e+07
6.386511e+07
6.198197e+07
5.930695e+07
5.557312e+07
5.03065e+07
4.254859e+07
3.072719e+07
1.904152e+07
1.44196e+07
8716557
8569542
1.392389e+07
1.777029e+07
2.92395e+07
3.791929e+07
4.862321e+07
5.457752e+07
5.855442e+07
6.133091e+07
6.325497e+07
6.447507e+07
6.507453e+07
6.507156e+07
6.447026e+07
6.32458e+07
6.131356e+07
5.852577e+07
5.453613e+07
4.857376e+07
3.787409e+07
2.919868e+07
1.774343e+07
1.390184e+07
8554020
8307008
1.327476e+07
1.606587e+07
2.310571e+07
3.493171e+07
4.56995e+07
5.254356e+07
5.697361e+07
5.996433e+07
6.199564e+07
6.327677e+07
6.39009e+07
6.389337e+07
6.325929e+07
6.196842e+07
5.992891e+07
5.693127e+07
5.249516e+07
4.564826e+07
3.488853e+07
2.306724e+07
1.60358e+07
1.32513e+07
8290485
7897086
1.275968e+07
1.507452e+07
1.93572e+07
3.094825e+07
3.907567e+07
4.922039e+07
5.446309e+07
5.777691e+07
5.998513e+07
6.13675e+07
6.203431e+07
6.202251e+07
6.133731e+07
5.993919e+07
5.772029e+07
5.440133e+07
4.915805e+07
3.901747e+07
3.089724e+07
1.932418e+07
1.504312e+07
1.27336e+07
7879909
6029315
1.2396e+07
1.390177e+07
1.65497e+07
2.348961e+07
3.491367e+07
4.495854e+07
5.078839e+07
5.44767e+07
5.700269e+07
5.859116e+07
5.936423e+07
5.935087e+07
5.855427e+07
5.694649e+07
5.440674e+07
5.071244e+07
4.488405e+07
3.484949e+07
2.344069e+07
1.651584e+07
1.38702e+07
1.236673e+07
6015812
8344495
1.278366e+07
1.499751e+07
1.891741e+07
2.987809e+07
3.707592e+07
4.495798e+07
4.923067e+07
5.25633e+07
5.459857e+07
5.562502e+07
5.561357e+07
5.456518e+07
5.251207e+07
4.916611e+07
4.488816e+07
3.700971e+07
2.981805e+07
1.887497e+07
1.496508e+07
1.275429e+07
8322344
6210343
1.213594e+07
1.353741e+07
1.539997e+07
2.054455e+07
2.986709e+07
3.490268e+07
3.907272e+07
4.570263e+07
4.862613e+07
5.035202e+07
5.034511e+07
4.860226e+07
4.566626e+07
3.902829e+07
3.485843e+07
2.982396e+07
2.050684e+07
1.536878e+07
1.351023e+07
1.211126e+07
6193649
6408059
1.236003e+07
1.369048e+07
1.539198e+07
1.890019e+07
2.347114e+07
3.093496e+07
3.492482e+07
3.791123e+07
4.258244e+07
4.257995e+07
3.789839e+07
3.490308e+07
3.090606e+07
2.344673e+07
1.887745e+07
1.536935e+07
1.366723e+07
1.23372e+07
6393608
6489466
1.235473e+07
1.352714e+07
1.498311e+07
1.653398e+07
1.933607e+07
2.308696e+07
2.922303e+07
3.07522e+07
3.075073e+07
2.921352e+07
2.307616e+07
1.932712e+07
1.651937e+07
1.496687e+07
1.351015e+07
1.23375e+07
6479530
6400423
1.212428e+07
1.276732e+07
1.388082e+07
1.505113e+07
1.604761e+07
1.775366e+07
1.90542e+07
1.905351e+07
1.775108e+07
1.604155e+07
1.504799e+07
1.38769e+07
1.275957e+07
1.211317e+07
6394073
6202784
8331276
1.237606e+07
1.274124e+07
1.32594e+07
1.391173e+07
1.443256e+07
1.443325e+07
1.391259e+07
1.325882e+07
1.273956e+07
1.23773e+07
8329913
6199790
6018299
7883427
8294771
8560169
8723047
8723478
8564199
8299947
7887908
6018128
5100487
6666022
6926664
7018020
7016725
6923232
6658765
5092972
5126375
7164691
8042744
1.171837e+07
1.215884e+07
1.24262e+07
1.25449e+07
1.254332e+07
1.242146e+07
1.215243e+07
1.171838e+07
8046350
7171157
5136804
5860314
1.128115e+07
1.249093e+07
1.436173e+07
1.626598e+07
1.706864e+07
1.755373e+07
1.777493e+07
1.77734e+07
1.754971e+07
1.706369e+07
1.626319e+07
1.436467e+07
1.249601e+07
1.128883e+07
5869862
5368213
7738371
1.219033e+07
1.542708e+07
1.929107e+07
2.57465e+07
2.807072e+07
2.92759e+07
3.005379e+07
3.045081e+07
3.044807e+07
3.004657e+07
2.926626e+07
2.806083e+07
2.573947e+07
1.929223e+07
1.543386e+07
1.21905e+07
7738900
5365380
5437714
1.09394e+07
1.301998e+07
1.78211e+07
2.627408e+07
3.101663e+07
3.4988e+07
4.115442e+07
4.395808e+07
4.5596e+07
4.639675e+07
4.639474e+07
4.559156e+07
4.39535e+07
4.115227e+07
3.49919e+07
3.102123e+07
2.627488e+07
1.781784e+07
1.301917e+07
1.093075e+07
5433108
5364550
1.09406e+07
1.352031e+07
1.867021e+07
2.854989e+07
3.458928e+07
4.250935e+07
4.754377e+07
5.192846e+07
5.520325e+07
5.750632e+07
5.863171e+07
5.863124e+07
5.750678e+07
5.52018e+07
5.192509e+07
4.754032e+07
4.250257e+07
3.458066e+07
2.85407e+07
1.866624e+07
1.351122e+07
1.09267e+07
5358435
7737282
1.301687e+07
1.866839e+07
2.90401e+07
3.5877e+07
4.520627e+07
5.195869e+07
5.745456e+07
6.225527e+07
6.620376e+07
6.931656e+07
7.054784e+07
7.05486e+07
6.931787e+07
6.620514e+07
6.225667e+07
5.74547e+07
5.195273e+07
4.519598e+07
3.586104e+07
2.901789e+07
1.865517e+07
1.300602e+07
7728728
5865138
1.218098e+07
1.780853e+07
2.854541e+07
3.587083e+07
4.601208e+07
5.404383e+07
6.114828e+07
6.732429e+07
7.283614e+07
7.683593e+07
7.971385e+07
8.13574e+07
8.135877e+07
7.971693e+07
7.683838e+07
7.283495e+07
6.73179e+07
6.113386e+07
5.402578e+07
4.598777e+07
3.584586e+07
2.852033e+07
1.779365e+07
1.216738e+07
5855073
5124448
1.127247e+07
1.541263e+07
2.625444e+07
3.458382e+07
4.5208e+07
5.404841e+07
6.253702e+07
7.050264e+07
7.682315e+07
8.204505e+07
8.636857e+07
8.94068e+07
9.105085e+07
9.104962e+07
8.940353e+07
8.636078e+07
8.202985e+07
7.679694e+07
7.046453e+07
6.249375e+07
5.400047e+07
4.51607e+07
3.454291e+07
2.621695e+07
1.539656e+07
1.125651e+07
5112835
7158370
1.247578e+07
1.926528e+07
3.099776e+07
4.249699e+07
5.196178e+07
6.115507e+07
7.050649e+07
7.832685e+07
8.51023e+07
9.054447e+07
9.47587e+07
9.758328e+07
9.902415e+07
9.901873e+07
9.756857e+07
9.473249e+07
9.050578e+07
8.504925e+07
7.825979e+07
7.042883e+07
6.107475e+07
5.188731e+07
4.243323e+07
3.094316e+07
1.924065e+07
1.245861e+07
7143580
8029919
1.43364e+07
2.570056e+07
3.496864e+07
4.753043e+07
5.745916e+07
6.7334e+07
7.683375e+07
8.510835e+07
9.209188e+07
9.74712e+07
1.014215e+08
1.040137e+08
1.053013e+08
1.052909e+08
1.039847e+08
1.013763e+08
9.741035e+07
9.201441e+07
8.50157e+07
7.672988e+07
6.722955e+07
5.736315e+07
4.745181e+07
3.49074e+07
2.567473e+07
1.431944e+07
8016304
5089524
1.169882e+07
1.623175e+07
2.802126e+07
4.112217e+07
5.191113e+07
6.225931e+07
7.28533e+07
8.206376e+07
9.055711e+07
9.747673e+07
1.02698e+08
1.06447e+08
1.088773e+08
1.100704e+08
1.100575e+08
1.088414e+08
1.063937e+08
1.026289e+08
9.739244e+07
9.045915e+07
8.195657e+07
7.2745e+07
6.215991e+07
5.183293e+07
4.106402e+07
2.799749e+07
1.621706e+07
1.16783e+07
5082384
6649834
1.213457e+07
1.703747e+07
2.92313e+07
4.391993e+07
5.518074e+07
6.620065e+07
7.685304e+07
8.638983e+07
9.477096e+07
1.014223e+08
1.064405e+08
1.1004e+08
1.123721e+08
1.135179e+08
1.135065e+08
1.123411e+08
1.099943e+08
1.063811e+08
1.013464e+08
9.467599e+07
8.628002e+07
7.674061e+07
6.610357e+07
5.510263e+07
4.386295e+07
2.92026e+07
1.701875e+07
1.211826e+07
6640501
6914810
1.240467e+07
1.752487e+07
3.001533e+07
4.555664e+07
5.748007e+07
6.930998e+07
7.97278e+07
8.942929e+07
9.75986e+07
1.040129e+08
1.088609e+08
1.123561e+08
1.146289e+08
1.157524e+08
1.157506e+08
1.146225e+08
1.123396e+08
1.088258e+08
1.039478e+08
9.75022e+07
8.93132e+07
7.96099e+07
6.920653e+07
5.739578e+07
4.549435e+07
2.997753e+07
1.750226e+07
1.2386e+07
6902016
7009689
1.252922e+07
1.775168e+07
3.042013e+07
4.635959e+07
5.859982e+07
7.053361e+07
8.136411e+07
9.107098e+07
9.904593e+07
1.053155e+08
1.100706e+08
1.135082e+08
1.157451e+08
1.168544e+08
1.168587e+08
1.157552e+08
1.135105e+08
1.100492e+08
1.052593e+08
9.895472e+07
9.095736e+07
8.12466e+07
7.042897e+07
5.85134e+07
4.629037e+07
3.037242e+07
1.772168e+07
1.250466e+07
6994655
7010111
1.253114e+07
1.775481e+07
3.042595e+07
4.636362e+07
5.859943e+07
7.052948e+07
8.135862e+07
9.10677e+07
9.904755e+07
1.053237e+08
1.100843e+08
1.135245e+08
1.157614e+08
1.168695e+08
1.168723e+08
1.157689e+08
1.13526e+08
1.100658e+08
1.052745e+08
9.896607e+07
9.096396e+07
8.124849e+07
7.042707e+07
5.851106e+07
4.628817e+07
3.036938e+07
1.771859e+07
1.25021e+07
6993573
6917908
1.241211e+07
1.753498e+07
3.00325e+07
4.556896e+07
5.748424e+07
6.930612e+07
7.971729e+07
8.942332e+07
9.76054e+07
1.040376e+08
1.08901e+08
1.124005e+08
1.146716e+08
1.157924e+08
1.1579e+08
1.146648e+08
1.123849e+08
1.088694e+08
1.039837e+08
9.752674e+07
8.93263e+07
7.961324e+07
6.920429e+07
5.73932e+07
4.54877e+07
2.996663e+07
1.749369e+07
1.237952e+07
6899433
6658027
1.214671e+07
1.705282e+07
2.92595e+07
4.394079e+07
5.519327e+07
6.620441e+07
7.685009e+07
8.639207e+07
9.478752e+07
1.014573e+08
1.064917e+08
1.10101e+08
1.124366e+08
1.135839e+08
1.135731e+08
1.124067e+08
1.10054e+08
1.064295e+08
1.013805e+08
9.469629e+07
8.628937e+07
7.674314e+07
6.609883e+07
5.509725e+07
4.385394e+07
2.918399e+07
1.70077e+07
1.211197e+07
6638135
5101741
1.171148e+07
1.625516e+07
2.806191e+07
4.115012e+07
5.193429e+07
6.227101e+07
7.286595e+07
8.208343e+07
9.058953e+07
9.752666e+07
1.027651e+08
1.065264e+08
1.089607e+08
1.101517e+08
1.101323e+08
1.089066e+08
1.064442e+08
1.026638e+08
9.741468e+07
9.047254e+07
8.19643e+07
7.275019e+07
6.216426e+07
5.183395e+07
4.106209e+07
2.797935e+07
1.620865e+07
1.167813e+07
5083139
8041086
1.435912e+07
2.574685e+07
3.499539e+07
4.7563e+07
5.748263e+07
6.736343e+07
7.6873e+07
8.516109e+07
9.215847e+07
9.754886e+07
1.01504e+08
1.04093e+08
1.05369e+08
1.053455e+08
1.040262e+08
1.014019e+08
9.742271e+07
9.20203e+07
8.502084e+07
7.673814e+07
6.724095e+07
5.737308e+07
4.746034e+07
3.491915e+07
2.566399e+07
1.43145e+07
8016123
7163830
1.24928e+07
1.929497e+07
3.103032e+07
4.253578e+07
5.199238e+07
6.118932e+07
7.054953e+07
7.837642e+07
8.515818e+07
9.060411e+07
9.48155e+07
9.763062e+07
9.9053e+07
9.903185e+07
9.75695e+07
9.472133e+07
9.048663e+07
8.502851e+07
7.824291e+07
7.041856e+07
6.107093e+07
5.188517e+07
4.24362e+07
3.096131e+07
1.923695e+07
1.245552e+07
7145260
5123077
1.128863e+07
1.543479e+07
2.628322e+07
3.461379e+07
4.523233e+07
5.407112e+07
6.25614e+07
7.052698e+07
7.684958e+07
8.207268e+07
8.638927e+07
8.941547e+07
9.104011e+07
9.10251e+07
8.937057e+07
8.631948e+07
8.198578e+07
7.675496e+07
7.042854e+07
6.246252e+07
5.397777e+07
4.514471e+07
3.453184e+07
2.622696e+07
1.538941e+07
1.125263e+07
5115917
5864092
1.219559e+07
1.782586e+07
2.856013e+07
3.588928e+07
4.60256e+07
5.405448e+07
6.115228e+07
6.732462e+07
7.283392e+07
7.682372e+07
7.968781e+07
8.131371e+07
8.130512e+07
7.966043e+07
7.677928e+07
7.27777e+07
6.726354e+07
6.108687e+07
5.398598e+07
4.596009e+07
3.583165e+07
2.850993e+07
1.778689e+07
1.216249e+07
5850823
7740994
1.302702e+07
1.867885e+07
2.90497e+07
3.587877e+07
4.520928e+07
5.195287e+07
5.743891e+07
6.222616e+07
6.616351e+07
6.926744e+07
7.04877e+07
7.048372e+07
6.925434e+07
6.614234e+07
6.219899e+07
5.740322e+07
5.191175e+07
4.516502e+07
3.583897e+07
2.901041e+07
1.864526e+07
1.299953e+07
7723968
5370410
1.094856e+07
1.35262e+07
1.867411e+07
2.855583e+07
3.458926e+07
4.248991e+07
4.751346e+07
5.18855e+07
5.515004e+07
5.744604e+07
5.856446e+07
5.856426e+07
5.744673e+07
5.514745e+07
5.187878e+07
4.750264e+07
4.24771e+07
3.457056e+07
2.853293e+07
1.865362e+07
1.350617e+07
1.092808e+07
5360576
5439006
1.094702e+07
1.302344e+07
1.781101e+07
2.625214e+07
3.098377e+07
3.495304e+07
4.110216e+07
4.389558e+07
4.553076e+07
4.63307e+07
4.633244e+07
4.554188e+07
4.391174e+07
4.111666e+07
3.496001e+07
3.099365e+07
2.62573e+07
1.78074e+07
1.301361e+07
1.09352e+07
5431828
5366840
7738474
1.218036e+07
1.541194e+07
1.925817e+07
2.569947e+07
2.801048e+07
2.921071e+07
2.999324e+07
3.041121e+07
3.041002e+07
3.001178e+07
2.92386e+07
2.80398e+07
2.572449e+07
1.927408e+07
1.541836e+07
1.218389e+07
7734379
5364330
5859727
1.126906e+07
1.247024e+07
1.433128e+07
1.62239e+07
1.702275e+07
1.750989e+07
1.773882e+07
1.773605e+07
1.752009e+07
1.703733e+07
1.624012e+07
1.434429e+07
1.247821e+07
1.127828e+07
5859788
5117817
7153646
8025618
1.169226e+07
1.212621e+07
1.239504e+07
1.25272e+07
1.252741e+07
1.240063e+07
1.213383e+07
1.170311e+07
8032290
7157361
5122919
5090920
6647055
6908883
7006718
7007185
6911343
6649409
5087120
4611334
5947488
6150939
6150004
5942402
4609551
4389139
6386648
7397860
8778842
1.258451e+07
1.322542e+07
1.345421e+07
1.344936e+07
1.321351e+07
1.257105e+07
8784177
7409223
6398017
4401620
4428239
6800497
1.148914e+07
1.402681e+07
1.653432e+07
2.197531e+07
2.416274e+07
2.496258e+07
2.5342e+07
2.533354e+07
2.494246e+07
2.414854e+07
2.198194e+07
1.654435e+07
1.403621e+07
1.150454e+07
6814576
4442965
5139860
1.071239e+07
1.473757e+07
2.229337e+07
2.575043e+07
2.917009e+07
3.238388e+07
3.765138e+07
3.962872e+07
4.040413e+07
4.039592e+07
3.960849e+07
3.763101e+07
3.237293e+07
2.916249e+07
2.575007e+07
2.228801e+07
1.475307e+07
1.072264e+07
5152186
5676687
1.243931e+07
1.759395e+07
2.611585e+07
3.176413e+07
3.929109e+07
4.4184e+07
4.789992e+07
5.100215e+07
5.288821e+07
5.375077e+07
5.374312e+07
5.286857e+07
5.097927e+07
4.788306e+07
4.417674e+07
3.929078e+07
3.176522e+07
2.610597e+07
1.759838e+07
1.243549e+07
5678190
5976062
1.404904e+07
2.317968e+07
2.909694e+07
3.510732e+07
4.505896e+07
5.218816e+07
5.803357e+07
6.202622e+07
6.499987e+07
6.69113e+07
6.783227e+07
6.782577e+07
6.689443e+07
6.497886e+07
6.200657e+07
5.801737e+07
5.217582e+07
4.505296e+07
3.509679e+07
2.907083e+07
2.314852e+07
1.402564e+07
5967388
5679355
1.405099e+07
2.447525e+07
3.148264e+07
4.135398e+07
4.96566e+07
5.820038e+07
6.516961e+07
7.095512e+07
7.577794e+07
7.930227e+07
8.154741e+07
8.263576e+07
8.263187e+07
8.15378e+07
7.929089e+07
7.576742e+07
7.094535e+07
6.515627e+07
5.818219e+07
4.962564e+07
4.131226e+07
3.143307e+07
2.441212e+07
1.401772e+07
5668094
5144842
1.243965e+07
2.318726e+07
3.147995e+07
4.255568e+07
5.238813e+07
6.177577e+07
6.9946e+07
7.749314e+07
8.387326e+07
8.911175e+07
9.299494e+07
9.553515e+07
9.677522e+07
9.67748e+07
9.553489e+07
9.299444e+07
8.911043e+07
8.386868e+07
7.747985e+07
6.992252e+07
6.173768e+07
5.233748e+07
4.249301e+07
3.141622e+07
2.312674e+07
1.241198e+07
5134679
4431652
1.071296e+07
1.760125e+07
2.909251e+07
4.134837e+07
5.238418e+07
6.298699e+07
7.228491e+07
8.119895e+07
8.92678e+07
9.607063e+07
1.016233e+08
1.058397e+08
1.086597e+08
1.099984e+08
1.100008e+08
1.086667e+08
1.058492e+08
1.01632e+08
9.607308e+07
8.925772e+07
8.117522e+07
7.224442e+07
6.293004e+07
5.231785e+07
4.12774e+07
2.903067e+07
1.756335e+07
1.069109e+07
4421100
6802828
1.474241e+07
2.610024e+07
3.510874e+07
4.964345e+07
6.176435e+07
7.227955e+07
8.23875e+07
9.183317e+07
1.002524e+08
1.07419e+08
1.132675e+08
1.176921e+08
1.206867e+08
1.222174e+08
1.222208e+08
1.206957e+08
1.177034e+08
1.132755e+08
1.074172e+08
1.002357e+08
9.180245e+07
8.234168e+07
7.222086e+07
6.169612e+07
4.957146e+07
3.50413e+07
2.604862e+07
1.470984e+07
6789408
4394715
1.148392e+07
2.22742e+07
3.17495e+07
4.504677e+07
5.817519e+07
6.992589e+07
8.119158e+07
9.183434e+07
1.016287e+08
1.103527e+08
1.177594e+08
1.238124e+08
1.285203e+08
1.317561e+08
1.33424e+08
1.334239e+08
1.317562e+08
1.285173e+08
1.238001e+08
1.177324e+08
1.103081e+08
1.015694e+08
9.176327e+07
8.111439e+07
6.984725e+07
5.809329e+07
4.496802e+07
3.167339e+07
2.222793e+07
1.145658e+07
4388250
6380466
1.401431e+07
2.572213e+07
3.926921e+07
5.215149e+07
6.5127e+07
7.746083e+07
8.925964e+07
1.002577e+08
1.103591e+08
1.192766e+08
1.269994e+08
1.333453e+08
1.382356e+08
1.415511e+08
1.432312e+08
1.432255e+08
1.415354e+08
1.382055e+08
1.332985e+08
1.269326e+08
1.191886e+08
1.102534e+08
1.001427e+08
8.914561e+07
7.735768e+07
6.50282e+07
5.206018e+07
3.917744e+07
2.5657e+07
1.397859e+07
6366481
7393879
1.652041e+07
2.914551e+07
4.415368e+07
5.797602e+07
7.089861e+07
8.383291e+07
9.606351e+07
1.074301e+08
1.17774e+08
1.270078e+08
1.350158e+08
1.415271e+08
1.464545e+08
1.49751e+08
1.51399e+08
1.513852e+08
1.497125e+08
1.463936e+08
1.414447e+08
1.349093e+08
1.268767e+08
1.176223e+08
1.072701e+08
9.591152e+07
8.370649e+07
7.078828e+07
5.787722e+07
4.405158e+07
2.906275e+07
1.647121e+07
7369719
8773200
2.197166e+07
3.237025e+07
4.786129e+07
6.19579e+07
7.570678e+07
8.906105e+07
1.016117e+08
1.132828e+08
1.238345e+08
1.333619e+08
1.415356e+08
1.481006e+08
1.530061e+08
1.562601e+08
1.57875e+08
1.578568e+08
1.56209e+08
1.529283e+08
1.479988e+08
1.414111e+08
1.332154e+08
1.236711e+08
1.131145e+08
1.014573e+08
8.893792e+07
7.560443e+07
6.186409e+07
4.776132e+07
3.227642e+07
2.188785e+07
8741406
4609214
1.256818e+07
2.415754e+07
3.76336e+07
5.095819e+07
6.492743e+07
7.922139e+07
9.293331e+07
1.058168e+08
1.177047e+08
1.28546e+08
1.382543e+08
1.464615e+08
1.530021e+08
1.578657e+08
1.610854e+08
1.626828e+08
1.626674e+08
1.61042e+08
1.577992e+08
1.529119e+08
1.463455e+08
1.38111e+08
1.28381e+08
1.175354e+08
1.056661e+08
9.281241e+07
7.912072e+07
6.483212e+07
5.085677e+07
3.753165e+07
2.407265e+07
1.252882e+07
4593255
5936873
1.321219e+07
2.495329e+07
3.960936e+07
5.284553e+07
6.68428e+07
8.14651e+07
9.546586e+07
1.086249e+08
1.206912e+08
1.317819e+08
1.415749e+08
1.497571e+08
1.562418e+08
1.610654e+08
1.642616e+08
1.658552e+08
1.658531e+08
1.642525e+08
1.610409e+08
1.561892e+08
1.496572e+08
1.414292e+08
1.316082e+08
1.205146e+08
1.084686e+08
9.533624e+07
8.135281e+07
6.673519e+07
5.273796e+07
3.950694e+07
2.487492e+07
1.317354e+07
5924411
6146061
1.344657e+07
2.533333e+07
4.039117e+07
5.371949e+07
6.777671e+07
8.256138e+07
9.670387e+07
1.099531e+08
1.222103e+08
1.33446e+08
1.432636e+08
1.514256e+08
1.578805e+08
1.626714e+08
1.658446e+08
1.674314e+08
1.674389e+08
1.658598e+08
1.626739e+08
1.578469e+08
1.513391e+08
1.431251e+08
1.332749e+08
1.220342e+08
1.097933e+08
9.65644e+07
8.243325e+07
6.765249e+07
5.360095e+07
4.028736e+07
2.526423e+07
1.34113e+07
6132480
6145693
1.344851e+07
2.534089e+07
4.039735e+07
5.372848e+07
6.778832e+07
8.257274e+07
9.671023e+07
1.09952e+08
1.222043e+08
1.334413e+08
1.432656e+08
1.514371e+08
1.579001e+08
1.626942e+08
1.658666e+08
1.674507e+08
1.674563e+08
1.658778e+08
1.626944e+08
1.57869e+08
1.513595e+08
1.431402e+08
1.332831e+08
1.220362e+08
1.097917e+08
9.656199e+07
8.243039e+07
6.764917e+07
5.35992e+07
4.028777e+07
2.526768e+07
1.341351e+07
6133717
5942639
1.321786e+07
2.496087e+07
3.962209e+07
5.286953e+07
6.687575e+07
8.149789e+07
9.548643e+07
1.086264e+08
1.206799e+08
1.317742e+08
1.41584e+08
1.497901e+08
1.562973e+08
1.611259e+08
1.643189e+08
1.659084e+08
1.659059e+08
1.643093e+08
1.611014e+08
1.562473e+08
1.497049e+08
1.414608e+08
1.31623e+08
1.205162e+08
1.084631e+08
9.532896e+07
8.134331e+07
6.672516e+07
5.273442e+07
3.951002e+07
2.48858e+07
1.318068e+07
5928803
4620689
1.256989e+07
2.415826e+07
3.764845e+07
5.099149e+07
6.497762e+07
7.92728e+07
9.297025e+07
1.058293e+08
1.177032e+08
1.285498e+08
1.382771e+08
1.465076e+08
1.530704e+08
1.579493e+08
1.611742e+08
1.627731e+08
1.62758e+08
1.611305e+08
1.578793e+08
1.529762e+08
1.463896e+08
1.38135e+08
1.283886e+08
1.175321e+08
1.05657e+08
9.280182e+07
7.910786e+07
6.481921e+07
5.085662e+07
3.754065e+07
2.408751e+07
1.253297e+07
4607403
8779802
2.196569e+07
3.238789e+07
4.790065e+07
6.202089e+07
7.577243e+07
8.911553e+07
1.016413e+08
1.133036e+08
1.238627e+08
1.334079e+08
1.416061e+08
1.481948e+08
1.531171e+08
1.563763e+08
1.579873e+08
1.57959e+08
1.562956e+08
1.529942e+08
1.480431e+08
1.414371e+08
1.332291e+08
1.236774e+08
1.131172e+08
1.014582e+08
8.893729e+07
7.560203e+07
6.185951e+07
4.777181e+07
3.229427e+07
2.19073e+07
8750345
7397443
1.653176e+07
2.916844e+07
4.419166e+07
5.804345e+07
7.097071e+07
8.390156e+07
9.611306e+07
1.074771e+08
1.178304e+08
1.270819e+08
1.351093e+08
1.416353e+08
1.465682e+08
1.49859e+08
1.51491e+08
1.51456e+08
1.497588e+08
1.464153e+08
1.414468e+08
1.349021e+08
1.268697e+08
1.176216e+08
1.072768e+08
9.592182e+07
8.371903e+07
7.080305e+07
5.788551e+07
4.407252e+07
2.90819e+07
1.647775e+07
7370626
6389751
1.403021e+07
2.575334e+07
3.930312e+07
5.221011e+07
6.519924e+07
7.753562e+07
8.932171e+07
1.003164e+08
1.104209e+08
1.193446e+08
1.270743e+08
1.334228e+08
1.38307e+08
1.416065e+08
1.432617e+08
1.432298e+08
1.415146e+08
1.38166e+08
1.332476e+08
1.268799e+08
1.191427e+08
1.102189e+08
1.001214e+08
8.913584e+07
7.736048e+07
6.504346e+07
5.207071e+07
3.919953e+07
2.566908e+07
1.398027e+07
6363102
4402147
1.149724e+07
2.231209e+07
3.177417e+07
4.508572e+07
5.823306e+07
6.998775e+07
8.124374e+07
9.187827e+07
1.016675e+08
1.103873e+08
1.177913e+08
1.238389e+08
1.285338e+08
1.317481e+08
1.333891e+08
1.333657e+08
1.316804e+08
1.284293e+08
1.237087e+08
1.176459e+08
1.102338e+08
1.015099e+08
9.172201e+07
8.109123e+07
6.984216e+07
5.810552e+07
4.497765e+07
3.169769e+07
2.222601e+07
1.145735e+07
4383001
6808754
1.475261e+07
2.613334e+07
3.512648e+07
4.968839e+07
6.181203e+07
7.232109e+07
8.241889e+07
9.185302e+07
1.002585e+08
1.074126e+08
1.132466e+08
1.176515e+08
1.206228e+08
1.221298e+08
1.221161e+08
1.205822e+08
1.175873e+08
1.131644e+08
1.073176e+08
1.00154e+08
9.174094e+07
8.230449e+07
7.220756e+07
6.170357e+07
4.959145e+07
3.505686e+07
2.606459e+07
1.470933e+07
6785519
4431136
1.072415e+07
1.761656e+07
2.913155e+07
4.13915e+07
5.242365e+07
6.301956e+07
7.230565e+07
8.120352e+07
8.925089e+07
9.603274e+07
1.015628e+08
1.05757e+08
1.085572e+08
1.0988e+08
1.098748e+08
1.085414e+08
1.057303e+08
1.015255e+08
9.598436e+07
8.919257e+07
8.113585e+07
7.223226e+07
6.294204e+07
5.234447e+07
4.131404e+07
2.906525e+07
1.757183e+07
1.069395e+07
4423645
5144033
1.245602e+07
2.321667e+07
3.150616e+07
4.258094e+07
5.241039e+07
6.178732e+07
6.993868e+07
7.745707e+07
8.381282e+07
8.902783e+07
9.289111e+07
9.541774e+07
9.665028e+07
9.665147e+07
9.542214e+07
9.289558e+07
8.902869e+07
8.38077e+07
7.744427e+07
6.991386e+07
6.175193e+07
5.236911e+07
4.253497e+07
3.146243e+07
2.316397e+07
1.242569e+07
5135643
5680435
1.406059e+07
2.4504e+07
3.149344e+07
4.137013e+07
4.965753e+07
5.818136e+07
6.512221e+07
7.088525e+07
7.568627e+07
7.919485e+07
8.143425e+07
8.252463e+07
8.252915e+07
8.145196e+07
7.922231e+07
7.571698e+07
7.091379e+07
6.514432e+07
5.818817e+07
4.964949e+07
4.135531e+07
3.147266e+07
2.447457e+07
1.40396e+07
5671157
5976188
1.405544e+07
2.320818e+07
2.911171e+07
3.511141e+07
4.50466e+07
5.214758e+07
5.796805e+07
6.194519e+07
6.491005e+07
6.682412e+07
6.775828e+07
6.776213e+07
6.684628e+07
6.494611e+07
6.198853e+07
5.801344e+07
5.21824e+07
4.506331e+07
3.510872e+07
2.91109e+07
2.32001e+07
1.404694e+07
5970457
5675377
1.24413e+07
1.760455e+07
2.611031e+07
3.17384e+07
3.925809e+07
4.414131e+07
4.785227e+07
5.094952e+07
5.283819e+07
5.370767e+07
5.370922e+07
5.285262e+07
5.097406e+07
4.788325e+07
4.417902e+07
3.929511e+07
3.177018e+07
2.612337e+07
1.760576e+07
1.244575e+07
5673950
5138263
1.070971e+07
1.473774e+07
2.227657e+07
2.571801e+07
2.913284e+07
3.236056e+07
3.762518e+07
3.960432e+07
4.038409e+07
4.038604e+07
3.961655e+07
3.764589e+07
3.2383e+07
2.916823e+07
2.575768e+07
2.230344e+07
1.474182e+07
1.071447e+07
5137480
4422643
6797543
1.147652e+07
1.400429e+07
1.650896e+07
2.195598e+07
2.41487e+07
2.495101e+07
2.533428e+07
2.533273e+07
2.495987e+07
2.416879e+07
2.198636e+07
1.653491e+07
1.402579e+07
1.149003e+07
6799687
4425995
4395899
6373707
7384840
8768000
1.256118e+07
1.320875e+07
1.344457e+07
1.344459e+07
1.321442e+07
1.257344e+07
8776848
7396574
6383720
4389143
4613673
5935219
6143108
6142793
5936502
4609300
3716688
5301824
6435499
7102904
7315550
7323631
7124914
6480450
5343529
3732916
3871541
6480633
8039895
1.182913e+07
1.420107e+07
1.913546e+07
2.046134e+07
2.092008e+07
2.090835e+07
2.044534e+07
1.912725e+07
1.421336e+07
1.185905e+07
8053371
6502784
3882220
5856973
1.239372e+07
1.881718e+07
2.177643e+07
2.47078e+07
2.779e+07
3.058813e+07
3.527447e+07
3.669166e+07
3.667875e+07
3.524975e+07
3.056843e+07
2.776794e+07
2.471147e+07
2.181183e+07
1.885748e+07
1.241795e+07
5866069
4380772
8680215
1.898219e+07
2.47834e+07
2.960677e+07
3.686165e+07
4.172246e+07
4.604865e+07
4.913055e+07
5.161386e+07
5.281411e+07