/*--------------------------------*- C++ -*----------------------------------*\
  =========                 |
  \\      /  F ield         | OpenFOAM: The Open Source CFD Toolbox
   \\    /   O peration     | Website:  https://openfoam.org
    \\  /    A nd           | Version:  6
     \\/     M anipulation  |
\*---------------------------------------------------------------------------*/
FoamFile
{
    version     2.0;
    format      ascii;
    class       volScalarField;
    location    "49.8/region0/neutronTransport";
    object      discFlux4;
}
// * * * * * * * * * * * * * * * * * * * * * * * * * * * * * * * * * * * * * //

dimensions      [0 -2 -1 0 0 0 0];

internalField   nonuniform List<scalar> 
203709
(
4.892557e+10
5.575334e+10
5.574825e+10
4.894783e+10
5.139961e+10
5.964223e+10
8.052273e+10
7.870836e+10
7.869989e+10
8.052867e+10
5.964822e+10
5.141273e+10
5.012285e+10
5.993898e+10
8.138421e+10
7.990603e+10
8.231419e+10
8.284947e+10
8.284793e+10
8.231364e+10
7.990332e+10
8.138522e+10
5.993832e+10
5.012241e+10
5.013038e+10
7.918407e+10
7.966672e+10
8.276229e+10
8.430791e+10
8.577412e+10
8.640876e+10
8.641241e+10
8.576763e+10
8.429625e+10
8.275319e+10
7.965714e+10
7.917902e+10
5.012495e+10
5.994267e+10
7.966703e+10
8.321602e+10
8.574176e+10
8.771071e+10
8.915469e+10
8.987005e+10
8.987117e+10
8.914303e+10
8.769578e+10
8.572769e+10
8.319838e+10
7.964949e+10
5.992738e+10
5.14068e+10
8.138612e+10
8.276685e+10
8.574221e+10
8.842892e+10
9.056978e+10
9.206199e+10
9.279587e+10
9.279295e+10
9.205302e+10
9.056061e+10
8.841221e+10
8.572378e+10
8.275125e+10
8.137406e+10
5.139416e+10
5.963835e+10
7.990051e+10
8.430479e+10
8.770301e+10
9.056605e+10
9.279947e+10
9.428018e+10
9.496342e+10
9.496061e+10
9.427681e+10
9.278819e+10
9.054886e+10
8.769079e+10
8.429254e+10
7.988483e+10
5.962798e+10
4.893597e+10
8.052564e+10
8.231798e+10
8.577664e+10
8.915575e+10
9.205762e+10
9.427825e+10
9.562106e+10
9.628884e+10
9.628909e+10
9.562216e+10
9.426956e+10
9.204736e+10
8.9142e+10
8.575829e+10
8.229774e+10
8.051425e+10
4.89094e+10
5.573646e+10
7.869251e+10
8.284362e+10
8.641532e+10
8.987416e+10
9.279262e+10
9.496398e+10
9.629079e+10
9.704131e+10
9.70143e+10
9.629142e+10
9.496728e+10
9.27945e+10
8.986362e+10
8.639439e+10
8.282612e+10
7.86722e+10
5.571615e+10
5.574458e+10
7.871209e+10
8.285058e+10
8.641194e+10
8.987302e+10
9.279614e+10
9.496462e+10
9.629381e+10
9.706858e+10
9.703982e+10
9.629726e+10
9.497021e+10
9.279454e+10
8.98673e+10
8.639666e+10
8.282623e+10
7.868315e+10
5.572749e+10
4.892057e+10
8.053953e+10
8.232215e+10
8.577943e+10
8.916091e+10
9.2067e+10
9.428974e+10
9.563759e+10
9.631073e+10
9.630214e+10
9.563508e+10
9.428781e+10
9.205888e+10
8.914787e+10
8.575829e+10
8.229277e+10
8.049681e+10
4.890867e+10
5.963573e+10
7.990597e+10
8.431667e+10
8.772299e+10
9.058472e+10
9.282146e+10
9.430354e+10
9.499473e+10
9.498057e+10
9.429611e+10
9.280362e+10
9.056113e+10
8.769154e+10
8.427989e+10
7.98714e+10
5.961447e+10
5.140926e+10
8.139972e+10
8.277927e+10
8.576312e+10
8.845175e+10
9.060018e+10
9.208644e+10
9.282911e+10
9.28151e+10
9.207253e+10
9.056917e+10
8.841475e+10
8.572039e+10
8.273539e+10
8.135421e+10
5.137967e+10
5.995559e+10
7.968738e+10
8.324481e+10
8.577589e+10
8.774505e+10
8.918886e+10
8.995051e+10
8.993677e+10
8.915782e+10
8.770035e+10
8.572146e+10
8.318756e+10
7.963924e+10
5.991709e+10
5.015062e+10
7.922384e+10
7.969775e+10
8.279652e+10
8.433304e+10
8.579498e+10
8.646694e+10
8.645564e+10
8.576293e+10
8.428534e+10
8.273317e+10
7.962654e+10
7.915259e+10
5.009511e+10
5.014683e+10
5.99582e+10
8.140678e+10
7.990653e+10
8.231701e+10
8.286602e+10
8.28656e+10
8.229137e+10
7.987326e+10
8.134932e+10
5.989732e+10
5.009265e+10
5.140007e+10
5.962729e+10
8.051405e+10
7.872487e+10
7.873363e+10
8.049477e+10
5.960405e+10
5.136918e+10
4.890688e+10
5.571396e+10
5.571687e+10
4.890073e+10
4.067242e+10
4.792417e+10
5.00073e+10
5.143971e+10
5.234862e+10
5.235328e+10
5.145419e+10
5.003037e+10
4.795603e+10
4.071139e+10
4.166211e+10
5.042274e+10
7.01343e+10
7.172759e+10
7.44433e+10
7.796575e+10
8.080242e+10
8.080956e+10
7.799276e+10
7.446637e+10
7.173905e+10
7.014084e+10
5.04298e+10
4.167645e+10
4.253789e+10
6.877938e+10
7.18453e+10
7.779009e+10
8.405041e+10
8.945046e+10
9.866922e+10
1.056653e+11
1.056715e+11
9.869198e+10
8.945654e+10
8.405095e+10
7.780691e+10
7.186595e+10
6.881764e+10
4.257148e+10
4.294783e+10
6.995735e+10
7.58702e+10
8.360089e+10
9.202201e+10
1.071938e+11
1.27222e+11
1.567513e+11
1.649779e+11
1.649813e+11
1.567424e+11
1.272294e+11
1.072166e+11
9.205505e+10
8.363506e+10
7.590548e+10
6.99822e+10
4.298004e+10
4.253251e+10
6.994514e+10
7.666848e+10
8.580302e+10
1.0476e+11
1.292164e+11
1.658433e+11
1.872676e+11
2.033133e+11
2.284401e+11
2.284396e+11
2.033266e+11
1.872802e+11
1.658461e+11
1.292462e+11
1.047797e+11
8.58359e+10
7.669225e+10
6.996462e+10
4.255788e+10
4.165867e+10
6.879087e+10
7.587016e+10
8.581217e+10
1.134178e+11
1.600638e+11
1.870582e+11
2.094256e+11
2.450486e+11
2.607751e+11
2.701101e+11
2.701074e+11
2.607691e+11
2.450393e+11
2.094207e+11
1.870487e+11
1.600373e+11
1.134103e+11
8.580372e+10
7.58734e+10
6.880146e+10
4.167626e+10
5.039523e+10
7.183134e+10
8.359745e+10
1.047668e+11
1.600642e+11
1.986406e+11
2.409338e+11
2.638883e+11
2.81822e+11
2.927987e+11
2.983967e+11
2.98391e+11
2.927798e+11
2.817981e+11
2.63858e+11
2.408914e+11
1.985951e+11
1.600217e+11
1.047356e+11
8.359193e+10
7.183812e+10
5.040828e+10
4.067335e+10
7.010559e+10
7.776629e+10
9.20209e+10
1.292162e+11
1.870905e+11
2.40948e+11
2.722356e+11
2.920487e+11
3.056398e+11
3.142115e+11
3.184328e+11
3.184247e+11
3.14185e+11
3.056047e+11
2.920041e+11
2.721801e+11
2.408914e+11
1.870485e+11
1.292035e+11
9.202139e+10
7.776467e+10
7.010365e+10
4.066849e+10
4.791861e+10
7.172254e+10
8.402657e+10
1.072078e+11
1.658939e+11
2.094809e+11
2.639238e+11
2.920662e+11
3.098583e+11
3.217173e+11
3.291587e+11
3.327722e+11
3.327634e+11
3.291326e+11
3.216787e+11
3.098048e+11
2.920011e+11
2.63854e+11
2.094223e+11
1.658505e+11
1.07169e+11
8.40187e+10
7.171181e+10
4.79105e+10
4.999614e+10
7.444572e+10
8.942706e+10
1.27203e+11
1.8733e+11
2.451088e+11
2.818702e+11
3.056728e+11
3.217363e+11
3.326353e+11
3.395066e+11
3.428576e+11
3.428495e+11
3.394843e+11
3.325951e+11
3.216791e+11
3.056055e+11
2.817939e+11
2.450229e+11
1.872288e+11
1.271874e+11
8.942962e+10
7.442452e+10
4.998659e+10
5.142042e+10
7.796767e+10
9.867888e+10
1.567828e+11
2.033828e+11
2.608491e+11
2.928619e+11
3.142645e+11
3.291998e+11
3.395315e+11
3.460622e+11
3.492565e+11
3.492453e+11
3.460377e+11
3.394892e+11
3.291452e+11
3.142022e+11
2.927904e+11
2.607669e+11
2.032996e+11
1.567445e+11
9.864562e+10
7.794316e+10
5.141724e+10
5.231723e+10
8.077598e+10
1.056466e+11
1.65009e+11
2.285037e+11
2.701863e+11
2.984748e+11
3.185061e+11
3.328351e+11
3.429078e+11
3.492868e+11
3.524246e+11
3.523982e+11
3.492566e+11
3.428707e+11
3.3279e+11
3.184514e+11
2.984107e+11
2.701169e+11
2.284353e+11
1.649697e+11
1.056299e+11
8.07681e+10
5.231755e+10
5.230926e+10
8.075671e+10
1.056219e+11
1.649884e+11
2.285017e+11
2.70193e+11
2.984841e+11
3.185179e+11
3.328496e+11
3.429232e+11
3.49308e+11
3.524605e+11
3.524331e+11
3.492804e+11
3.428901e+11
3.328068e+11
3.184668e+11
2.984255e+11
2.701332e+11
2.284482e+11
1.649542e+11
1.056074e+11
8.075004e+10
5.230648e+10
5.140162e+10
7.794592e+10
9.867523e+10
1.567915e+11
2.033659e+11
2.608619e+11
2.928913e+11
3.143032e+11
3.292461e+11
3.395848e+11
3.461261e+11
3.493328e+11
3.493151e+11
3.460991e+11
3.395477e+11
3.291984e+11
3.14249e+11
2.928336e+11
2.608098e+11
2.03334e+11
1.567555e+11
9.865466e+10
7.793797e+10
5.139621e+10
4.998695e+10
7.444592e+10
8.945517e+10
1.272321e+11
1.873329e+11
2.451418e+11
2.819251e+11
3.057443e+11
3.218194e+11
3.327311e+11
3.396133e+11
3.429755e+11
3.429572e+11
3.395827e+11
3.32683e+11
3.217579e+11
3.05677e+11
2.818584e+11
2.450833e+11
1.872991e+11
1.271754e+11
8.941046e+10
7.443265e+10
4.997885e+10
4.792265e+10
7.174304e+10
8.406434e+10
1.07221e+11
1.659471e+11
2.095473e+11
2.640112e+11
2.921697e+11
3.099754e+11
3.218508e+11
3.293017e+11
3.329202e+11
3.329004e+11
3.292639e+11
3.217916e+11
3.099003e+11
2.920868e+11
2.639258e+11
2.09457e+11
1.658655e+11
1.071776e+11
8.401156e+10
7.171689e+10
4.790857e+10
4.068254e+10
7.014546e+10
7.780965e+10
9.205124e+10
1.292862e+11
1.871786e+11
2.410641e+11
2.72369e+11
2.921987e+11
3.058027e+11
3.143829e+11
3.185883e+11
3.185679e+11
3.143333e+11
3.057295e+11
2.921069e+11
2.722686e+11
2.409595e+11
1.870688e+11
1.291902e+11
9.199571e+10
7.77507e+10
7.010274e+10
4.066784e+10
5.044025e+10
7.187051e+10
8.363285e+10
1.048164e+11
1.601633e+11
1.98759e+11
2.410802e+11
2.640551e+11
2.819956e+11
2.929763e+11
2.985382e+11
2.985195e+11
2.929224e+11
2.81915e+11
2.639531e+11
2.409725e+11
1.986514e+11
1.600482e+11
1.047269e+11
8.357676e+10
7.181124e+10
5.0383e+10
4.169479e+10
6.881703e+10
7.590499e+10
8.585036e+10
1.134792e+11
1.601611e+11
1.871931e+11
2.095868e+11
2.452103e+11
2.60943e+11
2.702433e+11
2.702336e+11
2.608952e+11
2.451339e+11
2.094845e+11
1.870977e+11
1.600695e+11
1.133857e+11
8.57717e+10
7.584886e+10
6.876474e+10
4.163472e+10
4.256426e+10
7.000346e+10
7.67148e+10
8.583228e+10
1.047879e+11
1.292679e+11
1.659672e+11
1.87388e+11
2.034253e+11
2.285226e+11
2.285226e+11
2.033929e+11
1.873211e+11
1.658705e+11
1.291944e+11
1.04722e+11
8.576594e+10
7.664828e+10
6.994505e+10
4.251647e+10
4.297509e+10
6.998621e+10
7.58861e+10
8.361916e+10
9.203696e+10
1.071817e+11
1.272137e+11
1.568087e+11
1.650104e+11
1.650051e+11
1.567644e+11
1.271673e+11
1.071496e+11
9.19779e+10
8.355598e+10
7.582743e+10
6.993376e+10
4.29387e+10
4.253282e+10
6.879391e+10
7.183965e+10
7.776208e+10
8.400582e+10
8.942311e+10
9.865584e+10
1.056235e+11
1.056177e+11
9.863528e+10
8.938218e+10
8.398267e+10
7.774152e+10
7.180514e+10
6.874935e+10
4.250456e+10
4.166456e+10
5.040104e+10
7.010469e+10
7.171047e+10
7.44277e+10
7.793883e+10
8.07646e+10
8.076396e+10
7.79313e+10
7.440649e+10
7.168293e+10
7.009989e+10
5.039334e+10
4.164869e+10
4.064816e+10
4.788841e+10
4.996003e+10
5.138278e+10
5.228941e+10
5.228919e+10
5.139471e+10
4.997278e+10
4.789583e+10
4.064564e+10
3.424736e+10
4.030642e+10
4.155861e+10
4.20175e+10
4.201083e+10
4.153803e+10
4.02649e+10
3.422811e+10
3.421518e+10
4.288951e+10
4.758268e+10
6.572585e+10
6.786988e+10
6.927694e+10
6.991506e+10
6.99087e+10
6.925502e+10
6.783401e+10
6.572746e+10
4.760598e+10
4.292268e+10
3.426969e+10
3.796671e+10
6.339968e+10
6.970492e+10
7.976878e+10
8.997436e+10
9.427591e+10
9.688752e+10
9.808873e+10
9.80835e+10
9.687186e+10
9.425167e+10
8.995353e+10
7.977689e+10
6.972562e+10
6.343391e+10
3.802582e+10
3.553754e+10
4.615285e+10
6.83266e+10
8.558228e+10
1.061203e+11
1.377371e+11
1.501573e+11
1.566099e+11
1.607781e+11
1.629086e+11
1.628967e+11
1.607445e+11
1.565589e+11
1.50096e+11
1.37684e+11
1.061151e+11
8.561625e+10
6.834195e+10
4.618545e+10
3.556024e+10
3.58167e+10
6.164175e+10
7.264161e+10
9.838613e+10
1.406307e+11
1.659929e+11
1.872389e+11
2.202623e+11
2.352819e+11
2.440565e+11
2.483461e+11
2.483345e+11
2.440276e+11
2.352453e+11
2.202324e+11
1.872454e+11
1.66006e+11
1.4063e+11
9.838854e+10
7.267767e+10
6.165005e+10
3.583019e+10
3.55377e+10
6.165773e+10
7.537184e+10
1.02975e+11
1.528612e+11
1.851835e+11
2.276096e+11
2.54589e+11
2.780902e+11
2.956442e+11
3.079834e+11
3.14007e+11
3.139961e+11
3.079614e+11
2.95601e+11
2.780343e+11
2.545402e+11
2.275578e+11
1.851415e+11
1.528377e+11
1.030005e+11
7.537642e+10
6.165237e+10
3.554926e+10
4.616809e+10
7.265182e+10
1.029837e+11
1.555204e+11
1.921303e+11
2.421379e+11
2.78341e+11
3.078247e+11
3.335816e+11
3.547637e+11
3.714462e+11
3.780357e+11
3.780231e+11
3.714076e+11
3.547093e+11
3.335277e+11
3.077789e+11
2.782896e+11
2.420897e+11
1.920867e+11
1.554622e+11
1.029788e+11
7.266289e+10
4.617964e+10
3.800362e+10
6.831601e+10
9.836474e+10
1.528887e+11
1.921214e+11
2.464911e+11
2.895729e+11
3.276954e+11
3.608572e+11
3.904531e+11
4.119382e+11
4.273893e+11
4.362029e+11
4.361916e+11
4.273568e+11
4.118889e+11
3.903948e+11
3.607963e+11
3.276289e+11
2.895212e+11
2.464388e+11
1.920868e+11
1.528526e+11
9.836994e+10
6.83247e+10
3.79997e+10
3.42172e+10
6.340201e+10
8.557109e+10
1.406171e+11
1.852321e+11
2.421837e+11
2.895992e+11
3.351532e+11
3.779201e+11
4.118924e+11
4.399771e+11
4.632365e+11
4.795796e+11
4.884148e+11
4.884025e+11
4.795442e+11
4.631837e+11
4.399118e+11
4.118094e+11
3.778265e+11
3.350703e+11
2.895154e+11
2.421085e+11
1.851741e+11
1.405537e+11
8.558469e+10
6.340387e+10
3.42086e+10
4.28979e+10
6.969924e+10
1.06084e+11
1.660308e+11
2.276507e+11
2.783981e+11
3.277254e+11
3.779291e+11
4.199598e+11
4.564062e+11
4.857024e+11
5.084014e+11
5.236256e+11
5.313985e+11
5.313833e+11
5.235829e+11
5.083392e+11
4.856227e+11
4.563075e+11
4.198507e+11
3.778196e+11
3.276188e+11
2.783088e+11
2.275759e+11
1.659411e+11
1.060924e+11
6.971139e+10
4.289162e+10
4.757222e+10
7.972988e+10
1.376565e+11
1.873054e+11
2.546409e+11
3.078878e+11
3.608939e+11
4.119278e+11
4.564282e+11
4.940153e+11
5.229927e+11
5.442903e+11
5.582819e+11
5.652544e+11
5.652373e+11
5.582332e+11
5.442186e+11
5.229019e+11
4.939075e+11
4.563121e+11
4.118138e+11
3.607912e+11
3.077983e+11
2.545704e+11
1.872316e+11
1.377015e+11
7.976174e+10
4.757779e+10
3.423647e+10
6.570729e+10
8.990232e+10
1.500893e+11
2.203091e+11
2.781522e+11
3.336536e+11
3.905332e+11
4.400549e+11
4.85759e+11
5.230232e+11
5.511601e+11
5.713725e+11
5.844826e+11
5.909451e+11
5.909278e+11
5.844327e+11
5.712961e+11
5.510619e+11
5.229074e+11
4.856323e+11
4.399279e+11
3.904169e+11
3.335503e+11
2.780759e+11
2.202491e+11
1.501355e+11
8.994846e+10
6.570235e+10
3.423402e+10
4.025599e+10
6.781673e+10
9.422433e+10
1.565806e+11
2.353304e+11
2.957191e+11
3.548347e+11
4.120391e+11
4.633406e+11
5.084895e+11
5.443546e+11
5.714081e+11
5.907853e+11
6.033204e+11
6.094907e+11
6.094742e+11
6.032731e+11
5.9071e+11
5.713099e+11
5.442387e+11
5.083604e+11
4.632055e+11
4.119131e+11
3.5475e+11
2.956434e+11
2.352761e+11
1.56598e+11
9.424693e+10
6.783664e+10
4.02746e+10
4.152406e+10
6.923456e+10
9.684833e+10
1.607846e+11
2.441236e+11
3.080859e+11
3.715561e+11
4.275163e+11
4.797113e+11
5.237457e+11
5.583837e+11
5.845602e+11
6.033645e+11
6.155362e+11
6.215243e+11
6.21506e+11
6.154878e+11
6.032899e+11
5.84466e+11
5.582757e+11
5.236259e+11
4.795846e+11
4.273986e+11
3.714655e+11
3.080007e+11
2.44067e+11
1.607749e+11
9.68603e+10
6.924799e+10
4.15323e+10
4.200286e+10
6.99003e+10
9.807271e+10
1.629486e+11
2.484348e+11
3.141178e+11
3.781669e+11
4.363514e+11
4.885729e+11
5.315536e+11
5.653977e+11
5.910673e+11
6.09583e+11
6.215768e+11
6.274774e+11
6.274544e+11
6.215259e+11
6.095116e+11
5.909805e+11
5.652987e+11
5.314448e+11
4.884592e+11
4.36244e+11
3.780785e+11
3.14042e+11
2.483742e+11
1.629176e+11
9.806385e+10
6.989226e+10
4.200112e+10
4.200804e+10
6.990823e+10
9.808211e+10
1.629659e+11
2.484462e+11
3.141231e+11
3.781738e+11
4.363624e+11
4.885907e+11
5.315776e+11
5.654266e+11
5.911002e+11
6.09619e+11
6.216172e+11
6.275233e+11
6.274997e+11
6.215666e+11
6.09549e+11
5.910152e+11
5.65331e+11
5.314753e+11
4.884881e+11
4.362658e+11
3.780872e+11
3.140486e+11
2.483802e+11
1.629164e+11
9.805853e+10
6.988835e+10
4.200079e+10
4.154685e+10
6.92686e+10
9.68828e+10
1.608376e+11
2.441599e+11
3.081252e+11
3.716092e+11
4.275614e+11
4.797684e+11
5.238199e+11
5.584724e+11
5.846606e+11
6.034757e+11
6.156576e+11
6.216532e+11
6.216312e+11
6.15605e+11
6.034001e+11
5.845695e+11
5.58373e+11
5.23718e+11
4.796699e+11
4.274686e+11
3.715155e+11
3.080457e+11
2.440838e+11
1.607573e+11
9.684294e+10
6.923807e+10
4.153268e+10
4.030117e+10
6.787248e+10
9.428019e+10
1.566743e+11
2.353956e+11
2.957999e+11
3.549404e+11
4.121401e+11
4.634514e+11
5.086214e+11
5.445084e+11
5.715815e+11
5.909754e+11
6.035226e+11
6.096985e+11
6.096749e+11
6.034635e+11
5.908879e+11
5.714761e+11
5.443958e+11
5.085088e+11
4.633426e+11
4.120348e+11
3.548294e+11
2.957061e+11
2.353042e+11
1.565508e+11
9.422067e+10
6.783199e+10
4.028022e+10
3.4283e+10
6.575779e+10
8.999877e+10
1.502407e+11
2.204009e+11
2.782741e+11
3.33781e+11
3.90688e+11
4.402281e+11
4.859556e+11
5.232438e+11
5.514036e+11
5.716356e+11
5.847563e+11
5.912169e+11
5.911905e+11
5.846878e+11
5.71534e+11
5.51281e+11
5.231121e+11
4.858219e+11
4.400959e+11
3.905678e+11
3.336801e+11
2.781682e+11
2.203053e+11
1.500777e+11
8.992439e+10
6.57242e+10
3.425969e+10
4.761807e+10
7.982457e+10
1.3784e+11
1.873925e+11
2.54795e+11
3.080362e+11
3.610877e+11
4.121524e+11
4.566784e+11
4.942915e+11
5.232948e+11
5.446105e+11
5.586064e+11
5.655587e+11
5.655299e+11
5.585283e+11
5.444949e+11
5.231557e+11
4.941425e+11
4.565258e+11
4.120013e+11
3.609613e+11
3.079301e+11
2.546704e+11
1.873192e+11
1.376572e+11
7.973916e+10
4.758286e+10
4.291897e+10
6.976795e+10
1.062125e+11
1.661534e+11
2.278271e+11
2.785589e+11
3.27921e+11
3.781738e+11
4.202335e+11
4.567125e+11
4.860398e+11
5.08753e+11
5.239739e+11
5.317116e+11
5.31683e+11
5.238923e+11
5.086303e+11
4.858928e+11
4.565597e+11
4.200802e+11
3.780222e+11
3.277953e+11
2.784387e+11
2.276843e+11
1.660786e+11
1.060891e+11
6.970308e+10
4.290313e+10
3.421922e+10
6.347793e+10
8.567616e+10
1.40749e+11
1.853862e+11
2.423418e+11
2.897865e+11
3.353863e+11
3.78188e+11
4.121999e+11
4.403227e+11
4.635896e+11
4.799263e+11
4.887271e+11
4.887039e+11
4.798512e+11
4.634712e+11
4.401795e+11
4.120596e+11
3.780514e+11
3.352546e+11
2.896691e+11
2.422215e+11
1.852358e+11
1.406766e+11
8.557313e+10
6.340248e+10
3.422583e+10
3.800294e+10
6.838475e+10
9.845765e+10
1.529827e+11
1.922752e+11
2.466695e+11
2.897889e+11
3.279342e+11
3.611276e+11
3.907659e+11
4.122574e+11
4.276997e+11
4.364829e+11
4.36467e+11
4.276403e+11
4.12156e+11
3.906426e+11
3.610122e+11
3.278213e+11
2.896802e+11
2.465733e+11
1.921909e+11
1.529133e+11
9.838836e+10
6.83193e+10
3.798365e+10
4.618989e+10
7.270878e+10
1.03058e+11
1.556344e+11
1.922552e+11
2.423404e+11
2.785726e+11
3.080709e+11
3.338248e+11
3.550151e+11
3.717157e+11
3.782931e+11
3.782786e+11
3.716675e+11
3.549434e+11
3.337457e+11
3.079762e+11
2.784775e+11
2.422536e+11
1.921877e+11
1.555648e+11
1.029887e+11
7.26478e+10
4.615171e+10
3.55706e+10
6.170397e+10
7.542148e+10
1.030429e+11
1.530066e+11
1.853676e+11
2.277867e+11
2.547849e+11
2.782914e+11
2.958508e+11
3.081981e+11
3.142068e+11
3.141963e+11
3.081771e+11
2.958086e+11
2.782382e+11
2.547346e+11
2.277531e+11
1.853244e+11
1.529541e+11
1.029969e+11
7.537604e+10
6.165835e+10
3.553998e+10
3.583191e+10
6.170168e+10
7.270512e+10
9.841615e+10
1.40675e+11
1.660597e+11
1.873644e+11
2.203821e+11
2.353917e+11
2.441728e+11
2.484574e+11
2.484489e+11
2.441821e+11
2.354081e+11
2.203882e+11
1.873489e+11
1.660837e+11
1.40699e+11
9.841063e+10
7.267769e+10
6.167266e+10
3.581448e+10
3.556288e+10
4.619087e+10
6.833798e+10
8.560783e+10
1.06104e+11
1.377299e+11
1.501233e+11
1.565647e+11
1.607575e+11
1.629871e+11
1.629637e+11
1.608075e+11
1.566407e+11
1.501972e+11
1.377911e+11
1.06143e+11
8.561443e+10
6.834282e+10
4.617131e+10
3.555514e+10
3.798126e+10
6.340829e+10
6.970216e+10
7.974335e+10
8.990688e+10
9.419101e+10
9.680791e+10
9.804475e+10
9.801931e+10
9.682916e+10
9.421813e+10
8.993284e+10
7.975449e+10
6.969736e+10
6.342882e+10
3.797859e+10
3.41906e+10
4.288777e+10
4.75652e+10
6.569904e+10
6.780073e+10
6.920629e+10
6.990795e+10
6.989951e+10
6.920837e+10
6.779954e+10
6.57101e+10
4.756458e+10
4.287456e+10
3.420951e+10
3.424118e+10
4.025156e+10
4.15008e+10
4.198918e+10
4.19856e+10
4.149643e+10
4.02407e+10
3.421313e+10
3.047576e+10
3.560938e+10
3.661752e+10
3.66087e+10
3.557881e+10
3.046764e+10
2.899564e+10
3.802102e+10
4.337386e+10
5.098573e+10
6.986566e+10
7.318267e+10
7.43989e+10
7.437251e+10
7.311691e+10
6.979129e+10
5.100685e+10
4.341726e+10
3.805775e+10
2.904922e+10
2.923516e+10
4.029014e+10
6.406724e+10
7.75409e+10
9.087725e+10
1.173953e+11
1.290625e+11
1.33339e+11
1.353731e+11
1.353304e+11
1.332336e+11
1.289758e+11
1.173969e+11
9.089089e+10
7.753925e+10
6.410251e+10
4.035187e+10
2.930842e+10
3.31007e+10
5.999092e+10
8.139009e+10
1.191816e+11
1.37628e+11
1.558874e+11
1.730399e+11
2.011942e+11
2.1177e+11
2.159254e+11
2.158851e+11
2.116653e+11
2.010722e+11
1.729463e+11
1.557884e+11
1.375573e+11
1.190805e+11
8.143894e+10
6.003101e+10
3.316881e+10
3.598436e+10
6.931872e+10
9.677759e+10
1.396757e+11
1.698554e+11
2.100925e+11
2.362393e+11
2.560894e+11
2.72666e+11
2.827537e+11
2.87376e+11
2.873386e+11
2.826519e+11
2.725294e+11
2.559576e+11
2.361357e+11
2.100223e+11
1.698055e+11
1.395949e+11
9.680539e+10
6.932802e+10
3.60177e+10
3.773176e+10
7.788017e+10
1.240063e+11
1.55665e+11
1.878124e+11
2.41066e+11
2.791853e+11
3.104353e+11
3.317754e+11
3.476704e+11
3.57892e+11
3.628224e+11
3.627874e+11
3.577946e+11
3.475314e+11
3.316206e+11
3.102841e+11
2.790635e+11
2.409992e+11
1.877689e+11
1.555755e+11
1.239279e+11
7.784692e+10
3.773318e+10
3.599853e+10
7.789397e+10
1.309536e+11
1.6846e+11
2.213239e+11
2.657763e+11
3.115032e+11
3.487888e+11
3.797488e+11
4.055575e+11
4.244136e+11
4.364211e+11
4.422387e+11
4.422076e+11
4.363361e+11
4.242949e+11
4.054284e+11
3.796242e+11
3.48667e+11
3.113907e+11
2.656541e+11
2.212023e+11
1.683452e+11
1.307935e+11
7.784785e+10
3.599633e+10
3.312615e+10
6.933151e+10
1.240633e+11
1.684643e+11
2.278053e+11
2.804827e+11
3.307651e+11
3.745254e+11
4.149462e+11
4.491302e+11
4.77196e+11
4.979939e+11
5.115867e+11
5.182079e+11
5.181808e+11
5.115135e+11
4.978856e+11
4.770692e+11
4.489977e+11
4.148054e+11
3.74381e+11
3.306121e+11
2.803334e+11
2.276569e+11
1.683462e+11
1.239569e+11
6.931126e+10
3.312439e+10
2.92622e+10
6.000843e+10
9.684524e+10
1.556929e+11
2.213604e+11
2.805128e+11
3.373344e+11
3.871699e+11
4.349565e+11
4.782198e+11
5.147148e+11
5.445036e+11
5.671138e+11
5.822174e+11
5.893649e+11
5.893389e+11
5.821446e+11
5.670079e+11
5.443824e+11
5.145861e+11
4.780786e+11
4.348048e+11
3.870016e+11
3.371471e+11
2.803381e+11
2.21209e+11
1.555903e+11
9.681689e+10
5.999949e+10
2.925674e+10
4.031972e+10
8.145374e+10
1.396636e+11
1.879264e+11
2.658443e+11
3.308294e+11
3.872065e+11
4.414146e+11
4.920906e+11
5.372809e+11
5.757768e+11
6.072007e+11
6.309692e+11
6.470388e+11
6.552295e+11
6.552052e+11
6.469695e+11
6.308674e+11
6.070813e+11
5.756445e+11
5.371356e+11
4.919386e+11
4.412488e+11
3.87028e+11
3.306433e+11
2.65678e+11
1.878008e+11
1.396097e+11
8.143376e+10
4.032474e+10
2.902884e+10
6.407136e+10
1.191542e+11
1.699075e+11
2.411972e+11
3.116018e+11
3.746244e+11
4.350333e+11
4.921287e+11
5.447088e+11
5.915813e+11
6.314156e+11
6.639915e+11
6.893351e+11
7.067424e+11
7.156983e+11
7.156742e+11
7.06674e+11
6.89234e+11
6.638692e+11
6.312736e+11
5.91424e+11
5.445437e+11
4.919515e+11
4.348475e+11
3.744336e+11
3.114118e+11
2.410384e+11
1.697535e+11
1.191274e+11
6.40625e+10
2.904985e+10
3.800464e+10
7.752682e+10
1.37609e+11
2.102019e+11
2.792959e+11
3.489045e+11
4.150566e+11
4.783164e+11
5.3734e+11
5.916053e+11
6.395665e+11
6.811451e+11
7.153375e+11
7.417023e+11
7.595841e+11
7.686492e+11
7.68624e+11
7.595134e+11
7.415975e+11
7.152083e+11
6.809944e+11
6.39399e+11
5.91428e+11
5.37155e+11
4.781311e+11
4.148694e+11
3.487095e+11
2.791324e+11
2.1002e+11
1.375174e+11
7.75051e+10
3.801949e+10
4.33803e+10
9.089002e+10
1.559406e+11
2.363828e+11
3.105314e+11
3.798812e+11
4.492545e+11
5.148239e+11
5.758538e+11
6.314674e+11
6.811735e+11
7.243198e+11
7.594289e+11
7.860181e+11
8.038272e+11
8.127579e+11
8.127321e+11
8.037542e+11
7.859088e+11
7.59294e+11
7.241649e+11
6.810038e+11
6.312901e+11
5.756754e+11
5.146501e+11
4.490829e+11
3.797025e+11
3.103811e+11
2.361868e+11
1.557889e+11
9.081528e+10
4.335068e+10
5.100424e+10
1.175176e+11
1.731983e+11
2.562538e+11
3.318936e+11
4.056957e+11
4.773328e+11
5.44627e+11
6.073087e+11
6.640827e+11
7.154049e+11
7.594664e+11
7.948736e+11
8.21342e+11
8.38909e+11
8.476621e+11
8.476369e+11
8.388372e+11
8.212324e+11
7.947371e+11
7.593099e+11
7.152335e+11
6.639051e+11
6.071353e+11
5.444632e+11
4.77176e+11
4.0554e+11
3.317505e+11
2.560589e+11
1.7299e+11
1.17302e+11
5.093978e+10
3.049097e+10
6.985942e+10
1.291984e+11
2.013818e+11
2.728459e+11
3.478206e+11
4.245681e+11
4.981497e+11
5.67256e+11
6.311078e+11
6.894654e+11
7.418137e+11
7.861014e+11
8.213885e+11
8.475995e+11
8.649207e+11
8.735294e+11
8.735057e+11
8.648529e+11
8.474947e+11
8.212572e+11
7.859504e+11
7.416481e+11
6.892944e+11
6.309454e+11
5.671112e+11
4.980078e+11
4.244281e+11
3.476743e+11
2.726464e+11
2.01142e+11
1.289762e+11
6.978e+10
3.045314e+10
3.558364e+10
7.319203e+10
1.334567e+11
2.119594e+11
2.829511e+11
3.580841e+11
4.366124e+11
5.117785e+11
5.824001e+11
6.472188e+11
7.069177e+11
7.597451e+11
8.03965e+11
8.390141e+11
8.649799e+11
8.821099e+11
8.906131e+11
8.905892e+11
8.82043e+11
8.648781e+11
8.388885e+11
8.038241e+11
7.595922e+11
7.067595e+11
6.470684e+11
5.822636e+11
5.116434e+11
4.364782e+11
3.579363e+11
2.827674e+11
2.11745e+11
1.332718e+11
7.31168e+10
3.558021e+10
3.661512e+10
7.443406e+10
1.354904e+11
2.161405e+11
2.876193e+11
3.63072e+11
4.424837e+11
5.184452e+11
5.895951e+11
6.554582e+11
7.159257e+11
7.688683e+11
8.129591e+11
8.478331e+11
8.736574e+11
8.90685e+11
8.991329e+11
8.991073e+11
8.906165e+11
8.73557e+11
8.477129e+11
8.12826e+11
7.687258e+11
7.157788e+11
6.553162e+11
5.894625e+11
5.183146e+11
4.423486e+11
3.62923e+11
2.87451e+11
2.159676e+11
1.353737e+11
7.438691e+10
3.661581e+10
3.661892e+10
7.444785e+10
1.355297e+11
2.161659e+11
2.87648e+11
3.631033e+11
4.425147e+11
5.184747e+11
5.896256e+11
6.554899e+11
7.159614e+11
7.689102e+11
8.130073e+11
8.478866e+11
8.737147e+11
8.907448e+11
8.991941e+11
8.991671e+11
8.90673e+11
8.736102e+11
8.477632e+11
8.128738e+11
7.687708e+11
7.158203e+11
6.553519e+11
5.894921e+11
5.183424e+11
4.423751e+11
3.62951e+11
2.874899e+11
2.160132e+11
1.354184e+11
7.44113e+10
3.662747e+10
3.561711e+10
7.322429e+10
1.334936e+11
2.120064e+11
2.830257e+11
3.58174e+11
4.36702e+11
5.118708e+11
5.825012e+11
6.473218e+11
7.0703e+11
7.598742e+11
8.041122e+11
8.391764e+11
8.651543e+11
8.822914e+11
8.907961e+11
8.907665e+11
8.822114e+11
8.650374e+11
8.390398e+11
8.039684e+11
7.59729e+11
7.06886e+11
6.471796e+11
5.823594e+11
5.117308e+11
4.365521e+11
3.580102e+11
2.82876e+11
2.118724e+11
1.333974e+11
7.319055e+10
3.561898e+10
3.05336e+10
6.985724e+10
1.291948e+11
2.014304e+11
2.729473e+11
3.479638e+11
4.247126e+11
4.983067e+11
5.674328e+11
6.31294e+11
6.896655e+11
7.420383e+11
7.86354e+11
8.21666e+11
8.478942e+11
8.652237e+11
8.73831e+11
8.737974e+11
8.651315e+11
8.477589e+11
8.215085e+11
7.861908e+11
7.41877e+11
6.895079e+11
6.311387e+11
5.672776e+11
4.981537e+11
4.245481e+11
3.477813e+11
2.728062e+11
2.013203e+11
1.291344e+11
6.983977e+10
3.053164e+10
5.102666e+10
1.174732e+11
1.732595e+11
2.563794e+11
3.320895e+11
4.05891e+11
4.775538e+11
5.448689e+11
6.07575e+11
6.64375e+11
7.157293e+11
7.598239e+11
7.952604e+11
8.21749e+11
8.393232e+11
8.480699e+11
8.480318e+11
8.392182e+11
8.215949e+11
7.95081e+11
7.59638e+11
7.155458e+11
6.641983e+11
6.074081e+11
5.447088e+11
4.773889e+11
4.057187e+11
3.318909e+11
2.562504e+11
1.731725e+11
1.174618e+11
5.100304e+10
4.339877e+10
9.093892e+10
1.560302e+11
2.365045e+11
3.107574e+11
3.801106e+11
4.495278e+11
5.151186e+11
5.761842e+11
6.318361e+11
6.815793e+11
7.247627e+11
7.599041e+11
7.865134e+11
8.04325e+11
8.132398e+11
8.131987e+11
8.042101e+11
7.863449e+11
7.597082e+11
7.245598e+11
6.813796e+11
6.316446e+11
5.760092e+11
5.1495e+11
4.493511e+11
3.799437e+11
3.105558e+11
2.363956e+11
1.559427e+11
9.088117e+10
4.336462e+10
3.805944e+10
7.761162e+10
1.377486e+11
2.103174e+11
2.795022e+11
3.491604e+11
4.153626e+11
4.786421e+11
5.377028e+11
5.920151e+11
6.400177e+11
6.816382e+11
7.158657e+11
7.42248e+11
7.601267e+11
7.691684e+11
7.691269e+11
7.600094e+11
7.420751e+11
7.156651e+11
6.81433e+11
6.398184e+11
5.918247e+11
5.375273e+11
4.784673e+11
4.151806e+11
3.490053e+11
2.793416e+11
2.102379e+11
1.376297e+11
7.753302e+10
3.800758e+10
2.906873e+10
6.413756e+10
1.193378e+11
1.699996e+11
2.413397e+11
3.118391e+11
3.749209e+11
4.353637e+11
4.925016e+11
5.451313e+11
5.920471e+11
6.319234e+11
6.64534e+11
6.898905e+11
7.072916e+11
7.162247e+11
7.161869e+11
7.071827e+11
6.897274e+11
6.643446e+11
6.317326e+11
5.918628e+11
5.449562e+11
4.923378e+11
4.352002e+11
3.747587e+11
3.117233e+11
2.412449e+11
1.699634e+11
1.191597e+11
6.40837e+10
2.903401e+10
4.03472e+10
8.149933e+10
1.398144e+11
1.879845e+11
2.660495e+11
3.310911e+11
3.875222e+11
4.417827e+11
4.925097e+11
5.37739e+11
5.76269e+11
6.07721e+11
6.314984e+11
6.475621e+11
6.557353e+11
6.557048e+11
6.474718e+11
6.313608e+11
6.07561e+11
5.761086e+11
5.375838e+11
4.923625e+11
4.416471e+11
3.873963e+11
3.309833e+11
2.659679e+11
1.879615e+11
1.397332e+11
8.144413e+10
4.031486e+10
2.926435e+10
6.006173e+10
9.691717e+10
1.558793e+11
2.215785e+11
2.807565e+11
3.376313e+11
3.875243e+11
4.353658e+11
4.78663e+11
5.151813e+11
5.449806e+11
5.675957e+11
5.827018e+11
5.898426e+11
5.898188e+11
5.826338e+11
5.674942e+11
5.448633e+11
5.150597e+11
4.785459e+11
4.352534e+11
3.874198e+11
3.375307e+11
2.806562e+11
2.214758e+11
1.557816e+11
9.685028e+10
6.002349e+10
2.926926e+10
3.313247e+10
6.941293e+10
1.242085e+11
1.68607e+11
2.279887e+11
2.807397e+11
3.310924e+11
3.749044e+11
4.15339e+11
4.495442e+11
4.776197e+11
4.9842e+11
5.120168e+11
5.186357e+11
5.18619e+11
5.119767e+11
4.983598e+11
4.775491e+11
4.494771e+11
4.152814e+11
3.748356e+11
3.310187e+11
2.806792e+11
2.279334e+11
1.685643e+11
1.241002e+11
6.935827e+10
3.312978e+10
3.601153e+10
7.794579e+10
1.311186e+11
1.685698e+11
2.215466e+11
2.660337e+11
3.118005e+11
3.490959e+11
3.800824e+11
4.058971e+11
4.247541e+11
4.367748e+11
4.426052e+11
4.425921e+11
4.367619e+11
4.247434e+11
4.058852e+11
3.800726e+11
3.490932e+11
3.117698e+11
2.659843e+11
2.21516e+11
1.685468e+11
1.310709e+11
7.791608e+10
3.599745e+10
3.773852e+10
7.793265e+10
1.242064e+11
1.558537e+11
1.880282e+11
2.413252e+11
2.794348e+11
3.106817e+11
3.320338e+11
3.479383e+11
3.581891e+11
3.631684e+11
3.631483e+11
3.581886e+11
3.479508e+11
3.320542e+11
3.107153e+11
2.794496e+11
2.412946e+11
1.879549e+11
1.558382e+11
1.241924e+11
7.792686e+10
3.773277e+10
3.598417e+10
6.936199e+10
9.691109e+10
1.397879e+11
1.699404e+11
2.10256e+11
2.364485e+11
2.563416e+11
2.729315e+11
2.830338e+11
2.876636e+11
2.876357e+11
2.830051e+11
2.729019e+11
2.563191e+11