/*--------------------------------*- C++ -*----------------------------------*\
  =========                 |
  \\      /  F ield         | OpenFOAM: The Open Source CFD Toolbox
   \\    /   O peration     | Website:  https://openfoam.org
    \\  /    A nd           | Version:  6
     \\/     M anipulation  |
\*---------------------------------------------------------------------------*/
FoamFile
{
    version     2.0;
    format      ascii;
    class       volScalarField;
    location    "49.8/region0/neutronTransport";
    object      discFlux1;
}
// * * * * * * * * * * * * * * * * * * * * * * * * * * * * * * * * * * * * * //

dimensions      [0 -2 -1 0 0 0 0];

internalField   nonuniform List<scalar> 
203709
(
1.29851e+17
1.438267e+17
1.438171e+17
1.299009e+17
1.357983e+17
1.530955e+17
1.921556e+17
1.899522e+17
1.899409e+17
1.921796e+17
1.531299e+17
1.358565e+17
1.325625e+17
1.536099e+17
1.945394e+17
1.937427e+17
1.994381e+17
2.008486e+17
2.008552e+17
1.994661e+17
1.937856e+17
1.946075e+17
1.536798e+17
1.326354e+17
1.3256e+17
1.889937e+17
1.928573e+17
2.005661e+17
2.045313e+17
2.080552e+17
2.096175e+17
2.096373e+17
2.080832e+17
2.045736e+17
2.006333e+17
1.929371e+17
1.890917e+17
1.326358e+17
1.535735e+17
1.928331e+17
2.016885e+17
2.079356e+17
2.126679e+17
2.160965e+17
2.178077e+17
2.178244e+17
2.161176e+17
2.127065e+17
2.079951e+17
2.017558e+17
1.929091e+17
1.536382e+17
1.357228e+17
1.944589e+17
2.00521e+17
2.079106e+17
2.14344e+17
2.194213e+17
2.229474e+17
2.246982e+17
2.247065e+17
2.229692e+17
2.194625e+17
2.143886e+17
2.079664e+17
2.005927e+17
1.945461e+17
1.357739e+17
1.529682e+17
1.936205e+17
2.044454e+17
2.126069e+17
2.19396e+17
2.246704e+17
2.281827e+17
2.298424e+17
2.298477e+17
2.282061e+17
2.246967e+17
2.194306e+17
2.126718e+17
2.045317e+17
1.937156e+17
1.530579e+17
1.297443e+17
1.919935e+17
1.992999e+17
2.079495e+17
2.160279e+17
2.229059e+17
2.281694e+17
2.314296e+17
2.330492e+17
2.330548e+17
2.31451e+17
2.281926e+17
2.229524e+17
2.161011e+17
2.080455e+17
1.994142e+17
1.921344e+17
1.298081e+17
1.436428e+17
1.897388e+17
2.006624e+17
2.094854e+17
2.17713e+17
2.246313e+17
2.298125e+17
2.33036e+17
2.347996e+17
2.347505e+17
2.330395e+17
2.298375e+17
2.246842e+17
2.17784e+17
2.095773e+17
2.007876e+17
1.898664e+17
1.437386e+17
1.436515e+17
1.89766e+17
2.006633e+17
2.09463e+17
2.176935e+17
2.246217e+17
2.297988e+17
2.330255e+17
2.348283e+17
2.347712e+17
2.330207e+17
2.298099e+17
2.246509e+17
2.177597e+17
2.095552e+17
2.007682e+17
1.898721e+17
1.437524e+17
1.296895e+17
1.919909e+17
1.992741e+17
2.07914e+17
2.159927e+17
2.228769e+17
2.28146e+17
2.314147e+17
2.330372e+17
2.330138e+17
2.31396e+17
2.281391e+17
2.228875e+17
2.160344e+17
2.079809e+17
1.993554e+17
1.920632e+17
1.297878e+17
1.529242e+17
1.935799e+17
2.044105e+17
2.125825e+17
2.193676e+17
2.246476e+17
2.281614e+17
2.298293e+17
2.298019e+17
2.281467e+17
2.246261e+17
2.193586e+17
2.125908e+17
2.044422e+17
1.93642e+17
1.530052e+17
1.356826e+17
1.944168e+17
2.004737e+17
2.078743e+17
2.143076e+17
2.19395e+17
2.22909e+17
2.246733e+17
2.24654e+17
2.229021e+17
2.193736e+17
2.142946e+17
2.078742e+17
2.004968e+17
1.944625e+17
1.357318e+17
1.535392e+17
1.927905e+17
2.016543e+17
2.079064e+17
2.126361e+17
2.160646e+17
2.178607e+17
2.178462e+17
2.160396e+17
2.126062e+17
2.078778e+17
2.016394e+17
1.928085e+17
1.535655e+17
1.325479e+17
1.889825e+17
1.928272e+17
2.005344e+17
2.044784e+17
2.079932e+17
2.096231e+17
2.096138e+17
2.079675e+17
2.044438e+17
2.004888e+17
1.927831e+17
1.889562e+17
1.325197e+17
1.325653e+17
1.535847e+17
1.944835e+17
1.936426e+17
1.993379e+17
2.007766e+17
2.007847e+17
1.993173e+17
1.936231e+17
1.944352e+17
1.535224e+17
1.325128e+17
1.357292e+17
1.529807e+17
1.920218e+17
1.898702e+17
1.898924e+17
1.920084e+17
1.529587e+17
1.356953e+17
1.29735e+17
1.436639e+17
1.436734e+17
1.297317e+17
1.086271e+17
1.243841e+17
1.29583e+17
1.331455e+17
1.353791e+17
1.35384e+17
1.331604e+17
1.296038e+17
1.244117e+17
1.086654e+17
1.10853e+17
1.302069e+17
1.682273e+17
1.736998e+17
1.80107e+17
1.872888e+17
1.929886e+17
1.92998e+17
1.873249e+17
1.801292e+17
1.736941e+17
1.682061e+17
1.301734e+17
1.108346e+17
1.134498e+17
1.652953e+17
1.746194e+17
1.884237e+17
2.016441e+17
2.127074e+17
2.27361e+17
2.393537e+17
2.393624e+17
2.273922e+17
2.127005e+17
2.016181e+17
1.884213e+17
1.746223e+17
1.653413e+17
1.134809e+17
1.145611e+17
1.683759e+17
1.837877e+17
2.008283e+17
2.186022e+17
2.44454e+17
2.76653e+17
3.097302e+17
3.212909e+17
3.212989e+17
3.097267e+17
2.766646e+17
2.444912e+17
2.186595e+17
2.00889e+17
1.838524e+17
1.684228e+17
1.146193e+17
1.134075e+17
1.683278e+17
1.856486e+17
2.056375e+17
2.395216e+17
2.80593e+17
3.259242e+17
3.585473e+17
3.828884e+17
4.221661e+17
4.221738e+17
3.829344e+17
3.586044e+17
3.2598e+17
2.806878e+17
2.396037e+17
2.057403e+17
1.857307e+17
1.684039e+17
1.134794e+17
1.107986e+17
1.652625e+17
1.837341e+17
2.056157e+17
2.522482e+17
3.15529e+17
3.582397e+17
3.934129e+17
4.498515e+17
4.751171e+17
4.900429e+17
4.900544e+17
4.751554e+17
4.499129e+17
3.93502e+17
3.583351e+17
3.156081e+17
2.523442e+17
2.05696e+17
1.838225e+17
1.653529e+17
1.10873e+17
1.300828e+17
1.745033e+17
2.007319e+17
2.394516e+17
3.154801e+17
3.75308e+17
4.42978e+17
4.803775e+17
5.09594e+17
5.276345e+17
5.368377e+17
5.36852e+17
5.276738e+17
5.096686e+17
4.804821e+17
4.43091e+17
3.754214e+17
3.155912e+17
2.395486e+17
2.008468e+17
1.746203e+17
1.301746e+17
1.085698e+17
1.680838e+17
1.882649e+17
2.184764e+17
2.804692e+17
3.58187e+17
4.429417e+17
4.936973e+17
5.263883e+17
5.489885e+17
5.633448e+17
5.704429e+17
5.704593e+17
5.633888e+17
5.490727e+17
5.265062e+17
4.938354e+17
4.430965e+17
3.58346e+17
2.806341e+17
2.18617e+17
1.883789e+17
1.681653e+17
1.086037e+17
1.242974e+17
1.735889e+17
2.014695e+17
2.443193e+17
3.258382e+17
3.933461e+17
4.803123e+17
5.263503e+17
5.559804e+17
5.759606e+17
5.885986e+17
5.94772e+17
5.947888e+17
5.886492e+17
5.760503e+17
5.561003e+17
5.264957e+17
4.804752e+17
3.935089e+17
3.259918e+17
2.444094e+17
2.015746e+17
1.736526e+17
1.243347e+17
1.294741e+17
1.799971e+17
2.12521e+17
2.764316e+17
3.584282e+17
4.497222e+17
5.094774e+17
5.489025e+17
5.759188e+17
5.944566e+17
6.062303e+17
6.120001e+17
6.120154e+17
6.062807e+17
5.945368e+17
5.760286e+17
5.490465e+17
5.096416e+17
4.498776e+17
3.585228e+17
2.76601e+17
2.126652e+17
1.800662e+17
1.295294e+17
1.330083e+17
1.871603e+17
2.272128e+17
3.095598e+17
3.827389e+17
4.749518e+17
5.274753e+17
5.632201e+17
5.885208e+17
6.061982e+17
6.174413e+17
6.229641e+17
6.229699e+17
6.174754e+17
6.062576e+17
5.886176e+17
5.633602e+17
5.276448e+17
4.751236e+17
3.828814e+17
3.097271e+17
2.273292e+17
1.872597e+17
1.331071e+17
1.352053e+17
1.927913e+17
2.39134e+17
3.210886e+17
4.219539e+17
4.898276e+17
5.366396e+17
5.702812e+17
5.946575e+17
6.119393e+17
6.229455e+17
6.283839e+17
6.283613e+17
6.229598e+17
6.119923e+17
5.947545e+17
5.7042e+17
5.368113e+17
4.90017e+17
4.221365e+17
3.212672e+17
2.393034e+17
1.929467e+17
1.353378e+17
1.351767e+17
1.927398e+17
2.390739e+17
3.210398e+17
4.219332e+17
4.898151e+17
5.366236e+17
5.702625e+17
5.946394e+17
6.119215e+17
6.229378e+17
6.283998e+17
6.283739e+17
6.229523e+17
6.119764e+17
5.94734e+17
5.703989e+17
5.367926e+17
4.900066e+17
4.221294e+17
3.212242e+17
2.392531e+17
1.929072e+17
1.353138e+17
1.329366e+17
1.870717e+17
2.27159e+17
3.09524e+17
3.826584e+17
4.749009e+17
5.274311e+17
5.631738e+17
5.88475e+17
6.061582e+17
6.174168e+17
6.229586e+17
6.229518e+17
6.174409e+17
6.06216e+17
5.885674e+17
5.633046e+17
5.275942e+17
4.750906e+17
3.828608e+17
3.09696e+17
2.273184e+17
1.872325e+17
1.33062e+17
1.294077e+17
1.799291e+17
2.125069e+17
2.764149e+17
3.583499e+17
4.496598e+17
5.094187e+17
5.48845e+17
5.758607e+17
5.944062e+17
6.061908e+17
6.119763e+17
6.119741e+17
6.062235e+17
5.944636e+17
5.759455e+17
5.489623e+17
5.095666e+17
4.498297e+17
3.585382e+17
2.7654e+17
2.12616e+17
1.800732e+17
1.295158e+17
1.242529e+17
1.73551e+17
2.014683e+17
2.442681e+17
3.258174e+17
3.933087e+17
4.802589e+17
5.262889e+17
5.559156e+17
5.759044e+17
5.885485e+17
5.947287e+17
5.947288e+17
5.885816e+17
5.759599e+17
5.559935e+17
5.263909e+17
4.803769e+17
3.934081e+17
3.259152e+17
2.443955e+17
2.01554e+17
1.736677e+17
1.243392e+17
1.085401e+17
1.680805e+17
1.882774e+17
2.184497e+17
2.804842e+17
3.58172e+17
4.429094e+17
4.9365e+17
5.263363e+17
5.489352e+17
5.632955e+17
5.703738e+17
5.703745e+17
5.633135e+17
5.489725e+17
5.263897e+17
4.937211e+17
4.429862e+17
3.582228e+17
2.805328e+17
2.185422e+17
1.883357e+17
1.681613e+17
1.086079e+17
1.30122e+17
1.745147e+17
2.007164e+17
2.394476e+17
3.154872e+17
3.752911e+17
4.429464e+17
4.803414e+17
5.095401e+17
5.275755e+17
5.367277e+17
5.367293e+17
5.275802e+17
5.095526e+17
4.803574e+17
4.429762e+17
3.753193e+17
3.154939e+17
2.394685e+17
2.007837e+17
1.745468e+17
1.301212e+17
1.108336e+17
1.652505e+17
1.837277e+17
2.05611e+17
2.522454e+17
3.155035e+17
3.582274e+17
3.934049e+17
4.497937e+17
4.750535e+17
4.899276e+17
4.89938e+17
4.750504e+17
4.497828e+17
3.9337e+17
3.582162e+17
3.155039e+17
2.522267e+17
2.05603e+17
1.837575e+17
1.652672e+17
1.107902e+17
1.134387e+17
1.683748e+17
1.856629e+17
2.056048e+17
2.394547e+17
2.805257e+17
3.25901e+17
3.584828e+17
3.827914e+17
4.220047e+17
4.220222e+17
3.827864e+17
3.584429e+17
3.258289e+17
2.804894e+17
2.394313e+17
2.055773e+17
1.856354e+17
1.683604e+17
1.134071e+17
1.14573e+17
1.68353e+17
1.837321e+17
2.007607e+17
2.1851e+17
2.442898e+17
2.764695e+17
3.096029e+17
3.211172e+17
3.211178e+17
3.095566e+17
2.76423e+17
2.442741e+17
2.184533e+17
2.007003e+17
1.836842e+17
1.683196e+17
1.145483e+17
1.133848e+17
1.652455e+17
1.745179e+17
1.882693e+17
2.014526e+17
2.125398e+17
2.272075e+17
2.391517e+17
2.391439e+17
2.271762e+17
2.12475e+17
2.014222e+17
1.882541e+17
1.744846e+17
1.651966e+17
1.133581e+17
1.108028e+17
1.300947e+17
1.680767e+17
1.73569e+17
1.799737e+17
1.871289e+17
1.928025e+17
1.928001e+17
1.871129e+17
1.799328e+17
1.735199e+17
1.680718e+17
1.300854e+17
1.107773e+17
1.085171e+17
1.242377e+17
1.29407e+17
1.329467e+17
1.351768e+17
1.35173e+17
1.329631e+17
1.294207e+17
1.242381e+17
1.08498e+17
9.196049e+16
1.050775e+17
1.082764e+17
1.094947e+17
1.094742e+17
1.08215e+17
1.04963e+17
9.187479e+16
9.185108e+16
1.112072e+17
1.221707e+17
1.560831e+17
1.619949e+17
1.654533e+17
1.670252e+17
1.670057e+17
1.653897e+17
1.61892e+17
1.560516e+17
1.221622e+17
1.112211e+17
9.191978e+16
1.015303e+17
1.511417e+17
1.659933e+17
1.838566e+17
2.033167e+17
2.122483e+17
2.177214e+17
2.202855e+17
2.202692e+17
2.176722e+17
2.121699e+17
2.032363e+17
1.838232e+17
1.65986e+17
1.511702e+17
1.016185e+17
9.496079e+16
1.192318e+17
1.627657e+17
1.949509e+17
2.299129e+17
2.700182e+17
2.899305e+17
3.014178e+17
3.090499e+17
3.130063e+17
3.129865e+17
3.08994e+17
3.013346e+17
2.898353e+17
2.69939e+17
2.298716e+17
1.949795e+17
1.627746e+17
1.192766e+17
9.500025e+16
9.58609e+16
1.479348e+17
1.725022e+17
2.168039e+17
2.750233e+17
3.15646e+17
3.4964e+17
4.031247e+17
4.280596e+17
4.427533e+17
4.50066e+17
4.500513e+17
4.427188e+17
4.28022e+17
4.031088e+17
3.496861e+17
3.15707e+17
2.750668e+17
2.168001e+17
1.725576e+17
1.479587e+17
9.58912e+16
9.493429e+16
1.479476e+17
1.783037e+17
2.257736e+17
2.955828e+17
3.463759e+17
4.151927e+17
4.596627e+17
4.982673e+17
5.269664e+17
5.465059e+17
5.562496e+17
5.562393e+17
5.464915e+17
5.26932e+17
4.982307e+17
4.596581e+17
4.152005e+17
3.463996e+17
2.956215e+17
2.258264e+17
1.783099e+17
1.479619e+17
9.496961e+16
1.192281e+17
1.725009e+17
2.257674e+17
3.003512e+17
3.581985e+17
4.392537e+17
4.986435e+17
5.470635e+17
5.885214e+17
6.220978e+17
6.46227e+17
6.561221e+17
6.56114e+17
6.462024e+17
6.22072e+17
5.885241e+17
5.471081e+17
4.98703e+17
4.393278e+17
3.582594e+17
3.003681e+17
2.257978e+17
1.725418e+17
1.192682e+17
1.015609e+17
1.626971e+17
2.167147e+17
2.95573e+17
3.581498e+17
4.464552e+17
5.16836e+17
5.786949e+17
6.321205e+17
6.774307e+17
7.111854e+17
7.352266e+17
7.490959e+17
7.490969e+17
7.352327e+17
7.112034e+17
6.774747e+17
6.321963e+17
5.787898e+17
5.169669e+17
4.46578e+17
3.582652e+17
2.95653e+17
2.167879e+17
1.627594e+17
1.015834e+17
9.179241e+16
1.510675e+17
1.948582e+17
2.74913e+17
3.463658e+17
4.392452e+17
5.168241e+17
5.900288e+17
6.567909e+17
7.110864e+17
7.558517e+17
7.931734e+17
8.194427e+17
8.336692e+17
8.336772e+17
8.194698e+17
7.932277e+17
7.559399e+17
7.111936e+17
6.569173e+17
5.90188e+17
5.169764e+17
4.393836e+17
3.464773e+17
2.749706e+17
1.949642e+17
1.511396e+17
9.183209e+16
1.111441e+17
1.658998e+17
2.297448e+17
3.155723e+17
4.151121e+17
4.985908e+17
5.786176e+17
6.567273e+17
7.232888e+17
7.819783e+17
8.294337e+17
8.663149e+17
8.911141e+17
9.038004e+17
9.03814e+17
8.911594e+17
8.664025e+17
8.295629e+17
7.821364e+17
7.234737e+17
6.569326e+17
5.788182e+17
4.987845e+17
4.152792e+17
3.156434e+17
2.298942e+17
1.66014e+17
1.112109e+17
1.220638e+17
1.836829e+17
2.697411e+17
3.495735e+17
4.595423e+17
5.469493e+17
6.319722e+17
7.109721e+17
7.819156e+17
8.427545e+17
8.90001e+17
9.24861e+17
9.478295e+17
9.5931e+17
9.593297e+17
9.478919e+17
9.249766e+17
8.901692e+17
8.429659e+17
7.821641e+17
7.112476e+17
6.322551e+17
5.472099e+17
4.597731e+17
3.497113e+17
2.700098e+17
1.838577e+17
1.221615e+17
9.18585e+16
1.559551e+17
2.030655e+17
2.896431e+17
4.029769e+17
4.981078e+17
5.883517e+17
6.772679e+17
7.557106e+17
8.293219e+17
8.899408e+17
9.360108e+17
9.692492e+17
9.908796e+17
1.001582e+18
1.001606e+18
9.90954e+17
9.693812e+17
9.362003e+17
8.901811e+17
8.296021e+17
7.560164e+17
6.775808e+17
5.886365e+17
4.98371e+17
4.031919e+17
2.899408e+17
2.032804e+17
1.560477e+17
9.192688e+16
1.048935e+17
1.617827e+17
2.120148e+17
3.0117e+17
4.278781e+17
5.267796e+17
6.218634e+17
7.109761e+17
7.929782e+17
8.661443e+17
9.24738e+17
9.691874e+17
1.001158e+18
1.021907e+18
1.032157e+18
1.032181e+18
1.021982e+18
1.001289e+18
9.693778e+17
9.249848e+17
8.664332e+17
7.932882e+17
7.112934e+17
6.222023e+17
5.270689e+17
4.281298e+17
3.014403e+17
2.122098e+17
1.619363e+17
1.050049e+17
1.081197e+17
1.652525e+17
2.175011e+17
3.088407e+17
4.42569e+17
5.463196e+17
6.459974e+17
7.349872e+17
8.192027e+17
8.908902e+17
9.476503e+17
9.907625e+17
1.021854e+18
1.042038e+18
1.052002e+18
1.052018e+18
1.042099e+18
1.021968e+18
9.909399e+17
9.478919e+17
8.911815e+17
8.195211e+17
7.3532e+17
6.463383e+17
5.466107e+17
4.428377e+17
3.090878e+17
2.177034e+17
1.654143e+17
1.082202e+17
1.093763e+17
1.668731e+17
2.201002e+17
3.12833e+17
4.498839e+17
5.560353e+17
6.55876e+17
7.488264e+17
8.333906e+17
9.035344e+17
9.590849e+17
1.001417e+18
1.03206e+18
1.051965e+18
1.061791e+18
1.061797e+18
1.052013e+18
1.032165e+18
1.001588e+18
9.593222e+17
9.038253e+17
8.337151e+17
7.491654e+17
6.562173e+17
5.563472e+17
4.501573e+17
3.130603e+17
2.202909e+17
1.670181e+17
1.094757e+17
1.093874e+17
1.668849e+17
2.20108e+17
3.128449e+17
4.498767e+17
5.560141e+17
6.558557e+17
7.488091e+17
8.333773e+17
9.035215e+17
9.590695e+17
1.0014e+18
1.032044e+18
1.051954e+18
1.061789e+18
1.061795e+18
1.052004e+18
1.032151e+18
1.001571e+18
9.593031e+17
9.038078e+17
8.337018e+17
7.491495e+17
6.561897e+17
5.563233e+17
4.501398e+17
3.130431e+17
2.202821e+17
1.670195e+17
1.09489e+17
1.081642e+17
1.653063e+17
2.175383e+17
3.088818e+17
4.425558e+17
5.462985e+17
6.459887e+17
7.349535e+17
8.191675e+17
8.908545e+17
9.476099e+17
9.907188e+17
1.021812e+18
1.042004e+18
1.05198e+18
1.051992e+18
1.042063e+18
1.021924e+18
9.9089e+17
9.478397e+17
8.911347e+17
8.194849e+17
7.352853e+17
6.463001e+17
5.465899e+17
4.427947e+17
3.09021e+17
2.176721e+17
1.654124e+17
1.082458e+17
1.049811e+17
1.61871e+17
2.120809e+17
3.012566e+17
4.27876e+17
5.26779e+17
6.218819e+17
7.109624e+17
7.929449e+17
8.661002e+17
9.246856e+17
9.691303e+17
1.001102e+18
1.021856e+18
1.032112e+18
1.032128e+18
1.021919e+18
1.001215e+18
9.692971e+17
9.24906e+17
8.663654e+17
7.93238e+17
7.112625e+17
6.22152e+17
5.270339e+17
4.280787e+17
3.013134e+17
2.121602e+17
1.619425e+17
1.050359e+17
9.195831e+16
1.560222e+17
2.031939e+17
2.898082e+17
4.029926e+17
4.981358e+17
5.883558e+17
6.772761e+17
7.556984e+17
8.292894e+17
8.898921e+17
9.359539e+17
9.691913e+17
9.908205e+17
1.001515e+18
1.001531e+18
9.908793e+17
9.692968e+17
9.361082e+17
8.900928e+17
8.295233e+17
7.559472e+17
6.775374e+17
5.886204e+17
4.983489e+17
4.031665e+17
2.897859e+17
2.032289e+17
1.560937e+17
9.198399e+16
1.221369e+17
1.838089e+17
2.699508e+17
3.495776e+17
4.595982e+17
5.469504e+17
6.319971e+17
7.109835e+17
7.81902e+17
8.427209e+17
8.899578e+17
9.248104e+17
9.477674e+17
9.592157e+17
9.59228e+17
9.478126e+17
9.248944e+17
8.900836e+17
8.428865e+17
7.820921e+17
7.111822e+17
6.322191e+17
5.471747e+17
4.597442e+17
3.497347e+17
2.698698e+17
1.838014e+17
1.221643e+17
1.111713e+17
1.659804e+17
2.298934e+17
3.156412e+17
4.151989e+17
4.985948e+17
5.786226e+17
6.567384e+17
7.232766e+17
7.819535e+17
8.29406e+17
8.662731e+17
8.910512e+17
9.03686e+17
9.03695e+17
8.910798e+17
8.663268e+17
8.294916e+17
7.820774e+17
7.234234e+17
6.568904e+17
5.787957e+17
4.987469e+17
4.152638e+17
3.157463e+17
2.29851e+17
1.659913e+17
1.11223e+17
9.178281e+16
1.511691e+17
1.94984e+17
2.750114e+17
3.464425e+17
4.392581e+17
5.168218e+17
5.900271e+17
6.56768e+17
7.110641e+17
7.558406e+17
7.931401e+17
8.193855e+17
8.335636e+17
8.335727e+17
8.194e+17
7.931609e+17
7.558803e+17
7.111472e+17
6.568762e+17
5.90139e+17
5.169366e+17
4.393377e+17
3.464174e+17
2.75066e+17
1.949297e+17
1.511375e+17
9.186194e+16
1.015346e+17
1.627661e+17
2.16803e+17
2.955895e+17
3.582029e+17
4.464689e+17
5.168373e+17
5.786662e+17
6.320838e+17
6.774088e+17
7.111421e+17
7.351558e+17
7.489809e+17
7.4899e+17
7.351613e+17
7.111364e+17
6.774128e+17
6.321278e+17
5.787275e+17
5.16901e+17
4.465335e+17
3.582477e+17
2.956269e+17
2.167931e+17
1.627423e+17
1.015547e+17
1.19241e+17
1.725462e+17
2.258059e+17
3.003729e+17
3.581805e+17
4.39281e+17
4.986549e+17
5.470443e+17
5.884527e+17
6.220122e+17
6.461512e+17
6.560281e+17
6.560272e+17
6.461391e+17
6.219979e+17
5.884558e+17
5.470408e+17
4.986574e+17
4.392911e+17
3.581988e+17
3.003731e+17
2.257755e+17
1.724948e+17
1.192105e+17
9.497714e+16
1.479815e+17
1.783291e+17
2.25787e+17
2.956424e+17
3.464446e+17
4.151773e+17
4.596246e+17
4.981959e+17
5.268777e+17
5.464156e+17
5.561354e+17
5.561302e+17
5.46415e+17
5.268614e+17
4.981778e+17
4.596215e+17
4.152024e+17
3.464424e+17
2.956214e+17
2.257577e+17
1.782853e+17
1.479323e+17
9.493903e+16
9.585491e+16
1.479806e+17
1.725562e+17
2.167573e+17
2.749257e+17
3.1553e+17
3.49571e+17
4.029916e+17
4.278844e+17
4.425736e+17
4.498742e+17
4.498656e+17
4.426011e+17
4.279287e+17
4.030238e+17
3.495674e+17
3.155881e+17
2.749792e+17
2.167597e+17
1.725137e+17
1.479352e+17
9.582418e+16
9.496831e+16
1.192598e+17
1.627158e+17
1.948989e+17
2.297544e+17
2.69798e+17
2.89635e+17
3.010847e+17
3.08745e+17
3.128564e+17
3.128192e+17
3.088224e+17
3.01201e+17
2.897452e+17
2.698862e+17
2.298004e+17
1.94891e+17
1.626982e+17
1.192027e+17
9.494047e+16
1.015138e+17
1.510604e+17
1.658956e+17
1.836949e+17
2.030573e+17
2.119398e+17
2.174137e+17
2.200487e+17
2.200033e+17
2.174369e+17
2.119649e+17
2.030728e+17
1.836787e+17
1.658502e+17
1.510778e+17
1.014748e+17
9.173992e+16
1.111241e+17
1.220475e+17
1.559224e+17
1.617375e+17
1.651819e+17
1.668599e+17
1.668403e+17
1.651676e+17
1.617093e+17
1.559133e+17
1.220141e+17
1.110704e+17
9.174851e+16
9.186075e+16
1.04866e+17
1.080498e+17
1.093217e+17
1.09309e+17
1.08028e+17
1.048244e+17
9.177677e+16
8.167984e+16
9.274971e+16
9.517512e+16
9.515281e+16
9.267816e+16
8.164144e+16
7.833231e+16
9.848602e+16
1.106641e+17
1.248638e+17
1.5723e+17
1.640927e+17
1.667091e+17
1.666527e+17
1.639499e+17
1.570712e+17
1.248606e+17
1.106954e+17
9.850595e+16
7.839183e+16
7.893549e+16
1.035786e+17
1.466601e+17
1.725147e+17
1.954239e+17
2.29159e+17
2.474905e+17
2.550179e+17
2.586795e+17
2.58606e+17
2.548364e+17
2.473384e+17
2.291489e+17
1.954098e+17
1.724592e+17
1.466874e+17
1.036507e+17
7.904928e+16
8.861163e+16
1.411948e+17
1.785009e+17
2.319823e+17
2.626259e+17
2.92999e+17
3.203655e+17
3.657238e+17
3.831596e+17
3.901141e+17
3.900506e+17
3.829955e+17
3.655372e+17
3.202305e+17
2.928613e+17
2.625366e+17
2.318595e+17
1.785781e+17
1.412575e+17
8.874186e+16
9.52009e+16
1.575362e+17
2.068942e+17
2.674365e+17
3.150018e+17
3.802385e+17
4.225937e+17
4.551237e+17
4.823221e+17
4.990124e+17
5.067135e+17
5.066598e+17
4.988688e+17
4.821381e+17
4.549648e+17
4.224994e+17
3.802133e+17
3.150138e+17
2.673986e+17
2.069803e+17
1.575888e+17
9.528817e+16
9.889959e+16
1.710386e+17
2.402576e+17
2.929957e+17
3.452404e+17
4.306864e+17
4.920098e+17
5.405706e+17
5.74967e+17
6.010389e+17
6.17946e+17
6.261501e+17
6.261056e+17
6.178262e+17
6.008802e+17
5.748141e+17
5.404557e+17
4.919618e+17
4.307412e+17
3.453211e+17
2.929984e+17
2.402631e+17
1.710542e+17
9.89323e+16
9.52081e+16
1.71047e+17
2.512387e+17
3.125026e+17
3.989446e+17
4.705933e+17
5.424331e+17
6.023222e+17
6.521115e+17
6.940773e+17
7.249252e+17
7.446254e+17
7.542163e+17
7.541821e+17
7.445378e+17
7.248207e+17
6.939978e+17
6.520838e+17
6.023371e+17
5.424892e+17
4.706344e+17
3.989802e+17
3.125105e+17
2.511401e+17
1.710483e+17
9.523771e+16
8.862026e+16
1.575086e+17
2.403042e+17
3.124832e+17
4.094275e+17
4.945058e+17
5.737318e+17
6.437558e+17
7.092894e+17
7.649323e+17
8.106866e+17
8.445778e+17
8.665877e+17
8.773483e+17
8.773243e+17
8.665304e+17
8.445098e+17
8.106413e+17
7.649342e+17
7.093281e+17
6.438235e+17
5.737999e+17
4.945658e+17
4.094556e+17
3.125049e+17
2.402943e+17
1.575539e+17
8.866072e+16
7.892853e+16
1.411507e+17
2.069384e+17
2.929649e+17
3.98937e+17
4.945103e+17
5.844559e+17
6.643976e+17
7.418545e+17
8.122921e+17
8.717761e+17
9.201514e+17
9.567127e+17
9.80721e+17
9.921428e+17
9.921262e+17
9.806814e+17
9.566771e+17
9.201553e+17
8.718348e+17
8.123889e+17
7.41974e+17
6.645078e+17
5.845314e+17
4.945702e+17
3.989814e+17
2.930116e+17
2.070138e+17
1.412146e+17
7.897151e+16
1.035567e+17
1.785198e+17
2.673139e+17
3.453065e+17
4.705804e+17
5.737338e+17
6.643962e+17
7.523485e+17
8.34776e+17
9.082524e+17
9.707831e+17
1.021441e+18
1.05983e+18
1.085699e+18
1.098918e+18
1.098912e+18
1.08569e+18
1.059843e+18
1.021503e+18
9.708999e+17
9.084127e+17
8.349685e+17
7.525363e+17
6.64556e+17
5.738497e+17
4.706666e+17
3.453671e+17
2.674317e+17
1.786147e+17
1.036502e+17
7.833136e+16
1.465754e+17
2.318121e+17
3.149331e+17
4.307164e+17
5.424068e+17
6.437481e+17
7.418457e+17
8.34759e+17
9.200616e+17
9.958315e+17
1.060464e+18
1.113321e+18
1.154512e+18
1.182822e+18
1.197414e+18
1.19742e+18
1.182848e+18
1.154579e+18
1.113446e+18
1.060644e+18
9.960579e+17
9.203221e+17
8.350164e+17
7.420752e+17
6.439306e+17
5.42533e+17
4.308124e+17
3.149472e+17
2.319684e+17
1.466875e+17
7.845982e+16
9.837553e+16
1.723663e+17
2.624317e+17
3.802041e+17
4.919469e+17
6.022582e+17
7.092258e+17
8.122299e+17
9.081721e+17
9.95766e+17
1.073395e+18
1.141013e+18
1.196761e+18
1.239824e+18
1.269073e+18
1.283936e+18
1.283954e+18
1.269134e+18
1.239943e+18
1.19695e+18
1.141266e+18
1.0737e+18
9.961043e+17
9.085112e+17
8.125457e+17
7.094906e+17
6.024455e+17
4.921061e+17
3.802484e+17
2.625236e+17
1.724892e+17
9.850812e+16
1.10594e+17
1.9532e+17
2.928959e+17
4.225704e+17
5.40433e+17
6.52013e+17
7.648126e+17
8.716384e+17
9.706187e+17
1.060318e+18
1.140927e+18
1.21125e+18
1.268654e+18
1.312219e+18
1.34145e+18
1.356151e+18
1.356179e+18
1.341539e+18
1.312383e+18
1.268902e+18
1.211576e+18
1.141313e+18
1.060743e+18
9.710532e+17
8.720495e+17
7.65171e+17
6.522849e+17
5.406698e+17
4.226391e+17
2.92916e+17
1.953551e+17
1.106435e+17
1.248122e+17
2.291957e+17
3.204075e+17
4.551002e+17
5.748224e+17
6.939297e+17
8.105095e+17
9.199386e+17
1.021209e+18
1.113104e+18
1.196593e+18
1.268565e+18
1.326569e+18
1.370021e+18
1.398917e+18
1.413361e+18
1.413395e+18
1.399025e+18
1.370214e+18
1.326854e+18
1.268938e+18
1.197034e+18
1.11359e+18
1.021711e+18
9.204209e+17
8.109417e+17
6.942829e+17
5.751071e+17
4.552029e+17
3.203627e+17
2.290518e+17
1.247906e+17
8.165387e+16
1.571216e+17
2.475307e+17
3.657711e+17
4.822943e+17
6.009101e+17
7.247523e+17
8.443606e+17
9.564381e+17
1.059534e+18
1.154226e+18
1.239578e+18
1.312045e+18
1.369934e+18
1.413021e+18
1.441549e+18
1.455772e+18
1.455808e+18
1.441661e+18
1.41322e+18
1.37023e+18
1.312434e+18
1.240042e+18
1.154739e+18
1.060072e+18
9.569713e+17
8.448385e+17
7.251532e+17
6.012108e+17
4.824147e+17
3.657233e+17
2.473907e+17
1.570862e+17
8.163394e+16
9.263236e+16
1.639974e+17
2.550166e+17
3.83188e+17
4.989885e+17
6.178504e+17
7.444632e+17
8.663628e+17
9.804269e+17
1.085365e+18
1.182482e+18
1.268763e+18
1.341203e+18
1.398754e+18
1.441472e+18
1.469705e+18
1.483761e+18
1.483792e+18
1.469805e+18
1.441656e+18
1.399037e+18
1.341586e+18
1.269227e+18
1.183001e+18
1.085913e+18
9.80972e+17
8.668558e+17
7.448807e+17
6.181583e+17
4.991482e+17
3.832007e+17
2.549486e+17
1.639827e+17
9.269336e+16
9.509819e+16
1.666564e+17
2.586697e+17
3.901679e+17
5.06739e+17
6.261103e+17
7.540911e+17
8.77134e+17
9.918468e+17
1.098566e+18
1.197041e+18
1.28358e+18
1.355848e+18
1.413135e+18
1.455633e+18
1.483702e+18
1.497669e+18
1.497694e+18
1.48379e+18
1.455803e+18
1.413404e+18
1.356217e+18
1.284034e+18
1.197553e+18
1.099108e+18
9.923853e+17
8.776258e+17
7.54503e+17
6.264157e+17
5.069269e+17
3.902552e+17
2.587249e+17
1.667105e+17
9.517684e+16
9.510292e+16
1.666798e+17
2.587259e+17
3.901957e+17
5.067652e+17
6.261332e+17
7.541058e+17
8.771401e+17
9.918478e+17
1.098561e+18
1.197033e+18
1.283571e+18
1.355837e+18
1.413122e+18
1.455618e+18
1.483688e+18
1.497656e+18
1.497679e+18
1.483772e+18
1.455781e+18
1.41338e+18
1.356193e+18
1.28401e+18
1.197533e+18
1.099089e+18
9.923671e+17
8.776146e+17
7.544984e+17
6.264224e+17
5.069605e+17
3.903095e+17
2.587916e+17
1.667633e+17
9.520301e+16
9.269198e+16
1.640453e+17
2.550538e+17
3.832254e+17
4.990511e+17
6.179149e+17
7.445042e+17
8.663884e+17
9.804454e+17
1.085364e+18
1.182468e+18
1.268741e+18
1.341175e+18
1.398719e+18
1.441433e+18
1.469663e+18
1.483719e+18
1.483744e+18
1.469749e+18
1.441594e+18
1.39897e+18
1.341518e+18
1.269165e+18
1.182947e+18
1.085866e+18
9.809335e+17
8.668349e+17
7.448671e+17
6.181729e+17
4.992463e+17
3.833582e+17
2.551388e+17
1.641346e+17
9.277683e+16
8.173873e+16
1.570918e+17
2.474862e+17
3.657885e+17
4.823677e+17
6.010132e+17
7.248189e+17
8.444112e+17
9.564836e+17
1.059557e+18
1.154224e+18
1.23956e+18
1.312013e+18
1.369893e+18
1.412971e+18
1.44149e+18
1.455705e+18
1.455729e+18
1.441574e+18
1.413126e+18
1.370133e+18
1.312342e+18
1.239961e+18
1.154672e+18
1.060021e+18
9.569307e+17
8.44818e+17
7.25142e+17
6.012263e+17
4.825599e+17
3.659429e+17
2.476203e+17
1.572079e+17
8.180549e+16
1.248384e+17
2.29083e+17
3.204329e+17
4.551872e+17
5.749717e+17
6.940238e+17
8.105916e+17
9.200003e+17
1.021255e+18
1.113128e+18
1.196594e+18
1.268548e+18
1.326537e+18
1.369978e+18
1.398858e+18
1.413285e+18
1.413307e+18
1.398934e+18
1.37012e+18
1.326761e+18
1.268853e+18
1.196963e+18
1.113535e+18
1.02168e+18
9.204121e+17
8.109491e+17
6.943052e+17
5.751327e+17
4.553701e+17
3.205789e+17
2.292684e+17
1.24902e+17
1.106175e+17
1.953593e+17
2.929612e+17
4.226373e+17
5.406057e+17
6.521244e+17
7.649248e+17
8.717138e+17
9.706812e+17
1.060363e+18
1.140948e+18
1.211253e+18
1.268642e+18
1.31219e+18
1.3414e+18
1.356072e+18
1.35609e+18
1.341462e+18
1.31231e+18
1.268835e+18
1.211521e+18
1.141274e+18
1.060721e+18
9.710575e+17
8.720692e+17
7.652155e+17
6.523659e+17
5.407183e+17
4.228113e+17
2.930716e+17
1.954293e+17
1.106419e+17
9.847331e+16
1.724932e+17
2.625866e+17
3.802628e+17
4.920887e+17
6.024012e+17
7.093662e+17
8.123174e+17
9.082353e+17
9.958153e+17
1.073422e+18
1.141026e+18
1.196764e+18
1.239809e+18
1.269033e+18
1.283862e+18
1.283874e+18
1.269077e+18
1.239898e+18
1.196916e+18
1.141246e+18
1.073696e+18
9.961155e+17
9.085454e+17
8.125939e+17
7.095776e+17
6.025925e+17
4.921981e+17
3.804267e+17
2.626004e+17
1.724839e+17
9.845151e+16
7.841322e+16
1.466703e+17
2.320443e+17
3.149774e+17
4.307763e+17
5.425339e+17
6.438815e+17
7.419406e+17
8.348281e+17
9.201151e+17
9.958636e+17
1.060485e+18
1.113336e+18
1.154509e+18
1.182793e+18
1.197356e+18
1.197363e+18
1.182818e+18
1.154562e+18
1.11344e+18
1.060651e+18
9.960764e+17
9.203496e+17
8.350638e+17
7.421411e+17
6.440322e+17
5.427003e+17
4.309062e+17
3.15129e+17
2.319204e+17
1.466794e+17
7.839545e+16
1.036105e+17
1.785687e+17
2.674728e+17
3.452731e+17
4.706974e+17
5.738473e+17
6.645017e+17
7.524402e+17
8.348536e+17
9.08305e+17
9.708156e+17
1.021461e+18
1.059829e+18
1.085674e+18
1.098871e+18
1.098875e+18
1.085684e+18
1.059852e+18
1.021521e+18
9.709252e+17
9.084502e+17
8.350159e+17
7.526057e+17
6.646515e+17
5.739825e+17
4.70817e+17
3.454175e+17
2.674873e+17
1.785714e+17
1.036044e+17
7.893431e+16
1.412312e+17
2.070192e+17
2.931661e+17
3.991161e+17
4.946494e+17
5.845851e+17
6.645241e+17
7.419758e+17
8.123827e+17
8.718319e+17
9.201693e+17
9.567048e+17
9.807025e+17
9.921156e+17
9.921142e+17
9.80701e+17
9.567113e+17
9.202005e+17
8.718906e+17
8.124665e+17
7.420691e+17
6.646188e+17
5.84664e+17
4.946939e+17
3.99112e+17
2.931248e+17
2.069856e+17
1.412252e+17
7.897833e+16
8.862175e+16
1.576246e+17
2.404673e+17
3.125925e+17
4.095287e+17
4.946397e+17
5.73884e+17
6.43901e+17
7.093727e+17
7.649786e+17
8.106953e+17
8.445581e+17
8.665587e+17
8.773125e+17
8.773084e+17
8.665603e+17
8.445652e+17
8.107157e+17
7.650246e+17
7.094438e+17
6.439552e+17
5.739235e+17
4.946813e+17
4.095532e+17
3.126047e+17
2.403569e+17
1.575707e+17
8.864319e+16
9.52143e+16
1.710919e+17
2.514112e+17
3.125406e+17
3.990922e+17
4.707112e+17
5.425199e+17
6.023422e+17
6.521052e+17
6.94029e+17
7.248456e+17
7.445483e+17
7.54152e+17
7.541434e+17
7.445634e+17
7.248837e+17
6.940797e+17
6.521685e+17
6.024221e+17
5.425557e+17
4.707101e+17
3.991063e+17
3.125493e+17
2.513708e+17
1.710603e+17
9.51957e+16
9.88874e+16
1.710752e+17
2.404722e+17
2.93152e+17
3.453754e+17
4.307894e+17
4.920152e+17
5.404995e+17
5.748665e+17
6.009212e+17
6.178555e+17
6.261285e+17
6.261027e+17
6.178713e+17
6.009663e+17
5.749294e+17
5.405859e+17
4.92073e+17
4.307743e+17
3.452778e+17
2.931399e+17
2.404627e+17
1.710631e+17
9.886934e+16
9.517354e+16
1.575444e+17
2.070398e+17
2.674563e+17
3.149031e+17
3.80183e+17
4.225491e+17
4.551005e+17
4.82283e+17
4.989758e+17
5.066852e+17
5.066434e+17
4.989364e+17
4.822448e+17
4.550736e+17