/*--------------------------------*- C++ -*----------------------------------*\
  =========                 |
  \\      /  F ield         | OpenFOAM: The Open Source CFD Toolbox
   \\    /   O peration     | Website:  https://openfoam.org
    \\  /    A nd           | Version:  6
     \\/     M anipulation  |
\*---------------------------------------------------------------------------*/
FoamFile
{
    version     2.0;
    format      ascii;
    class       volScalarField;
    location    "49.8/region0/neutronTransport";
    object      discFlux6;
}
// * * * * * * * * * * * * * * * * * * * * * * * * * * * * * * * * * * * * * //

dimensions      [0 -2 -1 0 0 0 0];

internalField   nonuniform List<scalar> 
203709
(
-5.341588e-36
-2.101209e-36
-3.130957e-36
-1.693525e-36
-5.341635e-36
-2.230083e-36
-8.161068e-37
-1.952593e-36
-2.197853e-36
-1.682031e-36
-3.559216e-36
-2.020385e-36
-5.341581e-36
-2.171237e-36
-1.073223e-36
-2.410511e-36
-3.022033e-36
-3.365419e-36
-3.43842e-36
-3.131752e-36
-2.749981e-36
-2.034146e-36
-3.5596e-36
-1.826158e-36
-5.34158e-36
5.858623e-37
-2.233125e-36
-3.055593e-36
-3.470345e-36
-3.624597e-36
-3.698165e-36
-3.717628e-36
-3.685661e-36
-3.602913e-36
-3.212914e-36
-2.691345e-36
-1.668094e-36
-1.732337e-36
-2.170131e-36
-2.232885e-36
-3.322808e-36
-3.601938e-36
-3.724233e-36
-3.779116e-36
-3.806279e-36
-3.812649e-36
-3.800419e-36
-3.770046e-36
-3.699277e-36
-3.548306e-36
-2.945538e-36
-1.109796e-36
-5.341636e-36
-1.074056e-36
-3.055272e-36
-3.601981e-36
-3.749492e-36
-3.810416e-36
-3.835809e-36
-3.849005e-36
-3.852287e-36
-3.847383e-36
-3.831068e-36
-3.796707e-36
-3.722873e-36
-3.539403e-36
-3.122741e-36
-1.992599e-36
-2.229793e-36
-2.410405e-36
-3.470517e-36
-3.724393e-36
-3.810303e-36
-3.844168e-36
-3.864285e-36
-3.874762e-36
-3.875114e-36
-3.867666e-36
-3.857738e-36
-3.837038e-36
-3.791011e-36
-3.683805e-36
-3.131831e-36
-1.290747e-36
-5.341588e-36
-8.143173e-37
-3.023508e-36
-3.624138e-36
-3.778994e-36
-3.835711e-36
-3.864081e-36
-3.879737e-36
-3.885461e-36
-3.889263e-36
-3.886612e-36
-3.872329e-36
-3.856404e-36
-3.823294e-36
-3.751022e-36
-3.551049e-36
-3.09648e-36
-1.649215e-36
-2.105198e-36
-1.954332e-36
-3.365109e-36
-3.698335e-36
-3.806131e-36
-3.848607e-36
-3.874327e-36
-3.885209e-36
-3.89979e-36
-3.897431e-36
-3.895641e-36
-3.878333e-36
-3.867053e-36
-3.836662e-36
-3.780563e-36
-3.634259e-36
-2.928573e-36
-9.930918e-37
-3.13001e-36
-2.196832e-36
-3.438524e-36
-3.717752e-36
-3.812484e-36
-3.852231e-36
-3.874874e-36
-3.888996e-36
-3.895765e-36
-3.896013e-36
-3.897479e-36
-3.881031e-36
-3.8685e-36
-3.83961e-36
-3.78696e-36
-3.644936e-36
-3.195809e-36
-1.896947e-36
-1.692007e-36
-1.67983e-36
-3.13119e-36
-3.685144e-36
-3.800401e-36
-3.847298e-36
-3.867744e-36
-3.886325e-36
-3.894933e-36
-3.897383e-36
-3.887784e-36
-3.87938e-36
-3.861549e-36
-3.83196e-36
-3.766373e-36
-3.58557e-36
-3.235186e-36
1.061496e-36
-3.558823e-36
-2.749318e-36
-3.602775e-36
-3.769955e-36
-3.831169e-36
-3.857584e-36
-3.872438e-36
-3.878099e-36
-3.881078e-36
-3.879516e-36
-3.86841e-36
-3.84784e-36
-3.812683e-36
-3.720298e-36
-3.455638e-36
-2.19371e-36
-2.020003e-36
-2.037007e-36
-3.213987e-36
-3.699219e-36
-3.796808e-36
-3.837165e-36
-3.856475e-36
-3.867184e-36
-3.868671e-36
-3.861407e-36
-3.847694e-36
-3.824243e-36
-3.765727e-36
-3.614069e-36
-3.360677e-36
3.184001e-37
-3.55833e-36
-2.691421e-36
-3.548763e-36
-3.723148e-36
-3.790928e-36
-3.823494e-36
-3.833365e-36
-3.839778e-36
-3.831303e-36
-3.812485e-36
-3.765635e-36
-3.66716e-36
-3.411471e-36
-2.159386e-36
-1.827996e-36
-1.668518e-36
-2.945836e-36
-3.53923e-36
-3.684213e-36
-3.751697e-36
-3.780877e-36
-3.786854e-36
-3.76463e-36
-3.720398e-36
-3.614599e-36
-3.411137e-36
-3.091628e-36
6.732585e-37
-1.73114e-36
-1.110059e-36
-3.123416e-36
-3.132075e-36
-3.551688e-36
-3.631395e-36
-3.643813e-36
-3.585377e-36
-3.455869e-36
-3.361548e-36
-2.158011e-36
6.744409e-37
-1.994317e-36
-1.292997e-36
-3.09869e-36
-2.93004e-36
-3.196017e-36
-3.231898e-36
-2.19567e-36
3.154263e-37
-1.653418e-36
-9.969986e-37
-1.89258e-36
1.057113e-36
-5.34164e-36
-2.43949e-36
-3.548471e-36
-3.660005e-36
-3.696928e-36
-3.701024e-36
-3.686583e-36
-3.63149e-36
-3.456234e-36
-1.995797e-36
-5.34163e-36
-2.433936e-36
-1.191476e-36
-2.360779e-36
-2.739616e-36
-2.857757e-36
-2.878331e-36
-2.869733e-36
-2.858568e-36
-2.790461e-36
-2.615307e-36
-2.096536e-36
-3.66174e-36
-2.128445e-36
-5.341668e-36
-4.328557e-37
-2.586811e-36
-3.249579e-36
-3.576198e-36
-3.798224e-36
-3.769792e-36
-3.785063e-36
-3.749057e-36
-3.841442e-36
-3.787237e-36
-3.673506e-36
-3.357805e-36
-2.928885e-36
-2.099591e-36
-2.482766e-36
-5.341695e-36
-1.066218e-36
-2.993964e-36
-3.572483e-36
-3.864593e-36
-3.854547e-36
-3.756332e-36
-2.142556e-36
-2.628218e-36
-2.731256e-36
-2.953238e-36
-3.877714e-36
-3.935565e-36
-3.884819e-36
-3.737498e-36
-3.310164e-36
-2.692058e-36
-2.593646e-36
-5.341668e-36
-1.064511e-36
-3.065827e-36
-3.768118e-36
-3.851168e-36
-3.772611e-36
-2.26714e-36
-2.837738e-36
-2.974298e-36
-3.215714e-36
-3.075036e-36
-3.086163e-36
-2.860607e-36
-3.058753e-36
-3.909205e-36
-3.944564e-36
-3.864355e-36
-3.429871e-36
-2.764528e-36
-2.501968e-36
-5.34163e-36
-4.310631e-37
-2.993068e-36
-3.767333e-36
-3.737553e-36
-2.336248e-36
-2.807066e-36
-3.006672e-36
-3.271847e-36
-3.244192e-36
-3.074716e-36
-3.095701e-36
-3.169097e-36
-3.166431e-36
-3.163907e-36
-2.865812e-36
-3.079592e-36
-3.984038e-36
-3.872506e-36
-3.421709e-36
-2.623532e-36
-2.011021e-36
-2.433991e-36
-2.585398e-36
-3.572773e-36
-3.850528e-36
-2.335274e-36
-2.886482e-36
-3.213504e-36
-3.257734e-36
-3.132203e-36
-3.165025e-36
-3.180658e-36
-3.183361e-36
-3.173301e-36
-3.171924e-36
-3.204102e-36
-3.149872e-36
-3.081744e-36
-3.344221e-36
-3.954378e-36
-3.807485e-36
-3.248782e-36
-1.551011e-36
-5.341642e-36
-1.192322e-36
-3.249249e-36
-3.86504e-36
-3.772252e-36
-2.806961e-36
-3.213137e-36
-3.080153e-36
-3.157535e-36
-3.210888e-36
-3.247028e-36
-3.266758e-36
-3.270514e-36
-3.258085e-36
-3.229051e-36
-3.183209e-36
-3.137582e-36
-3.15374e-36
-3.549172e-36
-3.913294e-36
-3.86804e-36
-3.711479e-36
-3.304374e-36
-1.946447e-36
-2.438385e-36
-2.358335e-36
-3.575752e-36
-3.853588e-36
-2.265592e-36
-3.005222e-36
-3.25723e-36
-3.157291e-36
-3.225262e-36
-3.276562e-36
-3.309103e-36
-3.326361e-36
-3.329593e-36
-3.318667e-36
-3.293874e-36
-3.251165e-36
-3.187254e-36
-3.144685e-36
-3.139619e-36
-3.364611e-36
-3.970806e-36
-3.827001e-36
-3.219433e-36
-1.532493e-36
-3.54561e-36
-2.735645e-36
-3.797927e-36
-3.756155e-36
-2.837039e-36
-3.271422e-36
-3.132113e-36
-3.210873e-36
-3.276624e-36
-3.321976e-36
-3.349034e-36
-3.363084e-36
-3.365471e-36
-3.356062e-36
-3.335329e-36
-3.300028e-36
-3.243215e-36
-3.191623e-36
-3.20616e-36
-3.59194e-36
-3.911015e-36
-3.842708e-36
-3.564143e-36
-2.596392e-36
-3.657357e-36
-2.854357e-36
-3.768235e-36
-2.141576e-36
-2.974445e-36
-3.24356e-36
-3.164914e-36
-3.246838e-36
-3.308937e-36
-3.348819e-36
-3.374993e-36
-3.390446e-36
-3.393499e-36
-3.383004e-36
-3.361093e-36
-3.328774e-36
-3.27732e-36
-3.200518e-36
-3.139051e-36
-3.098749e-36
-3.352721e-36
-3.952372e-36
-3.645411e-36
-2.773064e-36
-3.695706e-36
-2.877602e-36
-3.78435e-36
-2.627646e-36
-3.215473e-36
-3.074958e-36
-3.180634e-36
-3.266444e-36
-3.326152e-36
-3.362811e-36
-3.390155e-36
-3.401218e-36
-3.404487e-36
-3.395717e-36
-3.375771e-36
-3.343082e-36
-3.295767e-36
-3.221209e-36
-3.145528e-36
-3.129283e-36
-3.654796e-36
-3.917242e-36
-3.599549e-36
-2.821051e-36
-3.701453e-36
-2.872091e-36
-3.750078e-36
-2.732371e-36
-3.075353e-36
-3.095917e-36
-3.183505e-36
-3.270499e-36
-3.329506e-36
-3.36529e-36
-3.393098e-36
-3.403557e-36
-3.407319e-36
-3.397888e-36
-3.378536e-36
-3.345338e-36
-3.298632e-36
-3.225389e-36
-3.127274e-36
-3.067006e-36
-3.708e-36
-3.883947e-36
-3.609484e-36
-2.828766e-36
-3.688677e-36
-2.86106e-36
-3.84143e-36
-2.953338e-36
-3.08601e-36
-3.169067e-36
-3.17335e-36
-3.257928e-36
-3.318611e-36
-3.356004e-36
-3.382806e-36
-3.395329e-36
-3.397818e-36
-3.388977e-36
-3.36802e-36
-3.335128e-36
-3.28664e-36
-3.216398e-36
-3.159263e-36
-3.420348e-36
-4.012102e-36
-3.97457e-36
-3.643463e-36
-2.813075e-36
-3.633792e-36
-2.792873e-36
-3.787743e-36
-3.877419e-36
-2.860526e-36
-3.166624e-36
-3.171933e-36
-3.228853e-36
-3.293883e-36
-3.335396e-36
-3.360955e-36
-3.375598e-36
-3.378627e-36
-3.367972e-36
-3.346232e-36
-3.312566e-36
-3.260045e-36
-3.191855e-36
-3.18197e-36
-3.656088e-36
-3.950327e-36
-3.801705e-36
-3.653989e-36
-2.725642e-36
-3.459175e-36
-2.617262e-36
-3.674041e-36
-3.9337e-36
-3.059232e-36
-3.163612e-36
-3.203986e-36
-3.183189e-36
-3.251251e-36
-3.299997e-36
-3.328769e-36
-3.342803e-36
-3.345225e-36
-3.335067e-36
-3.312481e-36
-3.273418e-36
-3.217488e-36
-3.183228e-36
-3.476077e-36
-4.028825e-36
-3.921337e-36
-3.896969e-36
-3.481568e-36
-2.436598e-36
-2.004669e-36
-2.103279e-36
-3.359328e-36
-3.884575e-36
-3.910111e-36
-2.866131e-36
-3.150168e-36
-3.137802e-36
-3.187348e-36
-3.243206e-36
-3.277188e-36
-3.295048e-36
-3.296901e-36
-3.286375e-36
-3.259878e-36
-3.217462e-36
-3.154959e-36
-3.153953e-36
-3.659864e-36
-3.96337e-36
-3.830443e-36
-3.824342e-36
-3.443646e-36
3.738309e-37
-3.659163e-36
-2.929101e-36
-3.737542e-36
-3.944854e-36
-3.079739e-36
-3.081026e-36
-3.153482e-36
-3.144937e-36
-3.191825e-36
-3.200589e-36
-3.219961e-36
-3.222544e-36
-3.216145e-36
-3.191786e-36
-3.183074e-36
-3.154135e-36
-3.396185e-36
-4.029679e-36
-3.919524e-36
-3.908762e-36
-3.60116e-36
-2.382885e-36
-2.13456e-36
-2.097252e-36
-3.310307e-36
-3.865911e-36
-3.983519e-36
-3.343847e-36
-3.548745e-36
-3.139802e-36
-3.206348e-36
-3.139196e-36
-3.145353e-36
-3.125185e-36
-3.159208e-36
-3.182087e-36
-3.475777e-36
-3.65997e-36
-4.029065e-36
-4.051199e-36
-3.833038e-36
-3.772304e-36
-3.396003e-36
1.317033e-38
-2.482168e-36
-2.693178e-36
-3.430671e-36
-3.873035e-36
-3.953315e-36
-3.913372e-36
-3.364563e-36
-3.590473e-36
-3.099175e-36
-3.128279e-36
-3.063762e-36
-3.420682e-36
-3.65652e-36
-4.029346e-36
-3.963175e-36
-3.91936e-36
-3.833061e-36
-3.86691e-36
-3.520203e-36
-1.034745e-37
-2.594746e-36
-2.764337e-36
-3.420469e-36
-3.807514e-36
-3.867802e-36
-3.971418e-36
-3.911188e-36
-3.35372e-36
-3.655205e-36
-3.706875e-36
-4.012188e-36
-3.949918e-36
-3.922119e-36
-3.830975e-36
-3.909054e-36
-3.773181e-36
-3.521437e-36
-3.286637e-37
-2.497689e-36
-2.623838e-36
-3.248901e-36
-3.711738e-36
-3.826934e-36
-3.841691e-36
-3.952447e-36
-3.915648e-36
-3.883671e-36
-3.974503e-36
-3.802525e-36
-3.897318e-36
-3.822616e-36
-3.599142e-36
-3.393698e-36
-1.04714e-37
-2.012902e-36
-1.551018e-36
-3.302854e-36
-3.21754e-36
-3.563724e-36
-3.645274e-36
-3.600408e-36
-3.610367e-36
-3.641022e-36
-3.653467e-36
-3.481462e-36
-3.444202e-36
-2.381205e-36
1.560113e-38
-1.947218e-36
-1.5313e-36
-2.595291e-36
-2.772601e-36
-2.817549e-36
-2.828285e-36
-2.812007e-36
-2.723333e-36
-2.434113e-36
3.892405e-37
-5.341631e-36
-2.559636e-36
-3.613334e-36
-3.713324e-36
-3.730491e-36
-3.697453e-36
-3.531144e-36
-2.141823e-36
-5.341645e-36
-2.702275e-36
-3.672246e-36
-1.618253e-36
-2.529947e-36
-2.771389e-36
-2.851999e-36
-2.864737e-36
-2.825248e-36
-2.71082e-36
-2.383164e-36
-3.943566e-36
-3.656858e-36
-2.183849e-36
-5.341758e-36
-9.198385e-37
-2.853853e-36
-3.240563e-36
-3.516903e-36
-3.685414e-36
-3.757589e-36
-3.781081e-36
-3.786028e-36
-3.774651e-36
-3.752486e-36
-3.530263e-36
-3.40321e-36
-3.057039e-36
-2.413861e-36
-2.852767e-36
-5.341658e-36
-2.791886e-36
-2.547529e-36
-3.305706e-36
-3.503939e-36
-2.13274e-36
-2.709754e-36
-2.904328e-36
-2.98166e-36
-3.009416e-36
-3.015059e-36
-3.001832e-36
-2.960159e-36
-2.876807e-36
-2.949828e-36
-3.752527e-36
-3.551328e-36
-3.300018e-36
-3.954839e-36
-2.388939e-36
-5.341656e-36
-8.933466e-37
-3.030785e-36
-3.369578e-36
-2.198166e-36
-2.830924e-36
-3.070036e-36
-3.341311e-36
-3.247185e-36
-3.285397e-36
-3.287466e-36
-3.290864e-36
-3.296986e-36
-3.279437e-36
-3.237122e-36
-3.206762e-36
-2.918966e-36
-3.004652e-36
-3.711948e-36
-3.2731e-36
-2.520263e-36
-2.567105e-36
-5.341657e-36
-8.854005e-37
-3.262279e-36
-3.516433e-36
-2.479328e-36
-2.945031e-36
-3.3008e-36
-3.354224e-36
-3.228743e-36
-3.228391e-36
-3.317788e-36
-3.29393e-36
-3.298174e-36
-3.292613e-36
-3.286653e-36
-3.272664e-36
-3.307158e-36
-3.25112e-36
-3.200602e-36
-3.184688e-36
-3.840199e-36
-3.491025e-36
-2.84401e-36
-2.283027e-36
-2.789713e-36
-3.031891e-36
-3.513384e-36
-2.504998e-36
-2.966293e-36
-3.462371e-36
-3.230269e-36
-3.25783e-36
-3.345091e-36
-3.373795e-36
-3.402543e-36
-3.438746e-36
-3.457566e-36
-3.411218e-36
-3.341017e-36
-3.330438e-36
-3.319941e-36
-3.28354e-36
-3.301592e-36
-3.232164e-36
-3.246499e-36
-3.860592e-36
-3.467539e-36
-2.099555e-36
-5.341758e-36
-2.544654e-36
-3.367552e-36
-2.480666e-36
-2.967676e-36
-3.488301e-36
-3.245588e-36
-3.335219e-36
-3.383359e-36
-3.421101e-36
-3.431596e-36
-3.526733e-36
-3.304644e-36
-3.310841e-36
-3.406595e-36
-3.450786e-36
-3.450518e-36
-3.364288e-36
-3.33159e-36
-3.336206e-36
-3.333303e-36
-3.246647e-36
-3.253043e-36
-3.836864e-36
-3.715479e-36
-3.033076e-36
-5.341645e-36
-9.138765e-37
-3.306625e-36
-2.197608e-36
-2.943084e-36
-3.46231e-36
-3.245974e-36
-3.39069e-36
-3.402226e-36
-3.430261e-36
-3.54596e-36
-3.336691e-36
-3.311041e-36
-3.274371e-36
-3.264896e-36
-3.284189e-36
-3.338262e-36
-3.435833e-36
-3.460389e-36
-3.444755e-36
-3.342168e-36
-3.355406e-36
-3.319461e-36
-3.196926e-36
-3.364867e-36
-3.670595e-36
-3.053206e-36
-2.138633e-36
-2.702153e-36
-2.851283e-36
-3.501283e-36
-2.831134e-36
-3.300424e-36
-3.22966e-36
-3.335436e-36
-3.402171e-36
-3.506257e-36
-3.323607e-36
-3.321453e-36
-3.305345e-36
-3.302477e-36
-3.29895e-36
-3.297915e-36
-3.298053e-36
-3.299036e-36
-3.307077e-36
-3.339846e-36
-3.422296e-36
-3.387079e-36
-3.384456e-36
-3.321609e-36
-3.274597e-36
-3.591757e-36
-3.839554e-36
-3.375818e-36
-1.9695e-36
-3.669841e-36
-3.237721e-36
-2.134685e-36
-3.069872e-36
-3.353951e-36
-3.257246e-36
-3.383438e-36
-3.4299e-36
-3.323317e-36
-3.292669e-36
-3.302797e-36
-3.320534e-36
-3.337218e-36
-3.346906e-36
-3.348693e-36
-3.342358e-36
-3.328702e-36
-3.3104e-36
-3.29644e-36
-3.329425e-36
-3.35924e-36
-3.316087e-36
-3.361007e-36
-3.281986e-36
-3.225146e-36
-3.367011e-36
-3.797545e-36
-2.989933e-36
-5.341629e-36
-1.610039e-36
-3.512951e-36
-2.710317e-36
-3.339486e-36
-3.228434e-36
-3.344595e-36
-3.42037e-36
-3.545258e-36
-3.321013e-36
-3.302636e-36
-3.326622e-36
-3.356529e-36
-3.379643e-36
-3.39275e-36
-3.39528e-36
-3.387077e-36
-3.368862e-36
-3.342162e-36
-3.313911e-36
-3.329912e-36
-3.432069e-36
-3.407039e-36
-3.397059e-36
-3.328604e-36
-3.276627e-36
-3.711381e-36
-3.872636e-36
-3.593531e-36
-2.039434e-36
-2.554735e-36
-2.525237e-36
-3.68502e-36
-2.90357e-36
-3.245218e-36
-3.227558e-36
-3.373781e-36
-3.430894e-36
-3.336085e-36
-3.305084e-36
-3.320431e-36
-3.356514e-36
-3.390264e-36
-3.414151e-36
-3.427364e-36
-3.42989e-36
-3.421587e-36
-3.402908e-36
-3.374409e-36
-3.338802e-36
-3.311273e-36
-3.338568e-36
-3.363215e-36
-3.308674e-36
-3.345551e-36
-3.248365e-36
-3.755994e-36
-3.891593e-36
-3.348585e-36
-1.711074e-36
-3.612116e-36
-2.773122e-36
-3.758344e-36
-2.980924e-36
-3.283846e-36
-3.316256e-36
-3.401969e-36
-3.52615e-36
-3.310563e-36
-3.302293e-36
-3.337083e-36
-3.379536e-36
-3.414052e-36
-3.438334e-36
-3.452129e-36
-3.454855e-36
-3.446097e-36
-3.426764e-36
-3.397643e-36
-3.359316e-36
-3.319365e-36
-3.325078e-36
-3.415273e-36
-3.387707e-36
-3.383635e-36
-3.289583e-36
-3.797537e-36
-3.916318e-36
-3.565839e-36
-2.664228e-36
-3.713437e-36
-2.854364e-36
-3.781743e-36
-3.009348e-36
-3.287144e-36
-3.2935e-36
-3.438477e-36
-3.30441e-36
-3.274323e-36
-3.298888e-36
-3.34676e-36
-3.392618e-36
-3.427214e-36
-3.45199e-36
-3.464612e-36
-3.467379e-36
-3.459034e-36
-3.44015e-36
-3.410452e-36
-3.370996e-36
-3.324279e-36
-3.287982e-36
-3.30667e-36
-3.32726e-36
-3.333504e-36
-3.301028e-36
-3.813989e-36
-3.926841e-36
-3.602689e-36
-2.803116e-36
-3.731346e-36
-2.86557e-36
-3.786466e-36
-3.016152e-36
-3.291824e-36
-3.299132e-36
-3.458251e-36
-3.311214e-36
-3.26506e-36
-3.297976e-36
-3.348659e-36
-3.395197e-36
-3.429755e-36
-3.454633e-36
-3.467055e-36
-3.469907e-36
-3.461439e-36
-3.442742e-36
-3.412951e-36
-3.373614e-36
-3.326943e-36
-3.288332e-36
-3.317558e-36
-3.331773e-36
-3.334638e-36
-3.301234e-36
-3.818251e-36
-3.929998e-36
-3.610902e-36
-2.828265e-36
-3.697666e-36
-2.824464e-36
-3.775066e-36
-3.003897e-36
-3.298791e-36
-3.293463e-36
-3.411501e-36
-3.407071e-36
-3.284382e-36
-3.298122e-36
-3.342303e-36
-3.387021e-36
-3.421501e-36
-3.445938e-36
-3.458814e-36
-3.461367e-36
-3.453157e-36
-3.434153e-36
-3.40502e-36
-3.367135e-36
-3.326051e-36
-3.318904e-36
-3.280713e-36
-3.387787e-36
-3.359324e-36
-3.29413e-36
-3.812305e-36
-3.924054e-36
-3.590047e-36
-2.772907e-36
-3.532958e-36
-2.707039e-36
-3.752228e-36
-2.962501e-36
-3.281379e-36
-3.286596e-36
-3.340818e-36
-3.450975e-36
-3.338449e-36
-3.299086e-36
-3.328641e-36
-3.368835e-36
-3.402875e-36
-3.426632e-36
-3.439977e-36
-3.442662e-36
-3.434089e-36
-3.415285e-36
-3.387324e-36
-3.352321e-36
-3.321387e-36
-3.354492e-36
-3.361945e-36
-3.291015e-36
-3.384067e-36
-3.273503e-36
-3.791646e-36
-3.907135e-36
-3.517206e-36
-2.537105e-36
-2.159155e-36
-2.382339e-36
-3.529668e-36
-2.878363e-36
-3.239112e-36
-3.271897e-36
-3.330465e-36
-3.450369e-36
-3.435785e-36
-3.307038e-36
-3.310375e-36
-3.342162e-36
-3.374348e-36
-3.397519e-36
-3.410179e-36
-3.412693e-36
-3.40486e-36
-3.387241e-36
-3.360961e-36
-3.331967e-36
-3.336403e-36
-3.31257e-36
-3.429844e-36
-3.385106e-36
-3.314796e-36
-3.252241e-36
-3.787234e-36
-3.870861e-36
-3.56828e-36
8.326001e-38
-3.940562e-36
-3.403618e-36
-2.950059e-36
-3.208897e-36
-3.306631e-36
-3.320857e-36
-3.364326e-36
-3.4602e-36
-3.339756e-36
-3.296443e-36
-3.313911e-36
-3.338734e-36
-3.359108e-36
-3.37053e-36
-3.372749e-36
-3.366769e-36
-3.352154e-36
-3.331913e-36
-3.312284e-36
-3.350552e-36
-3.36691e-36
-3.312021e-36
-3.411449e-36
-3.313145e-36
-3.523522e-36
-4.014846e-36
-3.891489e-36
-2.925445e-36
-3.659655e-36
-3.056623e-36
-3.75097e-36
-2.920105e-36
-3.249875e-36
-3.284904e-36
-3.331992e-36
-3.444412e-36
-3.421905e-36
-3.329242e-36
-3.329912e-36
-3.311238e-36
-3.319157e-36
-3.323531e-36
-3.325608e-36
-3.325596e-36
-3.321231e-36
-3.336305e-36
-3.350466e-36
-3.305285e-36
-3.414728e-36
-3.379815e-36
-3.323686e-36
-3.287293e-36
-3.69252e-36
-3.909445e-36
-3.554618e-36
-2.979689e-36
-2.173501e-36
-2.416779e-36
-3.551793e-36
-3.004354e-36
-3.199238e-36
-3.302996e-36
-3.336633e-36
-3.342053e-36
-3.386448e-36
-3.358992e-36
-3.432033e-36
-3.338482e-36
-3.324851e-36
-3.287496e-36
-3.287199e-36
-3.318525e-36
-3.35449e-36
-3.312569e-36
-3.366639e-36
-3.414339e-36
-3.306012e-36
-3.395326e-36
-3.317122e-36
-3.5173e-36
-4.014132e-36
-3.782879e-36
-3.594607e-36
-1.980769e-37
-2.856534e-36
-3.299554e-36
-3.713007e-36
-3.184903e-36
-3.233232e-36
-3.3333e-36
-3.354964e-36
-3.384079e-36
-3.316097e-36
-3.407095e-36
-3.362951e-36
-3.415036e-36
-3.306085e-36
-3.316278e-36
-3.280431e-36
-3.362149e-36
-3.43012e-36
-3.311852e-36
-3.379544e-36
-3.395336e-36
-3.330881e-36
-3.582899e-36
-3.937369e-36
-3.980406e-36
-3.714501e-36
-1.06361e-36
-3.949556e-36
-3.273022e-36
-3.839202e-36
-3.246777e-36
-3.246152e-36
-3.319435e-36
-3.321205e-36
-3.360983e-36
-3.397152e-36
-3.308348e-36
-3.387629e-36
-3.326779e-36
-3.330834e-36
-3.387436e-36
-3.291245e-36
-3.385415e-36
-3.411193e-36
-3.323561e-36
-3.317233e-36
-3.583618e-36
-3.945895e-36
-3.995221e-36
-3.567717e-36
-2.99945e-36
-2.387692e-36
-2.514859e-36
-3.492773e-36
-3.860449e-36
-3.252371e-36
-3.19698e-36
-3.274436e-36
-3.281974e-36
-3.328646e-36
-3.345591e-36
-3.383244e-36
-3.333122e-36
-3.333533e-36
-3.358849e-36
-3.384017e-36
-3.314688e-36
-3.313007e-36
-3.287032e-36
-3.516799e-36
-3.937209e-36
-3.995713e-36
-3.599327e-36
-3.642365e-36
-6.28096e-37
-2.562278e-36
-2.844714e-36
-3.463742e-36
-3.836921e-36
-3.364486e-36
-3.591868e-36
-3.225119e-36
-3.276753e-36
-3.248359e-36
-3.289514e-36
-3.300296e-36
-3.298773e-36
-3.29301e-36
-3.27293e-36
-3.251985e-36
-3.523581e-36
-3.691534e-36
-4.014165e-36
-3.980143e-36
-3.564142e-36
-3.644735e-36
-2.898352e-37
-2.267695e-36
-2.099783e-36
-3.714519e-36
-3.670095e-36
-3.839621e-36
-3.367966e-36
-3.712236e-36
-3.756657e-36
-3.798483e-36
-3.81351e-36
-3.818495e-36
-3.811412e-36
-3.790277e-36
-3.785916e-36
-4.011989e-36
-3.907703e-36
-3.782182e-36
-3.716886e-36
-2.992836e-36
-6.141121e-37
-3.031502e-36
-3.052937e-36
-3.375157e-36
-3.797314e-36
-3.872923e-36
-3.892268e-36
-3.91743e-36
-3.926579e-36
-3.931324e-36
-3.924809e-36
-3.907551e-36
-3.871138e-36
-3.892449e-36
-3.55721e-36
-3.594967e-36
-1.061335e-36
-2.138156e-36
-1.966755e-36
-2.989663e-36
-3.59155e-36
-3.348223e-36
-3.566701e-36
-3.602352e-36
-3.61266e-36
-3.589852e-36
-3.518095e-36
-3.566975e-36
-2.92573e-36
-2.978582e-36
-1.943502e-37
-2.03207e-36
-1.706002e-36
-2.664717e-36
-2.80348e-36
-2.828159e-36
-2.7742e-36
-2.538194e-36
9.354939e-38
-5.341678e-36
-2.735332e-36
-3.700242e-36
-3.746178e-36
-3.620146e-36
-2.363164e-36
-5.341684e-36
-2.909845e-36
-3.936013e-36
-3.920672e-36
-2.17901e-36
-2.873654e-36
-3.032231e-36
-3.062224e-36
-3.001915e-36
-2.859209e-36
-4.214551e-36
-3.97955e-36
-3.760936e-36
-2.358385e-36
-5.341665e-36
-3.165694e-36
-2.090605e-36
-2.886887e-36
-2.920022e-36
-1.660608e-36
-2.431299e-36
-2.730128e-36
-2.835742e-36
-2.851312e-36
-2.816266e-36
-2.590226e-36
-2.462759e-36
-3.201149e-36
-3.021576e-36
-2.989907e-36
-3.895959e-36
-2.793938e-36
-5.341743e-36
-1.563746e-36
-2.809119e-36
-1.886981e-36
-2.588119e-36
-2.956032e-36
-3.090643e-36
-3.321968e-36
-3.223709e-36
-3.255424e-36
-3.261399e-36
-3.242193e-36
-3.21564e-36
-3.199249e-36
-2.949566e-36
-2.801378e-36
-2.709383e-36
-3.344968e-36
-2.725964e-36
-2.995766e-36
-5.341791e-36
-1.978592e-36
-3.157372e-36
-2.374155e-36
-2.938587e-36
-3.289492e-36
-3.3053e-36
-3.438805e-36
-3.302846e-36
-3.323213e-36
-3.341082e-36
-3.344971e-36
-3.333026e-36
-3.331326e-36
-3.370285e-36
-3.320886e-36
-3.284574e-36
-3.191016e-36
-3.150404e-36
-3.458174e-36
-3.357093e-36
-3.147344e-36
-5.341791e-36
-1.819107e-36
-1.839548e-36
-2.745646e-36
-3.096799e-36
-3.566735e-36
-3.311378e-36
-3.372297e-36
-3.458824e-36
-3.504195e-36
-3.533384e-36
-3.551074e-36
-3.555583e-36
-3.545947e-36
-3.522973e-36
-3.496979e-36
-3.406946e-36
-3.309854e-36
-3.334346e-36
-3.342779e-36
-2.998805e-36
-2.784697e-36
-3.503599e-36
-3.137926e-36
-5.34179e-36
-1.81645e-36
-2.027919e-36
-2.842777e-36
-3.29414e-36
-3.499208e-36
-3.377507e-36
-3.407206e-36
-3.534303e-36
-3.36821e-36
-3.377128e-36
-3.396141e-36
-3.410266e-36
-3.41374e-36
-3.406441e-36
-3.389876e-36
-3.392189e-36
-3.446326e-36
-3.44642e-36
-3.435825e-36
-3.3745e-36
-3.328292e-36
-3.202951e-36
-2.944537e-36
-3.469698e-36
-3.066025e-36
-5.341743e-36
-1.971243e-36
-1.840573e-36
-2.842155e-36
-3.397959e-36
-3.313625e-36
-3.360405e-36
-3.513269e-36
-3.358681e-36
-3.369718e-36
-3.366364e-36
-3.372995e-36
-3.381463e-36
-3.385605e-36
-3.387577e-36
-3.38622e-36
-3.379359e-36
-3.370831e-36
-3.365473e-36
-3.380997e-36
-3.444385e-36
-3.392442e-36
-3.313811e-36
-3.322463e-36
-3.18038e-36
-3.128399e-36
-3.437826e-36
-2.994831e-36
-5.341664e-36
-1.552401e-36
-3.159352e-36
-2.741225e-36
-3.293353e-36
-3.313556e-36
-3.36253e-36
-3.526965e-36
-3.382214e-36
-3.368156e-36
-3.377306e-36
-3.382864e-36
-3.38274e-36
-3.377601e-36
-3.373645e-36
-3.374093e-36
-3.377686e-36
-3.382015e-36
-3.38688e-36
-3.382028e-36
-3.373642e-36
-3.390651e-36
-3.458756e-36
-3.403113e-36
-3.316155e-36
-3.322842e-36
-3.571606e-36
-3.614434e-36
-3.162469e-36
-2.529597e-36
-3.168173e-36
-2.809389e-36
-2.369485e-36
-3.097475e-36
-3.499159e-36
-3.360178e-36
-3.52757e-36
-3.391586e-36
-3.378502e-36
-3.380726e-36
-3.388501e-36
-3.391411e-36
-3.386092e-36
-3.377979e-36
-3.351799e-36
-3.34516e-36
-3.360007e-36
-3.381961e-36
-3.39273e-36
-3.392754e-36
-3.389099e-36
-3.380748e-36
-3.399752e-36
-3.462432e-36
-3.400769e-36
-3.33114e-36
-3.371001e-36
-3.258356e-36
-3.534659e-36
-2.324925e-36
-5.341683e-36
-2.089828e-36
-1.886921e-36
-2.940616e-36
-3.565e-36
-3.377174e-36
-3.512593e-36
-3.382035e-36
-3.37851e-36
-3.380853e-36
-3.38347e-36
-3.386843e-36
-3.389232e-36
-3.366952e-36
-3.349918e-36
-3.332091e-36
-3.32741e-36
-3.336883e-36
-3.354664e-36
-3.374822e-36
-3.390016e-36
-3.391838e-36
-3.385585e-36
-3.38013e-36
-3.396629e-36
-3.448782e-36
-3.397391e-36
-3.421212e-36
-3.269816e-36
-3.289545e-36
-3.743322e-36
-2.458039e-36
-2.913141e-36
-2.886831e-36
-2.589498e-36
-3.288441e-36
-3.311425e-36
-3.406902e-36
-3.358154e-36
-3.367794e-36
-3.380693e-36
-3.383435e-36
-3.380954e-36
-3.363656e-36
-3.356985e-36
-3.3475e-36
-3.34214e-36
-3.337493e-36
-3.336099e-36
-3.338131e-36
-3.342905e-36
-3.349879e-36
-3.359532e-36
-3.374051e-36
-3.384245e-36
-3.384267e-36
-3.377719e-36
-3.384864e-36
-3.363565e-36
-3.278225e-36
-3.326557e-36
-3.659752e-36
-3.531635e-36
-2.192461e-36
-3.933758e-36
-2.923895e-36
-2.957846e-36
-3.304813e-36
-3.373275e-36
-3.53373e-36
-3.369104e-36
-3.376896e-36
-3.388433e-36
-3.386622e-36
-3.363516e-36
-3.345083e-36
-3.344824e-36
-3.350778e-36
-3.357866e-36
-3.362158e-36
-3.362869e-36
-3.359922e-36
-3.353988e-36
-3.347279e-36
-3.344815e-36
-3.355033e-36
-3.373434e-36
-3.386225e-36
-3.385492e-36
-3.395873e-36
-3.451246e-36
-3.383431e-36
-3.354862e-36
-3.655405e-36
-3.671987e-36
-3.082856e-36
-3.923723e-36
-1.653774e-36
-3.085836e-36
-3.438755e-36
-3.459579e-36
-3.3677e-36
-3.365965e-36
-3.382498e-36
-3.391036e-36
-3.38884e-36
-3.35676e-36
-3.344741e-36
-3.353784e-36
-3.369628e-36
-3.383677e-36
-3.392156e-36
-3.393835e-36
-3.388546e-36
-3.377158e-36
-3.362065e-36
-3.349046e-36
-3.349172e-36
-3.36971e-36
-3.387924e-36
-3.389284e-36
-3.380959e-36
-3.387613e-36
-3.376e-36
-3.359973e-36
-3.317728e-36
-3.299313e-36
-3.432255e-36
-5.341677e-36
-2.173384e-36
-2.428353e-36
-3.320263e-36
-3.303025e-36
-3.504479e-36
-3.376632e-36
-3.372523e-36
-3.382547e-36
-3.385694e-36
-3.366622e-36
-3.347326e-36
-3.350702e-36
-3.369605e-36
-3.391225e-36
-3.408515e-36
-3.418671e-36
-3.420716e-36
-3.414471e-36
-3.400678e-36
-3.38122e-36
-3.360757e-36
-3.348688e-36
-3.355815e-36
-3.372995e-36
-3.384155e-36
-3.385209e-36
-3.401928e-36
-3.408944e-36
-3.388476e-36
-3.319043e-36
-3.678419e-36
-3.874779e-36
-2.146256e-36
-2.739241e-36
-2.87218e-36
-2.730859e-36
-3.224652e-36
-3.324095e-36
-3.533634e-36
-3.395752e-36
-3.380852e-36
-3.377264e-36
-3.377641e-36
-3.349679e-36
-3.342022e-36
-3.357791e-36
-3.383622e-36
-3.40847e-36
-3.427464e-36
-3.438504e-36
-3.440749e-36
-3.433965e-36
-3.418883e-36
-3.397022e-36
-3.371665e-36
-3.350066e-36
-3.344448e-36
-3.360836e-36
-3.377469e-36
-3.385636e-36
-3.41684e-36
-3.434301e-36
-3.388537e-36
-3.270493e-36
-3.734215e-36
-3.536101e-36
-2.035395e-36
-3.695782e-36
-3.034185e-36
-2.839415e-36
-3.257599e-36
-3.34219e-36
-3.551528e-36
-3.410401e-36
-3.385523e-36
-3.373545e-36
-3.351713e-36
-3.332052e-36
-3.33746e-36
-3.362097e-36
-3.392086e-36
-3.418592e-36
-3.438438e-36
-3.449559e-36
-3.451871e-36
-3.444996e-36
-3.429511e-36
-3.406451e-36
-3.378565e-36
-3.351465e-36
-3.335953e-36
-3.342048e-36
-3.361397e-36
-3.38165e-36
-3.424995e-36
-3.449671e-36
-3.403998e-36
-3.292824e-36
-3.764499e-36
-3.692179e-36
-2.81583e-36
-3.744803e-36
-3.062737e-36
-2.852563e-36
-3.262244e-36
-3.345726e-36
-3.556286e-36
-3.414456e-36
-3.388148e-36
-3.3745e-36
-3.345406e-36
-3.327534e-36
-3.336144e-36
-3.362852e-36
-3.393779e-36
-3.420628e-36
-3.44063e-36
-3.451754e-36
-3.45409e-36
-3.447206e-36
-3.431725e-36
-3.408544e-36
-3.380394e-36
-3.352419e-36
-3.334292e-36
-3.339039e-36
-3.357215e-36
-3.380312e-36
-3.426506e-36
-3.452406e-36
-3.406819e-36
-3.297425e-36
-3.769744e-36
-3.701152e-36
-2.859663e-36
-3.623736e-36
-2.999515e-36
-2.813777e-36
-3.241459e-36
-3.333289e-36
-3.546779e-36
-3.407487e-36
-3.386922e-36
-3.378049e-36
-3.360344e-36
-3.337059e-36
-3.338202e-36
-3.359913e-36
-3.388501e-36
-3.414394e-36
-3.433848e-36
-3.444867e-36
-3.447145e-36
-3.440475e-36
-3.425354e-36
-3.403166e-36
-3.376995e-36
-3.352848e-36
-3.342061e-36
-3.346712e-36
-3.367977e-36
-3.381054e-36
-3.42073e-36
-3.442074e-36
-3.397099e-36
-3.284506e-36
-3.748656e-36
-3.658494e-36
-2.695613e-36
-2.384282e-36
-2.861785e-36
-2.588976e-36
-3.21294e-36
-3.330609e-36
-3.523653e-36
-3.390878e-36
-3.379725e-36
-3.382131e-36
-3.382175e-36
-3.354813e-36
-3.342964e-36
-3.353978e-36
-3.377124e-36
-3.40061e-36
-3.418764e-36
-3.429362e-36
-3.43161e-36
-3.425288e-36
-3.411194e-36
-3.391144e-36
-3.369033e-36
-3.352262e-36
-3.353641e-36
-3.366979e-36
-3.376822e-36
-3.382073e-36
-3.408218e-36
-3.419763e-36
-3.379148e-36
-3.281435e-36
-3.734453e-36
-3.753571e-36
-4.051759e-37
-4.212297e-36
-2.468028e-36
-3.196957e-36
-3.368634e-36
-3.497287e-36
-3.393041e-36
-3.370934e-36
-3.387094e-36
-3.392829e-36
-3.374887e-36
-3.349895e-36
-3.347269e-36
-3.362035e-36
-3.381139e-36
-3.396873e-36
-3.406223e-36
-3.408303e-36
-3.403003e-36
-3.391066e-36
-3.374618e-36
-3.358587e-36
-3.35337e-36
-3.361173e-36
-3.382076e-36
-3.385709e-36
-3.38438e-36
-3.409753e-36
-3.399255e-36
-3.376516e-36
-3.566805e-36
-3.945359e-36
-3.326408e-36
-3.979563e-36
-3.205465e-36
-2.952489e-36
-3.318515e-36
-3.406664e-36
-3.447056e-36
-3.365674e-36
-3.382501e-36
-3.3929e-36
-3.389999e-36
-3.359495e-36
-3.344789e-36
-3.349008e-36
-3.360659e-36
-3.371461e-36
-3.378216e-36
-3.379914e-36
-3.376696e-36
-3.368881e-36
-3.358528e-36
-3.350385e-36
-3.356436e-36
-3.373153e-36
-3.385357e-36
-3.387197e-36
-3.397995e-36
-3.342695e-36
-3.409213e-36
-3.371078e-36
-3.692547e-36
-3.804688e-36
-3.210803e-36
-3.763995e-36
-3.01959e-36
-2.801236e-36
-3.285318e-36
-3.309574e-36
-3.446771e-36
-3.381021e-36
-3.374252e-36
-3.389432e-36
-3.391799e-36
-3.373897e-36
-3.354936e-36
-3.349122e-36
-3.348586e-36
-3.34983e-36
-3.350995e-36
-3.351755e-36
-3.352472e-36
-3.352085e-36
-3.353273e-36
-3.356363e-36
-3.362013e-36
-3.38045e-36
-3.385716e-36
-3.386042e-36
-3.407464e-36
-3.382395e-36
-3.261404e-36
-3.360427e-36
-3.753443e-36
-3.56223e-36
-2.96534e-36
-2.372235e-36
-2.986179e-36
-2.70653e-36
-3.193806e-36
-3.334739e-36
-3.436972e-36
-3.444554e-36
-3.39123e-36
-3.38109e-36
-3.38558e-36
-3.383994e-36
-3.373308e-36
-3.369657e-36
-3.355705e-36
-3.344214e-36
-3.335524e-36
-3.333651e-36
-3.34171e-36
-3.353523e-36
-3.361115e-36
-3.37301e-36