/*--------------------------------*- C++ -*----------------------------------*\
  =========                 |
  \\      /  F ield         | OpenFOAM: The Open Source CFD Toolbox
   \\    /   O peration     | Website:  https://openfoam.org
    \\  /    A nd           | Version:  6
     \\/     M anipulation  |
\*---------------------------------------------------------------------------*/
FoamFile
{
    version     2.0;
    format      ascii;
    class       volScalarField;
    location    "49.8/region0/neutronTransport";
    object      discFlux2;
}
// * * * * * * * * * * * * * * * * * * * * * * * * * * * * * * * * * * * * * //

dimensions      [0 -2 -1 0 0 0 0];

internalField   nonuniform List<scalar> 
203709
(
1.214269e+16
1.382093e+16
1.381955e+16
1.214776e+16
1.274702e+16
1.477356e+16
1.974066e+16
1.936977e+16
1.936804e+16
1.974284e+16
1.477637e+16
1.27522e+16
1.242737e+16
1.483703e+16
1.995819e+16
1.968995e+16
2.030035e+16
2.044382e+16
2.044434e+16
2.03028e+16
1.969361e+16
1.996428e+16
1.484327e+16
1.243378e+16
1.242769e+16
1.939684e+16
1.961624e+16
2.040859e+16
2.080799e+16
2.117744e+16
2.133906e+16
2.134124e+16
2.11799e+16
2.08117e+16
2.041486e+16
1.96239e+16
1.940676e+16
1.243466e+16
1.48342e+16
1.961413e+16
2.052435e+16
2.11641e+16
2.165614e+16
2.201524e+16
2.219409e+16
2.219589e+16
2.2017e+16
2.165966e+16
2.116983e+16
2.053079e+16
1.962149e+16
1.484007e+16
1.274129e+16
1.995112e+16
2.040499e+16
2.1162e+16
2.183176e+16
2.236187e+16
2.27305e+16
2.291266e+16
2.291346e+16
2.273257e+16
2.236604e+16
2.183594e+16
2.11672e+16
2.041191e+16
1.995988e+16
1.274567e+16
1.476278e+16
1.967897e+16
2.08005e+16
2.165054e+16
2.235973e+16
2.291036e+16
2.327523e+16
2.344509e+16
2.344558e+16
2.327769e+16
2.291279e+16
2.236272e+16
2.165689e+16
2.080902e+16
1.96883e+16
1.477126e+16
1.21354e+16
1.972722e+16
2.028865e+16
2.116859e+16
2.200975e+16
2.272721e+16
2.327445e+16
2.360685e+16
2.377212e+16
2.377275e+16
2.360905e+16
2.327632e+16
2.27315e+16
2.201682e+16
2.117792e+16
2.029983e+16
1.974146e+16
1.214046e+16
1.380563e+16
1.935054e+16
2.042726e+16
2.132802e+16
2.218622e+16
2.290696e+16
2.344299e+16
2.377125e+16
2.395469e+16
2.394823e+16
2.377138e+16
2.344534e+16
2.291228e+16
2.219314e+16
2.13368e+16
2.043973e+16
1.936317e+16
1.381414e+16
1.380703e+16
1.935438e+16
2.042773e+16
2.132558e+16
2.218415e+16
2.290606e+16
2.34415e+16
2.377017e+16
2.395889e+16
2.395156e+16
2.376967e+16
2.344264e+16
2.29089e+16
2.219092e+16
2.133487e+16
2.043798e+16
1.936448e+16
1.381619e+16
1.213004e+16
1.972794e+16
2.028645e+16
2.11652e+16
2.200625e+16
2.272436e+16
2.327224e+16
2.36058e+16
2.377169e+16
2.376902e+16
2.360398e+16
2.327178e+16
2.272565e+16
2.201074e+16
2.117209e+16
2.029446e+16
1.973449e+16
1.21391e+16
1.47588e+16
1.967538e+16
2.079753e+16
2.164879e+16
2.235724e+16
2.290853e+16
2.327367e+16
2.344491e+16
2.344175e+16
2.327275e+16
2.290681e+16
2.235682e+16
2.164993e+16
2.080087e+16
1.968174e+16
1.476688e+16
1.273784e+16
1.994764e+16
2.040069e+16
2.115891e+16
2.182847e+16
2.235994e+16
2.272705e+16
2.291108e+16
2.290898e+16
2.272733e+16
2.235863e+16
2.182819e+16
2.115979e+16
2.040371e+16
1.995265e+16
1.274268e+16
1.483116e+16
1.961023e+16
2.052156e+16
2.116203e+16
2.165392e+16
2.201308e+16
2.220251e+16
2.220111e+16
2.201111e+16
2.165186e+16
2.116031e+16
2.052132e+16
1.961365e+16
1.483492e+16
1.2427e+16
1.939679e+16
1.961408e+16
2.040677e+16
2.080405e+16
2.117271e+16
2.134303e+16
2.134223e+16
2.117062e+16
2.08015e+16
2.040331e+16
1.96108e+16
1.939547e+16
1.2425e+16
1.24287e+16
1.483572e+16
1.995431e+16
1.968131e+16
2.029229e+16
2.043916e+16
2.044061e+16
2.029082e+16
1.968061e+16
1.995068e+16
1.483046e+16
1.242456e+16
1.27422e+16
1.476426e+16
1.973053e+16
1.936622e+16
1.936942e+16
1.972955e+16
1.476297e+16
1.273986e+16
1.213458e+16
1.380788e+16
1.38092e+16
1.213474e+16
1.010581e+16
1.18999e+16
1.242453e+16
1.278208e+16
1.300749e+16
1.300805e+16
1.278377e+16
1.242692e+16
1.190305e+16
1.010999e+16
1.03453e+16
1.251068e+16
1.722519e+16
1.768607e+16
1.836457e+16
1.92077e+16
1.988339e+16
1.988443e+16
1.921203e+16
1.836679e+16
1.768449e+16
1.722183e+16
1.250645e+16
1.034275e+16
1.057212e+16
1.689263e+16
1.773337e+16
1.921568e+16
2.073383e+16
2.203027e+16
2.411134e+16
2.571711e+16
2.571796e+16
2.411487e+16
2.202884e+16
2.073018e+16
1.921512e+16
1.773339e+16
1.689719e+16
1.057493e+16
1.067556e+16
1.719357e+16
1.873153e+16
2.062854e+16
2.266531e+16
2.61434e+16
3.067501e+16
3.694945e+16
3.87438e+16
3.874462e+16
3.694759e+16
3.067551e+16
2.6147e+16
2.267097e+16
2.063429e+16
1.873756e+16
1.719768e+16
1.068077e+16
1.056888e+16
1.718916e+16
1.89302e+16
2.116575e+16
2.55603e+16
3.114468e+16
3.904268e+16
4.379727e+16
4.73602e+16
5.295904e+16
5.295967e+16
4.736511e+16
4.380302e+16
3.904732e+16
3.115503e+16
2.556843e+16
2.117642e+16
1.893821e+16
1.7196e+16
1.057532e+16
1.034169e+16
1.689124e+16
1.872722e+16
2.116485e+16
2.748333e+16
3.770454e+16
4.374796e+16
4.875172e+16
5.671334e+16
6.023984e+16
6.233034e+16
6.233132e+16
6.024322e+16
5.671887e+16
4.876022e+16
4.375707e+16
3.771113e+16
2.749279e+16
2.117174e+16
1.873525e+16
1.689955e+16
1.034823e+16
1.250003e+16
1.772365e+16
2.062009e+16
2.555471e+16
3.769982e+16
4.630289e+16
5.577725e+16
6.09414e+16
6.497513e+16
6.745004e+16
6.871312e+16
6.871439e+16
6.745343e+16
6.498236e+16
6.095188e+16
5.578845e+16
4.631406e+16
3.771087e+16
2.556342e+16
2.063135e+16
1.77348e+16
1.250855e+16
1.010349e+16
1.721277e+16
1.920181e+16
2.265444e+16
3.113311e+16
4.37449e+16
5.577427e+16
6.280392e+16
6.727398e+16
7.034671e+16
7.228899e+16
7.324769e+16
7.324932e+16
7.229333e+16
7.035573e+16
6.728696e+16
6.281932e+16
5.579185e+16
4.37631e+16
3.115129e+16
2.266947e+16
1.921265e+16
1.722081e+16
1.010536e+16
1.189522e+16
1.767844e+16
2.071859e+16
2.613307e+16
3.903857e+16
4.874883e+16
6.093671e+16
6.727092e+16
7.129374e+16
7.398356e+16
7.567571e+16
7.650005e+16
7.650192e+16
7.568142e+16
7.3994e+16
7.13078e+16
6.728804e+16
6.095593e+16
4.876786e+16
3.90562e+16
2.614114e+16
2.072846e+16
1.768422e+16
1.189709e+16
1.241796e+16
1.835808e+16
2.201398e+16
3.06542e+16
4.379119e+16
5.670459e+16
6.496593e+16
7.033933e+16
7.397998e+16
7.645771e+16
7.802353e+16
7.878941e+16
7.879122e+16
7.802957e+16
7.646728e+16
7.399302e+16
7.035642e+16
6.498517e+16
5.672211e+16
4.379964e+16
3.067267e+16
2.202908e+16
1.836375e+16
1.242153e+16
1.277279e+16
1.92001e+16
2.410136e+16
3.693793e+16
4.735208e+16
6.022864e+16
6.743739e+16
7.227845e+16
7.566914e+16
7.8021e+16
7.951062e+16
8.02411e+16
8.024164e+16
7.951448e+16
7.802768e+16
7.568022e+16
7.229469e+16
6.74569e+16
6.024779e+16
4.736671e+16
3.695622e+16
2.411205e+16
1.920844e+16
1.278095e+16
1.299444e+16
1.986808e+16
2.56992e+16
3.87301e+16
5.294476e+16
6.231463e+16
6.869739e+16
7.323408e+16
7.649016e+16
7.87845e+16
8.024014e+16
8.095786e+16
8.09546e+16
8.024167e+16
7.879084e+16
7.650174e+16
7.325043e+16
6.871727e+16
6.233615e+16
5.296494e+16
3.874949e+16
2.571632e+16
1.988299e+16
1.300622e+16
1.299132e+16
1.986205e+16
2.569198e+16
3.872395e+16
5.294252e+16
6.231371e+16
6.869616e+16
7.32324e+16
7.648834e+16
7.878257e+16
8.023961e+16
8.096084e+16
8.095746e+16
8.024205e+16
7.879027e+16
7.650065e+16
7.324923e+16
6.871633e+16
6.233617e+16
5.296511e+16
3.87443e+16
2.57103e+16
1.987846e+16
1.300377e+16
1.276483e+16
1.91905e+16
2.409607e+16
3.693525e+16
4.734282e+16
6.022387e+16
6.743375e+16
7.227435e+16
7.566475e+16
7.801711e+16
7.950887e+16
8.024246e+16
8.024205e+16
7.951346e+16
7.802633e+16
7.567805e+16
7.22918e+16
6.745446e+16
6.024728e+16
4.736735e+16
3.695447e+16
2.411234e+16
1.920649e+16
1.277654e+16
1.241051e+16
1.835133e+16
2.20139e+16
3.065401e+16
4.378297e+16
5.669912e+16
6.496109e+16
7.033447e+16
7.397471e+16
7.645329e+16
7.80207e+16
7.878928e+16
7.878961e+16
7.802691e+16
7.646334e+16
7.398827e+16
7.035167e+16
6.498135e+16
5.672113e+16
4.380639e+16
3.066714e+16
2.202428e+16
1.836591e+16
1.242107e+16
1.188997e+16
1.767519e+16
2.071936e+16
2.612782e+16
3.903849e+16
4.874698e+16
6.093297e+16
6.726597e+16
7.128819e+16
7.397928e+16
7.567258e+16
7.64984e+16
7.649912e+16
7.567919e+16
7.39898e+16
7.130195e+16
6.728253e+16
6.095063e+16
4.876048e+16
3.905038e+16
2.614247e+16
2.072815e+16
1.768708e+16
1.189883e+16
1.009975e+16
1.721341e+16
1.92034e+16
2.26524e+16
3.113657e+16
4.374547e+16
5.577322e+16
6.280114e+16
6.727093e+16
7.034408e+16
7.228754e+16
7.324371e+16
7.324465e+16
7.229243e+16
7.035276e+16
6.728235e+16
6.281477e+16
5.578666e+16
4.375379e+16
3.114292e+16
2.266295e+16
1.921025e+16
1.72216e+16
1.010707e+16
1.250409e+16
1.77243e+16
2.061902e+16
2.555456e+16
3.770278e+16
4.630352e+16
5.577703e+16
6.094176e+16
6.497445e+16
6.744992e+16
6.870643e+16
6.870752e+16
6.74531e+16
6.498006e+16
6.094868e+16
5.578592e+16
4.631138e+16
3.770647e+16
2.555842e+16
2.062749e+16
1.772939e+16
1.250428e+16
1.034508e+16
1.688913e+16
1.872684e+16
2.116446e+16
2.748451e+16
3.770448e+16
4.375151e+16
4.875775e+16
5.67147e+16
6.024205e+16
6.232617e+16
6.232846e+16
6.024407e+16
5.671684e+16
4.875734e+16
4.375464e+16
3.770876e+16
2.748463e+16
2.116516e+16
1.873149e+16
1.689308e+16
1.034103e+16
1.0572e+16
1.719503e+16
1.893296e+16
2.116383e+16
2.55552e+16
3.114106e+16
3.904826e+16
4.379956e+16
4.735977e+16
5.29509e+16
5.295404e+16
4.736107e+16
4.379702e+16
3.904184e+16
3.113953e+16
2.555505e+16
2.11628e+16
1.893162e+16
1.71949e+16
1.056969e+16
1.067769e+16
1.719299e+16
1.872776e+16
2.06245e+16
2.26597e+16
2.61298e+16
3.066033e+16
3.694528e+16
3.873448e+16
3.8735e+16
3.694022e+16
3.065628e+16
2.613023e+16
2.265477e+16
2.061945e+16
1.87242e+16
1.719091e+16
1.067623e+16
1.056664e+16
1.68894e+16
1.772561e+16
1.920286e+16
2.071721e+16
2.20178e+16
2.410184e+16
2.570145e+16
2.570076e+16
2.409898e+16
2.20112e+16
2.071568e+16
1.920299e+16
1.772343e+16
1.688543e+16
1.056499e+16
1.034261e+16
1.250211e+16
1.721358e+16
1.767784e+16
1.835707e+16
1.919798e+16
1.987136e+16
1.98713e+16
1.919655e+16
1.835283e+16
1.767265e+16
1.721412e+16
1.250215e+16
1.03409e+16
1.00986e+16
1.188969e+16
1.241179e+16
1.276727e+16
1.299234e+16
1.2992e+16
1.276937e+16
1.241376e+16
1.189032e+16
1.009708e+16
8.518622e+15
1.001886e+16
1.033844e+16
1.045564e+16
1.04536e+16
1.033211e+16
1.000617e+16
8.509342e+15
8.515221e+15
1.066229e+16
1.181986e+16
1.612738e+16
1.669688e+16
1.705142e+16
1.721138e+16
1.720933e+16
1.704449e+16
1.668524e+16
1.612293e+16
1.181873e+16
1.06632e+16
8.521888e+15
9.457412e+15
1.556786e+16
1.714852e+16
1.947465e+16
2.187906e+16
2.291275e+16
2.354037e+16
2.382981e+16
2.3828e+16
2.353486e+16
2.29038e+16
2.186953e+16
1.947058e+16
1.714648e+16
1.556988e+16
9.466164e+15
8.836863e+15
1.147376e+16
1.679402e+16
2.084896e+16
2.555554e+16
3.240451e+16
3.519188e+16
3.667526e+16
3.764045e+16
3.813559e+16
3.813293e+16
3.763293e+16
3.666405e+16
3.517883e+16
3.239329e+16
2.554984e+16
2.085164e+16
1.679322e+16
1.147762e+16
8.840234e+15
8.911965e+15
1.515544e+16
1.78653e+16
2.378383e+16
3.306729e+16
3.875953e+16
4.352849e+16
5.09456e+16
5.433786e+16
5.632428e+16
5.730032e+16
5.729818e+16
5.631931e+16
5.433251e+16
5.094332e+16
4.353485e+16
3.876793e+16
3.30723e+16
2.378226e+16
1.787049e+16
1.515681e+16
8.914421e+15
8.834854e+15
1.515782e+16
1.852989e+16
2.486908e+16
3.584474e+16
4.306965e+16
5.260209e+16
5.868679e+16
6.398171e+16
6.793182e+16
7.068698e+16
7.203975e+16
7.203814e+16
7.068465e+16
6.792679e+16
6.397639e+16
5.868573e+16
5.260244e+16
4.307146e+16
3.584871e+16
2.487484e+16
1.852965e+16
1.515794e+16
8.837707e+15
1.14747e+16
1.786569e+16
2.486979e+16
3.645755e+16
4.464883e+16
5.588285e+16
6.403658e+16
7.06789e+16
7.645301e+16
8.118416e+16
8.483215e+16
8.628307e+16
8.628166e+16
8.482786e+16
8.117943e+16
7.645196e+16
7.068334e+16
6.404272e+16
5.58907e+16
4.46549e+16
3.645698e+16
2.487141e+16
1.786909e+16
1.147779e+16
9.462915e+15
1.678775e+16
2.377547e+16
3.584738e+16
4.464457e+16
5.686408e+16
6.655679e+16
7.511983e+16
8.255551e+16
8.911079e+16
9.389479e+16
9.732722e+16
9.929082e+16
9.929047e+16
9.732658e+16
9.3895e+16
8.911395e+16
8.25628e+16
7.512954e+16
6.657145e+16
5.687755e+16
4.465685e+16
3.585477e+16
2.378228e+16
1.679311e+16
9.46362e+15
8.511317e+15
1.556282e+16
2.084132e+16
3.305815e+16
4.307436e+16
5.588722e+16
6.655859e+16
7.676616e+16
8.628304e+16
9.388034e+16
1.001566e+17
1.053631e+17
1.090235e+17
1.110043e+17
1.110047e+17
1.090252e+17
1.053672e+17
1.001646e+17
9.389047e+16
8.629567e+16
7.678348e+16
6.65748e+16
5.590149e+16
4.308505e+16
3.306142e+16
2.085158e+16
1.556969e+16
8.513414e+15
1.065926e+16
1.714163e+16
2.554062e+16
3.875906e+16
5.260086e+16
6.403829e+16
7.511603e+16
8.627782e+16
9.565511e+16
1.038199e+17
1.103935e+17
1.154917e+17
1.189144e+17
1.206643e+17
1.206653e+17
1.189182e+17
1.155e+17
1.104066e+17
1.038364e+17
9.567524e+16
8.630082e+16
7.513827e+16
6.405965e+16
5.261848e+16
3.876339e+16
2.55554e+16
1.715257e+16
1.066405e+16
1.181236e+16
1.94596e+16
3.237648e+16
4.353128e+16
5.868311e+16
7.067524e+16
8.254497e+16
9.387153e+16
1.038146e+17
1.122461e+17
1.187597e+17
1.235531e+17
1.26706e+17
1.282804e+17
1.282823e+17
1.267123e+17
1.235656e+17
1.187786e+17
1.122706e+17
1.038442e+17
9.390483e+16
8.25791e+16
7.070622e+16
5.870967e+16
4.354522e+16
3.240865e+16
1.94773e+16
1.182075e+16
8.51167e+15
1.611717e+16
2.185575e+16
3.516477e+16
5.093975e+16
6.397524e+16
7.644456e+16
8.910152e+16
1.001475e+17
1.10385e+17
1.187547e+17
1.250865e+17
1.296414e+17
1.326e+17
1.340622e+17
1.340649e+17
1.326086e+17
1.29657e+17
1.251094e+17
1.187843e+17
1.104199e+17
1.001858e+17
8.914045e+16
7.647914e+16
6.400634e+16
5.096426e+16
3.520042e+16
2.187818e+16
1.612546e+16
8.516776e+15
1.000265e+16
1.667857e+16
2.289343e+16
3.66555e+16
5.432935e+16
6.792372e+16
8.116938e+16
9.388237e+16
1.053501e+17
1.154787e+17
1.23543e+17
1.296362e+17
1.340066e+17
1.368378e+17
1.382351e+17
1.38238e+17
1.368469e+17
1.340227e+17
1.296599e+17
1.235739e+17
1.155149e+17
1.053887e+17
9.392147e+16
8.1211e+16
6.795798e+16
5.435823e+16
3.668646e+16
2.291237e+16
1.669308e+16
1.001292e+16
1.032599e+16
1.703514e+16
2.352294e+16
3.762733e+16
5.631727e+16
7.068103e+16
8.482071e+16
9.731374e+16
1.090079e+17
1.188976e+17
1.266915e+17
1.325903e+17
1.368334e+17
1.395835e+17
1.409399e+17
1.409418e+17
1.395909e+17
1.368474e+17
1.326122e+17
1.267214e+17
1.189336e+17
1.09047e+17
9.735434e+16
8.4862e+16
7.071477e+16
5.634744e+16
3.765414e+16
2.354285e+16
1.705031e+16
1.033456e+16
1.044762e+16
1.720085e+16
2.38166e+16
3.812825e+16
5.729521e+16
7.203182e+16
8.62716e+16
9.92758e+16
1.109863e+17
1.206448e+17
1.282626e+17
1.340485e+17
1.38227e+17
1.409372e+17
1.422739e+17
1.422745e+17
1.409434e+17
1.382405e+17
1.340702e+17
1.282923e+17
1.206809e+17
1.110262e+17
9.93172e+16
8.631276e+16
7.206803e+16
5.732543e+16
3.815191e+16
2.383526e+16
1.721404e+16
1.045577e+16
1.044842e+16
1.72018e+16
2.38173e+16
3.813016e+16
5.729498e+16
7.202985e+16
8.626976e+16
9.927443e+16
1.109856e+17
1.206444e+17
1.282618e+17
1.340473e+17
1.382257e+17
1.409366e+17
1.422748e+17
1.422757e+17
1.40944e+17
1.382407e+17
1.340701e+17
1.28292e+17
1.206807e+17
1.110264e+17
9.931675e+16
8.631043e+16
7.206609e+16
5.73242e+16
3.815036e+16
2.383452e+16
1.721428e+16
1.045713e+16
1.033019e+16
1.704047e+16
2.352667e+16
3.763347e+16
5.631718e+16
7.068034e+16
8.482216e+16
9.731198e+16
1.090063e+17
1.188962e+17
1.266893e+17
1.325874e+17
1.368303e+17
1.395817e+17
1.409401e+17
1.409424e+17
1.395912e+17
1.368475e+17
1.326119e+17
1.267208e+17
1.189334e+17
1.090476e+17
9.735437e+16
8.486082e+16
7.071535e+16
5.634432e+16
3.764692e+16
2.353997e+16
1.705037e+16
1.033723e+16
1.001177e+16
1.668768e+16
2.289991e+16
3.666753e+16
5.433073e+16
6.792599e+16
8.117525e+16
9.388447e+16
1.0535e+17
1.154775e+17
1.235406e+17
1.296329e+17
1.340032e+17
1.368352e+17
1.382339e+17
1.382369e+17
1.36846e+17
1.340215e+17
1.296585e+17
1.235728e+17
1.155148e+17
1.053899e+17
9.392403e+16
8.120955e+16
6.795758e+16
5.435453e+16
3.667132e+16
2.290771e+16
1.669429e+16
1.001639e+16
8.521556e+15
1.61242e+16
2.18701e+16
3.518711e+16
5.094284e+16
6.398082e+16
7.644809e+16
8.910671e+16
1.001507e+17
1.103859e+17
1.187536e+17
1.250843e+17
1.296393e+17
1.325983e+17
1.340606e+17
1.340637e+17
1.326092e+17
1.296578e+17
1.251099e+17
1.187852e+17
1.104211e+17
1.001866e+17
8.914294e+16
7.648361e+16
6.400856e+16
5.096447e+16
3.518163e+16
2.187356e+16
1.613157e+16
8.523681e+15
1.181945e+16
1.947338e+16
3.240438e+16
4.353159e+16
5.869159e+16
7.067749e+16
8.255156e+16
9.387751e+16
1.038181e+17
1.122476e+17
1.187607e+17
1.235542e+17
1.267067e+17
1.282782e+17
1.28281e+17
1.267164e+17
1.235708e+17
1.18784e+17
1.122764e+17
1.038495e+17
9.390875e+16
8.258463e+16
7.070936e+16
5.871204e+16
4.355288e+16
3.239242e+16
1.947224e+16
1.182226e+16
1.066071e+16
1.715014e+16
2.555762e+16
3.876708e+16
5.261281e+16
6.404015e+16
7.511895e+16
8.628336e+16
9.565907e+16
1.038238e+17
1.10399e+17
1.154973e+17
1.189191e+17
1.206637e+17
1.206663e+17
1.189269e+17
1.155105e+17
1.104178e+17
1.038483e+17
9.568621e+16
8.631008e+16
7.514716e+16
6.406377e+16
5.262392e+16
3.878339e+16
2.555319e+16
1.715136e+16
1.066694e+16
8.508907e+15
1.5574e+16
2.085546e+16
3.307022e+16
4.308467e+16
5.589002e+16
6.656053e+16
7.677046e+16
8.628697e+16
9.388703e+16
1.001677e+17
1.053739e+17
1.090336e+17
1.110097e+17
1.110123e+17
1.090394e+17
1.053825e+17
1.001803e+17
9.390622e+16
8.63094e+16
7.679249e+16
6.658177e+16
5.590488e+16
4.308435e+16
3.308068e+16
2.085001e+16
1.557013e+16
8.518276e+15
9.458947e+15
1.679596e+16
2.378495e+16
3.58487e+16
4.465294e+16
5.686925e+16
6.656317e+16
7.512509e+16
8.256282e+16
8.91237e+16
9.390798e+16
9.733931e+16
9.929876e+16
9.930119e+16
9.734341e+16
9.391228e+16
8.913058e+16
8.257583e+16
7.51404e+16
6.657831e+16
5.688369e+16
4.466345e+16
3.585773e+16
2.378661e+16
1.679367e+16
9.461994e+15
1.147501e+16
1.787062e+16
2.487449e+16
3.64627e+16
4.465084e+16
5.589444e+16
6.40494e+16
7.069104e+16
7.646177e+16
8.119364e+16
8.484575e+16
8.629599e+16
8.629678e+16
8.484678e+16
8.119587e+16
7.646732e+16
7.069617e+16
6.405558e+16
5.59014e+16
4.465807e+16
3.646663e+16
2.487295e+16
1.786711e+16
1.147322e+16
8.838974e+15
1.51619e+16
1.853301e+16
2.487285e+16
3.585826e+16
4.308706e+16
5.261184e+16
5.869713e+16
6.399088e+16
6.794142e+16
7.069862e+16
7.204929e+16
7.204927e+16
7.070076e+16
6.794259e+16
6.399249e+16
5.870109e+16
5.261994e+16
4.309116e+16
3.585906e+16
2.487173e+16
1.852979e+16
1.515757e+16
8.835912e+15
8.911541e+15
1.516268e+16
1.78727e+16
2.378077e+16
3.306093e+16
3.875456e+16
4.353351e+16
5.094533e+16
5.43344e+16
5.632233e+16
5.729776e+16
5.729698e+16
5.632763e+16
5.4343e+16
5.095278e+16
4.353591e+16
3.876578e+16
3.307182e+16
2.37833e+16
1.786938e+16
1.515877e+16
8.909331e+15
8.838799e+15
1.147823e+16
1.679067e+16
2.084729e+16
2.554231e+16
3.238707e+16
3.516685e+16
3.66473e+16
3.761795e+16
3.813536e+16
3.813026e+16
3.762953e+16
3.66649e+16
3.518413e+16
3.240151e+16
2.555034e+16
2.084792e+16
1.679081e+16
1.147283e+16
8.836713e+15
9.458022e+15
1.556393e+16
1.714225e+16
1.946246e+16
2.185655e+16
2.288593e+16
2.351447e+16
2.381188e+16
2.38056e+16
2.351786e+16
2.288977e+16
2.185955e+16
1.946193e+16
1.713808e+16
1.5566e+16
9.454554e+15
8.506094e+15
1.06579e+16
1.181178e+16
1.611515e+16
1.667476e+16
1.702859e+16
1.720267e+16
1.720025e+16
1.702752e+16
1.667199e+16
1.611459e+16
1.180824e+16
1.06518e+16
8.507653e+15
8.513266e+15
1.000123e+16
1.031973e+16
1.044354e+16
1.04423e+16
1.031757e+16
9.996773e+15
8.504076e+15
7.582458e+15
8.857847e+15
9.111305e+15
9.109013e+15
8.849583e+15
7.578175e+15
7.22843e+15
9.456366e+15
1.076922e+16
1.254536e+16
1.693696e+16
1.774189e+16
1.803724e+16
1.80307e+16
1.772508e+16
1.691672e+16
1.254497e+16
1.077228e+16
9.457107e+15
7.233462e+15
7.285871e+15
1.001176e+16
1.559424e+16
1.877339e+16
2.182939e+16
2.757773e+16
3.019224e+16
3.117433e+16
3.164383e+16
3.163419e+16
3.115041e+16
3.017217e+16
2.757649e+16
2.182621e+16
1.876526e+16
1.559479e+16
1.001833e+16
7.297177e+15
8.249006e+15
1.469906e+16
1.963836e+16
2.799196e+16
3.216896e+16
3.630024e+16
4.014772e+16
4.646311e+16
4.884675e+16
4.978684e+16
4.977837e+16
4.88249e+16
4.643816e+16
4.012874e+16
3.627957e+16
3.215445e+16
2.797111e+16
1.964559e+16
1.470411e+16
8.26195e+15
8.951227e+15
1.684511e+16
2.322769e+16
3.2681e+16
3.943307e+16
4.847339e+16
5.434218e+16
5.880994e+16
6.254024e+16
6.481463e+16
6.585895e+16
6.585178e+16
6.479542e+16
6.251553e+16
5.878817e+16
5.432828e+16
4.846792e+16
3.943153e+16
3.26716e+16
2.323604e+16
1.684916e+16
8.9596e+15
9.36715e+15
1.87712e+16
2.908807e+16
3.626546e+16
4.350613e+16
5.544093e+16
6.398353e+16
7.092631e+16
7.570426e+16
7.927835e+16
8.15819e+16
8.269545e+16
8.268951e+16
8.156589e+16
7.925705e+16
7.568339e+16
7.090988e+16
6.397557e+16
5.544628e+16
4.35143e+16
3.626234e+16
2.908548e+16
1.877093e+16
9.369837e+15
8.952418e+15
1.877269e+16
3.064165e+16
3.910682e+16
5.101246e+16
6.098364e+16
7.117336e+16
7.951902e+16
8.6449e+16
9.224064e+16
9.647833e+16
9.917923e+16
1.004904e+17
1.004859e+17
9.916778e+16
9.646476e+16
9.223037e+16
8.644528e+16
7.952047e+16
7.11796e+16
6.098715e+16
5.101452e+16
3.910502e+16
3.062492e+16
1.877089e+16
8.954658e+15
8.251011e+15
1.684319e+16
2.909673e+16
3.910529e+16
5.246627e+16
6.428595e+16
7.549723e+16
8.52828e+16
9.434955e+16
1.020246e+17
1.083281e+17
1.129985e+17
1.160464e+17
1.175336e+17
1.175305e+17
1.160391e+17
1.129901e+17
1.083226e+17
1.020252e+17
9.43545e+16
8.529093e+16
7.55048e+16
6.429198e+16
5.246772e+16
3.910539e+16
2.909222e+16
1.684672e+16
8.253892e+15
7.287005e+15
1.4696e+16
2.323595e+16
3.626466e+16
5.10145e+16
6.428888e+16
7.697167e+16
8.812271e+16
9.884165e+16
1.085567e+17
1.167543e+17
1.234392e+17
1.285078e+17
1.318789e+17
1.334774e+17
1.334752e+17
1.318736e+17
1.28503e+17
1.234397e+17
1.167619e+17
1.08569e+17
9.885642e+16
8.813568e+16
7.697925e+16
6.429391e+16
5.101699e+16
3.626723e+16
2.324266e+16
1.470167e+16
7.289431e+15
1.001189e+16
1.964411e+16
3.266831e+16
4.352122e+16
6.098825e+16
7.550311e+16
8.812604e+16
1.002887e+17
1.11666e+17
1.218109e+17
1.304512e+17
1.374903e+17
1.428175e+17
1.464168e+17
1.482541e+17
1.482531e+17
1.464149e+17
1.42818e+17
1.37497e+17
1.30465e+17
1.218304e+17
1.116896e+17
1.003112e+17
8.814422e+16
7.551482e+16
6.09956e+16
4.352488e+16
3.267996e+16
1.965231e+16
1.00198e+16
7.23083e+15
1.558646e+16
2.797455e+16
3.943139e+16
5.545491e+16
7.118005e+16
8.529141e+16
9.884832e+16
1.116682e+17
1.234653e+17
1.339723e+17
1.429107e+17
1.502211e+17
1.559119e+17
1.598225e+17
1.618375e+17
1.618377e+17
1.598243e+17
1.559181e+17
1.502345e+17
1.429311e+17
1.33999e+17
1.234965e+17
1.116989e+17
9.887486e+16
8.53112e+16
7.119177e+16
5.546216e+16
3.942734e+16
2.799034e+16
1.55964e+16
7.242234e+15
9.446494e+15
1.876055e+16
3.215124e+16
4.848054e+16
6.398876e+16
7.952497e+16
9.435528e+16
1.085611e+17
1.218097e+17
1.339686e+17
1.44723e+17
1.540592e+17
1.617433e+17
1.676726e+17
1.716972e+17
1.737413e+17
1.737428e+17
1.717029e+17
1.676849e+17
1.617643e+17
1.540884e+17
1.447592e+17
1.340094e+17
1.218506e+17
1.085987e+17
9.43856e+16
7.954419e+16
6.400345e+16
4.847897e+16
3.215685e+16
1.87709e+16
9.458576e+15
1.076514e+16
2.182256e+16
3.629746e+16
5.435466e+16
7.092507e+16
8.645446e+16
1.020274e+17
1.167533e+17
1.304435e+17
1.42901e+17
1.540526e+17
1.637472e+17
1.716443e+17
1.7763e+17
1.816431e+17
1.836602e+17
1.83663e+17
1.816527e+17
1.776485e+17
1.716734e+17
1.637866e+17
1.541004e+17
1.429542e+17
1.304978e+17
1.168041e+17
1.020704e+17
8.648493e+16
7.094994e+16
5.435541e+16
3.629295e+16
2.182298e+16
1.076753e+16
1.254417e+16
2.759373e+16
4.016779e+16
5.882587e+16
7.570576e+16
9.224334e+16
1.083272e+17
1.234324e+17
1.374781e+17
1.502068e+17
1.617306e+17
1.71637e+17
1.796058e+17
1.855679e+17
1.895293e+17
1.915083e+17
1.915122e+17
1.895421e+17
1.855912e+17
1.796412e+17
1.716841e+17
1.61787e+17
1.502692e+17
1.375424e+17
1.234932e+17
1.083802e+17
9.228458e+16
7.573656e+16
5.883047e+16
4.015346e+16
2.756735e+16
1.253862e+16
7.582914e+15
1.692865e+16
3.021042e+16
4.648755e+16
6.255832e+16
7.928499e+16
9.648078e+16
1.129957e+17
1.284964e+17
1.428011e+17
1.55893e+17
1.676542e+17
1.776161e+17
1.855608e+17
1.91467e+17
1.953743e+17
1.973213e+17
1.973256e+17
1.953881e+17
1.91492e+17
1.855985e+17
1.776662e+17
1.677141e+17
1.55959e+17
1.428698e+17
1.285637e+17
1.130543e+17
9.652773e+16
7.93171e+16
6.256459e+16
4.647146e+16
3.018437e+16
1.692195e+16
7.578534e+15
8.848022e+15
1.773682e+16
3.11876e+16
4.886986e+16
6.483453e+16
8.159504e+16
9.918555e+16
1.160452e+17
1.318681e+17
1.463991e+17
1.598009e+17
1.716748e+17
1.816239e+17
1.895161e+17
1.95368e+17
1.992325e+17
2.011557e+17
2.011595e+17
1.992451e+17
1.953913e+17
1.895522e+17
1.816728e+17
1.717342e+17
1.598671e+17
1.464687e+17
1.319364e+17
1.161051e+17
9.923387e+16
8.162741e+16
6.484599e+16
4.886181e+16
3.117108e+16
1.773156e+16
8.85252e+15
9.106767e+15
1.803772e+16
3.165563e+16
4.981325e+16
6.588584e+16
8.271714e+16
1.005032e+17
1.175357e+17
1.334687e+17
1.482369e+17
1.618149e+17
1.737166e+17
1.836373e+17
1.914902e+17
1.973097e+17
2.011509e+17
2.030613e+17
2.030646e+17
2.011624e+17
1.973319e+17
1.915251e+17
1.836849e+17
1.737748e+17
1.618803e+17
1.483057e+17
1.335361e+17
1.175954e+17
1.005507e+17
8.274925e+16
6.590169e+16
4.981602e+16
3.165601e+16
1.804035e+16
9.11285e+15
9.106896e+15
1.803988e+16
3.166269e+16
4.981635e+16
6.588897e+16
8.272023e+16
1.005057e+17
1.175374e+17
1.334699e+17
1.482375e+17
1.618153e+17
1.737171e+17
1.836375e+17
1.914899e+17
1.973089e+17
2.011501e+17
2.03061e+17
2.030645e+17
2.011623e+17
1.973317e+17
1.915248e+17
1.836845e+17
1.737745e+17
1.6188e+17
1.483053e+17
1.335357e+17
1.175957e+17
1.005517e+17
8.275156e+16
6.590745e+16
4.982418e+16
3.166512e+16
1.804656e+16
9.115587e+15
8.854242e+15
1.774152e+16
3.11908e+16
4.887281e+16
6.484159e+16
8.160352e+16
9.919201e+16
1.160507e+17
1.318735e+17
1.464025e+17
1.598031e+17
1.716765e+17
1.816248e+17
1.895158e+17
1.953665e+17
1.992306e+17
2.011541e+17
2.011582e+17
1.992441e+17
1.953904e+17
1.895515e+17
1.816721e+17
1.717337e+17
1.598669e+17
1.464685e+17
1.319367e+17
1.161072e+17
9.923629e+16
8.163313e+16
6.486273e+16
4.888556e+16
3.119744e+16
1.774955e+16
8.861713e+15
7.591385e+15
1.69241e+16
3.020175e+16
4.648671e+16
6.256571e+16
7.929814e+16
9.64905e+16
1.130047e+17
1.285062e+17
1.42809e+17
1.558986e+17
1.676583e+17
1.776186e+17
1.855616e+17
1.914664e+17
1.953727e+17
1.973193e+17
1.973235e+17
1.953865e+17
1.914908e+17
1.855979e+17
1.776663e+17
1.677149e+17
1.559606e+17
1.42872e+17
1.285659e+17
1.130582e+17
9.653195e+16
7.932438e+16
6.258935e+16
4.650487e+16
3.021695e+16
1.693609e+16
7.597549e+15
1.25461e+16
2.757473e+16
4.016786e+16
5.883433e+16
7.572447e+16
9.225603e+16
1.083399e+17
1.234441e+17
1.374894e+17
1.502164e+17
1.617382e+17
1.716428e+17
1.796099e+17
1.855708e+17
1.89531e+17
1.91509e+17
1.915132e+17
1.895447e+17
1.855951e+17
1.79646e+17
1.7169e+17
1.617934e+17
1.502757e+17
1.375498e+17
1.235016e+17
1.083892e+17
9.22944e+16
7.57461e+16
5.885917e+16
4.018678e+16
2.759912e+16
1.255264e+16
1.076599e+16
2.182604e+16
3.630328e+16
5.435993e+16
7.094626e+16
8.646854e+16
1.020432e+17
1.167659e+17
1.304562e+17
1.429132e+17
1.540633e+17
1.637567e+17
1.716532e+17
1.776384e+17
1.816505e+17
1.836659e+17
1.836699e+17
1.816634e+17
1.776614e+17
1.716877e+17
1.638017e+17
1.541155e+17
1.429688e+17
1.305129e+17
1.168184e+17
1.02086e+17
8.650399e+16
7.096344e+16
5.438536e+16
3.631838e+16
2.183437e+16
1.076878e+16
9.456238e+15
1.877338e+16
3.21691e+16
4.848473e+16
6.400484e+16
7.954262e+16
9.437422e+16
1.085746e+17
1.218219e+17
1.339814e+17
1.447353e+17
1.540723e+17
1.617579e+17
1.676878e+17
1.71712e+17
1.737542e+17
1.737577e+17
1.717231e+17
1.677078e+17
1.617884e+17
1.541128e+17
1.447829e+17
1.340315e+17
1.218721e+17
1.086188e+17
9.440849e+16
7.957341e+16
6.402352e+16
4.850986e+16
3.217199e+16
1.877332e+16
9.453577e+15
7.238298e+15
1.559642e+16
2.800394e+16
3.943416e+16
5.545967e+16
7.119534e+16
8.530919e+16
9.886282e+16
1.116817e+17
1.234799e+17
1.339877e+17
1.429285e+17
1.502423e+17
1.559347e+17
1.598455e+17
1.618594e+17
1.618623e+17
1.598541e+17
1.559499e+17
1.502665e+17
1.429622e+17
1.340278e+17
1.235223e+17
1.117232e+17
9.889817e+16
8.533674e+16
7.122417e+16
5.54822e+16
3.945797e+16
2.798767e+16
1.559793e+16
7.236778e+15
1.001595e+16
1.964763e+16
3.268807e+16
4.351385e+16
6.100242e+16
7.551854e+16
8.814273e+16
1.003066e+17
1.116861e+17
1.218322e+17
1.304746e+17
1.375171e+17
1.428459e+17
1.464459e+17
1.48283e+17
1.482852e+17
1.464519e+17
1.428563e+17
1.375343e+17
1.304997e+17
1.218624e+17
1.117183e+17
1.003386e+17
8.817156e+16
7.554449e+16
6.102519e+16
4.353816e+16
3.269277e+16
1.964969e+16
1.001625e+16
7.285835e+15
1.470403e+16
2.324376e+16
3.629075e+16
5.103852e+16
6.430888e+16
7.699302e+16
8.814726e+16
9.886989e+16
1.085859e+17
1.167841e+17
1.234691e+17
1.285388e+17
1.319122e+17
1.335119e+17
1.33513e+17
1.319158e+17
1.285456e+17
1.234809e+17
1.168006e+17
1.086062e+17
9.889145e+16
8.816852e+16
7.701139e+16
6.432149e+16
5.104357e+16
3.628895e+16
2.324198e+16
1.470423e+16
7.292132e+15
8.250124e+15
1.685645e+16
2.911816e+16
3.912046e+16
5.248187e+16
6.430887e+16
7.552638e+16
8.531547e+16
9.437893e+16
1.020544e+17
1.08358e+17
1.130291e+17
1.16079e+17
1.175672e+17
1.175676e+17
1.160822e+17
1.130347e+17
1.083667e+17
1.020675e+17
9.439585e+16
8.533004e+16
7.553857e+16
6.432081e+16
5.249065e+16
3.912653e+16
2.910591e+16
1.685106e+16
8.253557e+15
8.952519e+15
1.877808e+16
3.066675e+16
3.911439e+16
5.103727e+16
6.100792e+16
7.11981e+16
7.953963e+16
8.64712e+16
9.226212e+16
9.649971e+16
9.920401e+16
1.005185e+17
1.00518e+17
9.920817e+16
9.650835e+16
9.22735e+16
8.648496e+16
7.955595e+16
7.120828e+16
6.101258e+16
5.10438e+16
3.911942e+16
3.066426e+16
1.877583e+16
8.95148e+15
9.365716e+15
1.87768e+16
2.912115e+16
3.629131e+16
4.353205e+16
5.546711e+16
6.400085e+16
7.093807e+16
7.571666e+16
7.92923e+16
8.160226e+16
8.272652e+16
8.272326e+16
8.160571e+16
7.930068e+16
7.572827e+16
7.095349e+16
6.401233e+16
5.546818e+16
4.352154e+16
3.62926e+16
2.912209e+16
1.877691e+16
9.364624e+15
8.948633e+15
1.684895e+16
2.3249e+16
3.268967e+16
3.942939e+16
4.848006e+16
5.435488e+16
5.883008e+16
6.256202e+16
6.483897e+16
6.588455e+16
6.587885e+16
6.483407e+16
6.255777e+16
5.882788e+16
5.436098e+16