/*--------------------------------*- C++ -*----------------------------------*\
  =========                 |
  \\      /  F ield         | OpenFOAM: The Open Source CFD Toolbox
   \\    /   O peration     | Website:  https://openfoam.org
    \\  /    A nd           | Version:  6
     \\/     M anipulation  |
\*---------------------------------------------------------------------------*/
FoamFile
{
    version     2.0;
    format      ascii;
    class       volScalarField;
    location    "49.8/region0/neutronTransport";
    object      discFlux3;
}
// * * * * * * * * * * * * * * * * * * * * * * * * * * * * * * * * * * * * * //

dimensions      [0 -2 -1 0 0 0 0];

internalField   nonuniform List<scalar> 
203709
(
5.607504e+13
6.453762e+13
6.453218e+13
5.61038e+13
5.892859e+13
6.904905e+13
9.463191e+13
9.257623e+13
9.257043e+13
9.46524e+13
6.90737e+13
5.896514e+13
5.741776e+13
6.935183e+13
9.559574e+13
9.395506e+13
9.691401e+13
9.760903e+13
9.761551e+13
9.69372e+13
9.398978e+13
9.564652e+13
6.939926e+13
5.746256e+13
5.74158e+13
9.292531e+13
9.361524e+13
9.739923e+13
9.931035e+13
1.011e+14
1.018828e+14
1.018975e+14
1.011223e+14
9.934374e+13
9.744748e+13
9.367053e+13
9.299176e+13
5.745855e+13
6.933032e+13
9.360094e+13
9.795428e+13
1.010204e+14
1.033937e+14
1.0513e+14
1.059958e+14
1.060073e+14
1.051452e+14
1.034204e+14
1.010586e+14
9.799501e+13
9.364424e+13
6.936227e+13
5.888307e+13
9.554285e+13
9.737262e+13
1.010058e+14
1.042354e+14
1.067922e+14
1.085706e+14
1.094484e+14
1.094532e+14
1.085832e+14
1.068162e+14
1.042588e+14
1.010331e+14
9.740696e+13
9.55856e+13
5.890325e+13
6.896953e+13
9.387608e+13
9.925776e+13
1.033566e+14
1.067774e+14
1.094313e+14
1.111869e+14
1.120001e+14
1.120025e+14
1.111992e+14
1.094432e+14
1.067921e+14
1.033889e+14
9.930196e+13
9.392548e+13
6.901425e+13
5.600603e+13
9.45186e+13
9.68208e+13
1.010317e+14
1.05087e+14
1.08545e+14
1.111789e+14
1.127679e+14
1.135594e+14
1.135638e+14
1.127821e+14
1.111927e+14
1.085728e+14
1.051305e+14
1.010879e+14
9.688734e+13
9.460177e+13
5.603874e+13
6.441786e+13
9.242429e+13
9.747994e+13
1.017935e+14
1.059334e+14
1.094056e+14
1.11981e+14
1.13549e+14
1.144324e+14
1.143996e+14
1.135514e+14
1.119957e+14
1.094374e+14
1.059764e+14
1.018488e+14
9.75561e+13
9.250209e+13
6.447046e+13
6.442197e+13
9.243946e+13
9.74769e+13
1.017756e+14
1.059191e+14
1.093996e+14
1.119728e+14
1.13542e+14
1.144508e+14
1.144114e+14
1.135357e+14
1.119742e+14
1.094123e+14
1.059576e+14
1.018321e+14
9.754077e+13
9.250305e+13
6.447679e+13
5.597242e+13
9.450873e+13
9.67961e+13
1.010025e+14
1.050606e+14
1.085261e+14
1.111659e+14
1.1276e+14
1.135504e+14
1.135326e+14
1.127398e+14
1.111508e+14
1.085234e+14
1.050805e+14
1.010407e+14
9.684373e+13
9.455096e+13
5.602303e+13
6.893687e+13
9.384169e+13
9.922887e+13
1.033384e+14
1.067602e+14
1.09421e+14
1.111783e+14
1.119954e+14
1.119737e+14
1.111593e+14
1.093939e+14
1.067412e+14
1.033326e+14
9.924066e+13
9.387386e+13
6.897953e+13
5.885543e+13
9.551026e+13
9.733959e+13
1.009832e+14
1.042157e+14
1.06782e+14
1.085518e+14
1.09435e+14
1.094187e+14
1.085383e+14
1.067542e+14
1.041916e+14
1.009676e+14
9.733999e+13
9.552648e+13
5.887672e+13
6.930732e+13
9.357397e+13
9.793573e+13
1.010073e+14
1.033797e+14
1.051127e+14
1.060254e+14
1.060128e+14
1.050874e+14
1.033466e+14
1.009719e+14
9.790775e+13
9.356818e+13
6.931255e+13
5.740891e+13
9.292025e+13
9.359956e+13
9.738379e+13
9.928042e+13
1.010593e+14
1.018771e+14
1.018677e+14
1.010334e+14
9.924432e+13
9.733785e+13
9.355285e+13
9.288382e+13
5.738255e+13
5.741868e+13
6.933609e+13
9.555799e+13
9.388765e+13
9.683983e+13
9.754111e+13
9.754381e+13
9.681841e+13
9.386286e+13
9.551172e+13
6.928686e+13
5.737847e+13
5.888232e+13
6.897084e+13
9.452777e+13
9.249838e+13
9.251104e+13
9.451019e+13
6.89506e+13
5.88556e+13
5.599223e+13
6.441817e+13
6.44226e+13
5.598754e+13
4.658015e+13
5.547595e+13
5.796938e+13
5.966334e+13
6.073149e+13
6.073461e+13
5.967278e+13
5.79829e+13
5.54937e+13
4.660292e+13
4.772579e+13
5.837917e+13
8.247667e+13
8.448315e+13
8.776961e+13
9.19962e+13
9.538981e+13
9.53957e+13
9.202035e+13
8.77833e+13
8.447718e+13
8.246198e+13
5.836077e+13
4.771639e+13
4.87225e+13
8.081057e+13
8.459763e+13
9.179232e+13
9.934958e+13
1.058258e+14
1.169666e+14
1.253875e+14
1.253933e+14
1.169895e+14
1.058251e+14
9.933852e+13
9.179687e+13
8.460418e+13
8.083895e+13
4.87401e+13
4.919155e+13
8.22063e+13
8.944146e+13
9.878406e+13
1.088896e+14
1.271891e+14
1.514047e+14
1.885012e+14
1.984615e+14
1.984702e+14
1.885027e+14
1.514229e+14
1.272243e+14
1.089331e+14
9.882562e+13
8.948242e+13
8.22365e+13
4.922302e+13
4.869617e+13
8.217538e+13
9.039238e+13
1.013921e+14
1.242249e+14
1.537457e+14
1.993958e+14
2.252428e+14
2.446399e+14
2.748367e+14
2.748487e+14
2.446891e+14
2.253055e+14
1.994558e+14
1.538314e+14
1.242928e+14
1.01467e+14
9.044984e+13
8.222392e+13
4.873671e+13
4.768817e+13
8.077562e+13
8.939875e+13
1.013773e+14
1.347074e+14
1.923808e+14
2.249146e+14
2.519139e+14
2.9471e+14
3.136098e+14
3.248328e+14
3.248507e+14
3.136636e+14
2.947908e+14
2.520144e+14
2.250171e+14
1.924613e+14
1.347877e+14
1.014335e+14
8.945737e+13
8.083369e+13
4.773025e+13
5.829535e+13
8.451166e+13
9.870843e+13
1.241731e+14
1.923405e+14
2.388824e+14
2.896753e+14
3.172505e+14
3.387954e+14
3.519957e+14
3.587421e+14
3.587623e+14
3.520519e+14
3.388896e+14
3.173694e+14
2.897959e+14
2.389897e+14
1.92432e+14
1.242367e+14
9.87811e+13
8.458115e+13
5.834838e+13
4.653646e+13
8.236219e+13
9.167597e+13
1.087924e+14
1.536458e+14
2.248681e+14
2.89645e+14
3.272022e+14
3.509981e+14
3.673331e+14
3.776488e+14
3.82745e+14
3.827638e+14
3.777003e+14
3.674217e+14
3.511117e+14
3.273248e+14
2.897688e+14
2.249807e+14
1.537482e+14
1.088759e+14
9.173835e+13
8.241641e+13
4.655547e+13
5.541024e+13
8.438661e+13
9.921629e+13
1.270809e+14
1.993116e+14
2.518485e+14
3.171925e+14
3.509656e+14
3.72334e+14
3.865893e+14
3.95546e+14
3.999096e+14
3.999244e+14
3.955901e+14
3.866637e+14
3.72428e+14
3.51072e+14
3.173033e+14
2.519513e+14
1.994047e+14
1.271227e+14
9.9271e+13
8.442784e+13
5.543111e+13
5.788813e+13
8.767178e+13
1.056762e+14
1.512172e+14
2.251197e+14
2.945791e+14
3.38686e+14
3.672559e+14
3.865517e+14
3.996544e+14
4.079247e+14
4.119696e+14
4.119811e+14
4.079617e+14
3.997118e+14
3.866286e+14
3.673556e+14
3.387985e+14
2.946836e+14
2.251748e+14
1.513237e+14
1.057651e+14
8.771687e+13
5.79212e+13
5.956335e+13
9.188382e+13
1.168343e+14
1.88329e+14
2.444746e+14
3.134286e+14
3.518328e+14
3.775265e+14
3.954705e+14
4.078924e+14
4.15753e+14
4.19608e+14
4.196144e+14
4.157836e+14
4.079442e+14
3.955517e+14
3.776411e+14
3.519687e+14
3.135632e+14
2.445801e+14
1.884513e+14
1.169088e+14
9.194876e+13
5.962388e+13
6.060932e+13
9.522952e+13
1.251981e+14
1.982545e+14
2.745943e+14
3.245862e+14
3.58524e+14
3.825749e+14
3.997939e+14
4.119061e+14
4.195814e+14
4.233629e+14
4.233465e+14
4.19593e+14
4.11948e+14
3.998728e+14
3.826913e+14
3.586682e+14
3.247426e+14
2.747399e+14
1.983878e+14
1.253112e+14
9.533185e+13
6.069012e+13
6.059337e+13
9.519589e+13
1.25155e+14
1.982118e+14
2.745684e+14
3.245637e+14
3.584972e+14
3.825497e+14
3.997753e+14
4.118923e+14
4.195745e+14
4.233691e+14
4.233445e+14
4.195713e+14
4.119174e+14
3.998382e+14
3.826571e+14
3.58638e+14
3.247208e+14
2.747231e+14
1.983476e+14
1.252722e+14
9.530338e+13
6.067532e+13
5.952262e+13
9.182837e+13
1.167927e+14
1.8829e+14
2.443896e+14
3.13358e+14
3.517665e+14
3.774657e+14
3.954221e+14
4.078591e+14
4.157333e+14
4.195947e+14
4.195784e+14
4.157227e+14
4.078695e+14
3.954677e+14
3.775548e+14
3.518913e+14
3.135057e+14
2.445425e+14
1.884115e+14
1.168916e+14
9.192544e+13
5.959428e+13
5.78499e+13
8.76299e+13
1.05659e+14
1.511882e+14
2.250331e+14
2.944951e+14
3.386047e+14
3.67185e+14
3.864948e+14
3.996163e+14
4.078998e+14
4.119514e+14
4.119373e+14
4.078912e+14
3.996171e+14
3.865197e+14
3.672461e+14
3.387015e+14
2.946159e+14
2.251674e+14
1.512648e+14
1.057189e+14
8.771069e+13
5.790843e+13
5.538402e+13
8.436545e+13
9.920608e+13
1.270306e+14
1.992744e+14
2.517946e+14
3.171259e+14
3.509019e+14
3.722799e+14
3.865512e+14
3.955137e+14
3.99873e+14
3.998607e+14
3.955046e+14
3.865451e+14
3.722871e+14
3.509329e+14
3.171803e+14
2.51847e+14
1.993309e+14
1.271053e+14
9.925127e+13
8.442502e+13
5.542841e+13
4.651963e+13
8.236618e+13
9.167635e+13
1.087697e+14
1.536429e+14
2.248425e+14
2.896091e+14
3.271611e+14
3.509596e+14
3.672949e+14
3.776052e+14
3.826653e+14
3.826535e+14
3.775837e+14
3.672708e+14
3.509391e+14
3.271549e+14
2.896171e+14
2.248477e+14
1.536557e+14
1.088124e+14
9.170532e+13
8.240015e+13
4.65525e+13
5.831654e+13
8.451243e+13
9.869921e+13
1.241627e+14
1.923424e+14
2.388682e+14
2.896499e+14
3.172192e+14
3.387417e+14
3.519206e+14
3.586004e+14
3.585891e+14
3.518887e+14
3.386983e+14
3.171695e+14
2.896104e+14
2.388386e+14
1.923107e+14
1.241536e+14
9.872294e+13
8.452671e+13
5.830944e+13
4.770611e+13
8.076423e+13
8.939422e+13
1.013679e+14
1.347008e+14
1.923566e+14
2.248947e+14
2.51888e+14
2.946272e+14
3.134992e+14
3.246518e+14
3.246487e+14
3.134662e+14
2.945743e+14
2.518144e+14
2.248402e+14
1.923162e+14
1.34657e+14
1.013409e+14
8.939389e+13
8.076727e+13
4.767642e+13
4.87087e+13
8.219639e+13
9.039259e+13
1.013622e+14
1.241659e+14
1.536735e+14
1.993433e+14
2.251406e+14
2.444913e+14
2.746033e+14
2.746087e+14
2.44467e+14
2.250836e+14
1.992589e+14
1.536191e+14
1.241246e+14
1.013238e+14
9.035765e+13
8.217151e+13
4.868415e+13
4.919212e+13
8.218127e+13
8.939057e+13
9.871947e+13
1.088036e+14
1.270403e+14
1.512195e+14
1.883327e+14
1.982411e+14
1.982372e+14
1.882869e+14
1.511738e+14
1.270154e+14
1.087505e+14
9.8667e+13
8.934744e+13
8.214705e+13
4.917061e+13
4.867565e+13
8.075179e+13
8.450611e+13
9.166185e+13
9.918427e+13
1.056678e+14
1.168057e+14
1.251763e+14
1.251695e+14
1.167822e+14
1.056213e+14
9.916127e+13
9.1645e+13
8.447667e+13
8.071254e+13
4.865496e+13
4.768286e+13
5.829344e+13
8.234838e+13
8.436198e+13
8.764195e+13
9.184718e+13
9.522111e+13
9.521894e+13
9.183442e+13
8.761195e+13
8.43243e+13
8.233765e+13
5.828251e+13
4.7664e+13
4.650116e+13
5.536827e+13
5.784195e+13
5.951997e+13
6.058188e+13
6.057921e+13
5.952739e+13
5.784704e+13
5.536531e+13
4.648715e+13
3.919398e+13
4.663548e+13
4.814825e+13
4.869767e+13
4.868921e+13
4.812157e+13
4.657913e+13
3.915566e+13
3.917707e+13
4.970763e+13
5.526817e+13
7.74518e+13
8.009084e+13
8.179308e+13
8.256042e+13
8.255176e+13
8.176307e+13
8.003986e+13
7.743729e+13
5.527162e+13
4.972305e+13
3.922085e+13
4.355275e+13
7.465742e+13
8.22739e+13
9.44186e+13
1.067049e+14
1.118837e+14
1.150243e+14
1.164652e+14
1.164573e+14
1.15e+14
1.118442e+14
1.066642e+14
9.44072e+13
8.227404e+13
7.468274e+13
4.360686e+13
4.070257e+13
5.351685e+13
8.053259e+13
1.013889e+14
1.262146e+14
1.656449e+14
1.806566e+14
1.884318e+14
1.934552e+14
1.96023e+14
1.960094e+14
1.93417e+14
1.883752e+14
1.805916e+14
1.655918e+14
1.261952e+14
1.014151e+14
8.054109e+13
5.354696e+13
4.072969e+13
4.101416e+13
7.250908e+13
8.575031e+13
1.168445e+14
1.6909e+14
1.996748e+14
2.253212e+14
2.650074e+14
2.830558e+14
2.936011e+14
2.987587e+14
2.987473e+14
2.935747e+14
2.83028e+14
2.649968e+14
2.253596e+14
1.997269e+14
1.691274e+14
1.168476e+14
8.578626e+13
7.252771e+13
4.103491e+13
4.068655e+13
7.251507e+13
8.902637e+13
1.223417e+14
1.837844e+14
2.227992e+14
2.737721e+14
3.061878e+14
3.34413e+14
3.554885e+14
3.702995e+14
3.775309e+14
3.775237e+14
3.702913e+14
3.554685e+14
3.343927e+14
3.061907e+14
2.737827e+14
2.228196e+14
1.838178e+14
1.223832e+14
8.903752e+13
7.252897e+13
4.071141e+13
5.350704e+13
8.57338e+13
1.223335e+14
1.869563e+14
2.311116e+14
2.911698e+14
3.346319e+14
3.700267e+14
4.00941e+14
4.263596e+14
4.464471e+14
4.543547e+14
4.543528e+14
4.464405e+14
4.263591e+14
4.009644e+14
3.700789e+14
3.346901e+14
2.912353e+14
2.311642e+14
1.869715e+14
1.223583e+14
8.576768e+13
5.35368e+13
4.356044e+13
8.046938e+13
1.167663e+14
1.837611e+14
2.310639e+14
2.963423e+14
3.480309e+14
3.93768e+14
4.335552e+14
4.69132e+14
4.949015e+14
5.134404e+14
5.240227e+14
5.240336e+14
5.134735e+14
4.949572e+14
4.69214e+14
4.3366e+14
3.938797e+14
3.481613e+14
2.964574e+14
2.311634e+14
1.838319e+14
1.168259e+14
8.051861e+13
4.358052e+13
3.913498e+13
7.459151e+13
1.012992e+14
1.689718e+14
2.22751e+14
2.911251e+14
3.479986e+14
4.026208e+14
4.539708e+14
4.947001e+14
5.283828e+14
5.562837e+14
5.759016e+14
5.865255e+14
5.865478e+14
5.759678e+14
5.563924e+14
5.285279e+14
4.948595e+14
4.541351e+14
4.02796e+14
3.481524e+14
2.912561e+14
2.228511e+14
1.690244e+14
1.013791e+14
7.465673e+13
3.916493e+13
4.96586e+13
8.218306e+13
1.260607e+14
1.99567e+14
2.736415e+14
3.345224e+14
3.936546e+14
4.538924e+14
5.042537e+14
5.479314e+14
5.830609e+14
6.10299e+14
6.285891e+14
6.379531e+14
6.379821e+14
6.286765e+14
6.104431e+14
5.832477e+14
5.48138e+14
5.044676e+14
4.541038e+14
3.938444e+14
3.346954e+14
2.73785e+14
1.996293e+14
1.261686e+14
8.226847e+13
4.970695e+13
5.518648e+13
9.426918e+13
1.653805e+14
2.251949e+14
3.060016e+14
3.698442e+14
4.333606e+14
4.945586e+14
5.478612e+14
5.92901e+14
6.276491e+14
6.532104e+14
6.700264e+14
6.784346e+14
6.784647e+14
6.70116e+14
6.533581e+14
6.278416e+14
5.931194e+14
5.480924e+14
4.947923e+14
4.335866e+14
3.700496e+14
3.061845e+14
2.253097e+14
1.655916e+14
9.439119e+13
5.525515e+13
3.912514e+13
7.732867e+13
1.064942e+14
1.803707e+14
2.647865e+14
3.341724e+14
4.006921e+14
4.688994e+14
5.281949e+14
5.829302e+14
6.275835e+14
6.613237e+14
6.855824e+14
7.013386e+14
7.091317e+14
7.091572e+14
7.014161e+14
6.857101e+14
6.614927e+14
6.277812e+14
5.831446e+14
5.28417e+14
4.691225e+14
4.008985e+14
3.343725e+14
2.649632e+14
1.806059e+14
1.066462e+14
7.740996e+13
3.917346e+13
4.651075e+13
7.992213e+13
1.116825e+14
1.881661e+14
2.827896e+14
3.552039e+14
4.260332e+14
4.945997e+14
5.560178e+14
6.100889e+14
6.530689e+14
6.855121e+14
7.087684e+14
7.238313e+14
7.312681e+14
7.312886e+14
7.238951e+14
7.088746e+14
6.856605e+14
6.532565e+14
6.103061e+14
5.562501e+14
4.948386e+14
4.262934e+14
3.554366e+14
2.830059e+14
1.883871e+14
1.118211e+14
8.003407e+13
4.65891e+13
4.803931e+13
8.16297e+13
1.148228e+14
1.932098e+14
2.933164e+14
3.699915e+14
4.460912e+14
5.130746e+14
5.755531e+14
6.282906e+14
6.698021e+14
7.011957e+14
7.237661e+14
7.383914e+14
7.456067e+14
7.456232e+14
7.384491e+14
7.238702e+14
7.013533e+14
6.700129e+14
6.285408e+14
5.75823e+14
5.133528e+14
4.463758e+14
3.702437e+14
2.9356e+14
1.934219e+14
1.14974e+14
8.174713e+13
4.810911e+13
4.860893e+13
8.24229e+13
1.162797e+14
1.957991e+14
2.984652e+14
3.771819e+14
4.539577e+14
5.235928e+14
5.860952e+14
6.375679e+14
6.78129e+14
7.089188e+14
7.311437e+14
7.455514e+14
7.52655e+14
7.526597e+14
7.455896e+14
7.312304e+14
7.090672e+14
6.783411e+14
6.378291e+14
5.863828e+14
5.238858e+14
4.5425e+14
3.774572e+14
2.987177e+14
1.960006e+14
1.164286e+14
8.253154e+13
4.867611e+13
4.861338e+13
8.242856e+13
1.162838e+14
1.958084e+14
2.984567e+14
3.771549e+14
4.539249e+14
5.235595e+14
5.860611e+14
6.375293e+14
6.780924e+14
7.088921e+14
7.311269e+14
7.455405e+14
7.526446e+14
7.526386e+14
7.455533e+14
7.311837e+14
7.090154e+14
6.782891e+14
6.377817e+14
5.863429e+14
5.238479e+14
4.542069e+14
3.774222e+14
2.986936e+14
1.959832e+14
1.164205e+14
8.253005e+13
4.868107e+13
4.806232e+13
8.165959e+13
1.148436e+14
1.932405e+14
2.93297e+14
3.699447e+14
4.460383e+14
5.129931e+14
5.75462e+14
6.281954e+14
6.697128e+14
7.011247e+14
7.237175e+14
7.383583e+14
7.455726e+14
7.45564e+14
7.383575e+14
7.237532e+14
7.012218e+14
6.698798e+14
6.284198e+14
5.757218e+14
5.13264e+14
4.46293e+14
3.701845e+14
2.934971e+14
1.933574e+14
1.149449e+14
8.173599e+13
4.811409e+13
4.65602e+13
7.997363e+13
1.117186e+14
1.882293e+14
2.827754e+14
3.551649e+14
4.259883e+14
4.945154e+14
5.559095e+14
6.099731e+14
6.529618e+14
6.854266e+14
7.087087e+14
7.237879e+14
7.312223e+14
7.312151e+14
7.237854e+14
7.087308e+14
6.854953e+14
6.530895e+14
6.101556e+14
5.561288e+14
4.947482e+14
4.261993e+14
3.553631e+14
2.829296e+14
1.882701e+14
1.11774e+14
8.001926e+13
4.659147e+13
3.917793e+13
7.737357e+13
1.065741e+14
1.804931e+14
2.647901e+14
3.341628e+14
4.006448e+14
4.688383e+14
5.28111e+14
5.828353e+14
6.274926e+14
6.612483e+14
6.855233e+14
7.012818e+14
7.090552e+14
7.09047e+14
7.012722e+14
6.855267e+14
6.612824e+14
6.275709e+14
5.829583e+14
5.282672e+14
4.690203e+14
4.008363e+14
3.343168e+14
2.649098e+14
1.804658e+14
1.065939e+14
7.741219e+13
3.919064e+13
5.522875e+13
9.43474e+13
1.65537e+14
2.251962e+14
3.06028e+14
3.698165e+14
4.333363e+14
4.945195e+14
5.478074e+14
5.928415e+14
6.275907e+14
6.53146e+14
6.699382e+14
6.78292e+14
6.782793e+14
6.699102e+14
6.531171e+14
6.275779e+14
5.928601e+14
5.478608e+14
4.946044e+14
4.334616e+14
3.699559e+14
3.061176e+14
2.252951e+14
1.654621e+14
9.433529e+13
5.52394e+13
4.96717e+13
8.223532e+13
1.261559e+14
1.996138e+14
2.737001e+14
3.345133e+14
3.936353e+14
4.538745e+14
5.042153e+14
5.478784e+14
5.829943e+14
6.102e+14
6.284407e+14
6.37723e+14
6.377064e+14
6.283953e+14
6.101394e+14
5.829374e+14
5.478465e+14
5.042125e+14
4.538986e+14
3.937007e+14
3.345795e+14
2.737181e+14
1.996744e+14
1.261164e+14
8.222985e+13
4.969748e+13
3.912717e+13
7.465566e+13
1.013776e+14
1.690399e+14
2.228028e+14
2.911232e+14
3.479738e+14
4.025868e+14
4.539054e+14
4.946136e+14
5.282761e+14
5.561236e+14
5.756802e+14
5.86222e+14
5.862075e+14
5.756298e+14
5.560465e+14
5.281936e+14
4.945579e+14
4.538756e+14
4.025774e+14
3.479876e+14
2.91128e+14
2.227503e+14
1.69062e+14
1.013297e+14
7.462131e+13
3.916766e+13
4.354356e+13
8.051531e+13
1.168121e+14
1.837558e+14
2.310812e+14
2.963165e+14
3.479778e+14
3.936646e+14
4.334121e+14
4.689614e+14
4.946724e+14
5.131478e+14
5.236572e+14
5.236476e+14
5.131047e+14
4.945974e+14
4.688784e+14
4.333543e+14
3.936235e+14
3.479493e+14
2.963034e+14
2.310705e+14
1.837548e+14
1.167913e+14
8.048229e+13
4.354916e+13
5.350605e+13
8.575218e+13
1.223404e+14
1.869451e+14
2.310552e+14
2.911195e+14
3.345354e+14
3.698709e+14
4.007073e+14
4.260704e+14
4.461257e+14
4.539906e+14
4.539789e+14
4.460857e+14
4.260137e+14
4.00653e+14
3.698079e+14
3.344793e+14
2.910749e+14
2.310276e+14
1.869123e+14
1.222955e+14
8.571155e+13
5.348408e+13
4.070166e+13
7.252419e+13
8.90206e+13
1.223229e+14
1.837829e+14
2.227781e+14
2.736506e+14
3.060156e+14
3.341768e+14
3.552027e+14
3.699818e+14
3.771727e+14
3.771626e+14
3.699646e+14
3.551652e+14
3.341309e+14
3.059765e+14
2.736332e+14
2.227455e+14
1.837388e+14
1.222825e+14
8.897893e+13
7.248222e+13
4.067675e+13
4.100225e+13
7.252434e+13
8.575056e+13
1.167675e+14
1.689515e+14
1.995002e+14
2.251566e+14
2.647499e+14
2.827386e+14
2.932609e+14
2.983956e+14
2.983854e+14
2.932721e+14
2.827578e+14
2.647556e+14
2.251327e+14
1.995219e+14
1.689724e+14
1.167503e+14
8.571086e+13
7.248535e+13
4.09813e+13
4.069653e+13
5.351194e+13
8.046695e+13
1.013076e+14
1.260387e+14
1.653984e+14
1.803363e+14
1.880724e+14
1.931073e+14
1.957827e+14
1.957521e+14
1.931604e+14
1.881522e+14
1.804093e+14
1.654524e+14
1.260583e+14
1.012889e+14
8.045064e+13
5.347285e+13
4.067728e+13
4.352655e+13
7.458221e+13
8.216652e+13
9.425974e+13
1.064696e+14
1.116121e+14
1.147461e+14
1.162178e+14
1.161828e+14
1.147591e+14
1.116243e+14
1.06475e+14
9.424616e+13
8.213364e+13
7.457716e+13
4.35018e+13
3.910004e+13
4.96395e+13
5.516921e+13
7.729685e+13
7.987788e+13
8.156981e+13
8.240528e+13
8.239208e+13
8.156282e+13
7.986044e+13
7.728842e+13
5.514615e+13
4.960316e+13
3.910287e+13
3.912096e+13
4.648837e+13
4.799107e+13
4.857042e+13
4.856438e+13
4.798009e+13
4.646547e+13
3.907455e+13
3.489052e+13
4.123178e+13
4.245007e+13
4.244097e+13
4.119573e+13
3.487642e+13
3.318441e+13
4.408251e+13
5.04375e+13
5.952671e+13
8.266999e+13
8.671093e+13
8.817879e+13
8.814906e+13
8.663521e+13
8.257937e+13
5.953901e+13
5.046882e+13
4.410262e+13
3.322386e+13
3.345057e+13
4.675068e+13
7.57089e+13
9.193275e+13
1.080273e+14
1.411261e+14
1.552598e+14
1.604182e+14
1.628745e+14
1.628274e+14
1.603035e+14
1.551731e+14
1.411445e+14
1.080365e+14
9.192095e+13
7.57401e+13
4.680496e+13
3.352462e+13
3.795032e+13
7.069936e+13
9.659064e+13
1.433145e+14
1.655657e+14
1.875338e+14
2.082367e+14
2.420615e+14
2.547656e+14
2.59763e+14
2.597213e+14
2.546598e+14
2.419473e+14
2.08161e+14
1.874559e+14
1.655279e+14
1.432455e+14
9.666531e+13
7.075717e+13
3.803345e+13
4.131603e+13
8.190692e+13
1.150637e+14
1.679568e+14
2.04386e+14
2.527148e+14
2.841023e+14
3.07936e+14
3.278346e+14
3.399479e+14
3.455032e+14
3.454659e+14
3.39849e+14
3.277118e+14
3.078379e+14
2.840583e+14
2.527279e+14
2.044261e+14
1.679545e+14
1.151487e+14
8.196114e+13
4.137615e+13
4.334671e+13
9.223771e+13
1.490481e+14
1.87202e+14
2.259273e+14
2.898543e+14
3.355929e+14
3.731538e+14
3.987586e+14
4.178317e+14
4.301017e+14
4.360246e+14
4.3599e+14
4.300086e+14
4.177102e+14
3.986463e+14
3.730793e+14
3.355806e+14
2.899268e+14
2.260182e+14
1.872313e+14
1.490758e+14
9.226693e+13
4.337702e+13
4.131617e+13
9.223879e+13
1.57379e+14
2.026188e+14
2.660957e+14
3.194389e+14
3.743545e+14
4.190725e+14
4.562141e+14
4.87179e+14
5.098049e+14
5.242153e+14
5.312009e+14
5.311702e+14
5.241357e+14
5.097079e+14
4.871025e+14
4.561856e+14
4.190891e+14
3.744141e+14
3.194943e+14
2.661457e+14
2.026465e+14
1.573247e+14
9.225744e+13
4.134362e+13
3.795007e+13
8.187993e+13
1.490723e+14
2.025937e+14
2.738306e+14
3.370133e+14
3.973709e+14
4.49842e+14
4.983168e+14
5.393271e+14
5.730058e+14
5.979648e+14
6.142757e+14
6.222252e+14
6.222015e+14
6.142168e+14
5.978917e+14
5.729493e+14
5.393118e+14
4.983385e+14
4.498967e+14
3.974356e+14
3.370777e+14
2.738764e+14
2.026349e+14
1.490896e+14
8.192981e+13
3.798291e+13
3.344442e+13
7.065919e+13
1.150703e+14
1.871503e+14
2.660577e+14
3.369957e+14
4.051745e+14
4.649086e+14
5.221951e+14
5.74079e+14
6.178632e+14
6.536105e+14
6.807462e+14
6.988749e+14
7.074609e+14
7.074474e+14
6.98842e+14
6.80715e+14
6.536091e+14
6.179053e+14
5.741532e+14
5.222927e+14
4.650067e+14
4.052531e+14
3.370697e+14
2.661252e+14
1.872181e+14
1.151515e+14
7.072551e+13
3.34758e+13
4.672956e+13
9.657565e+13
1.678181e+14
2.259276e+14
3.193697e+14
3.973169e+14
4.648721e+14
5.298313e+14
5.90574e+14
6.447602e+14
6.909368e+14
7.28645e+14
7.571777e+14
7.764792e+14
7.863341e+14
7.863378e+14
7.764952e+14
7.572204e+14
7.28731e+14
6.910662e+14
6.4492e+14
5.90756e+14
5.300091e+14
4.650298e+14
3.97446e+14
3.194782e+14
2.260143e+14
1.679484e+14
9.666848e+13
4.679772e+13
3.317778e+13
7.562368e+13
1.431411e+14
2.042694e+14
2.897878e+14
3.742296e+14
4.4973e+14
5.220986e+14
5.905059e+14
6.535127e+14
7.096993e+14
7.574697e+14
7.965585e+14
8.269911e+14
8.479159e+14
8.587095e+14
8.587331e+14
8.479897e+14
8.271215e+14
7.967474e+14
7.577024e+14
7.099595e+14
6.537873e+14
5.907671e+14
5.223308e+14
4.499228e+14
3.743785e+14
2.899135e+14
2.043324e+14
1.433008e+14
7.572292e+13
3.325704e+13
4.400382e+13
9.180511e+13
1.6536e+14
2.525871e+14
3.354115e+14
4.188652e+14
4.981016e+14
5.738762e+14
6.44577e+14
7.09583e+14
7.67054e+14
8.169054e+14
8.579299e+14
8.895917e+14
9.110969e+14
9.22037e+14
9.220768e+14
9.112171e+14
8.897918e+14
8.582005e+14
8.172239e+14
7.673979e+14
7.099331e+14
6.449103e+14
5.741803e+14
4.983608e+14
4.190646e+14
3.355904e+14
2.526814e+14
1.654777e+14
9.191639e+13
4.409627e+13
5.037889e+13
1.07906e+14
1.873724e+14
2.839487e+14
3.728664e+14
4.559241e+14
5.390088e+14
6.175412e+14
6.906284e+14
7.572331e+14
8.167839e+14
8.685049e+14
9.106208e+14
9.425467e+14
9.639637e+14
9.747459e+14
9.747913e+14
9.640994e+14
9.427684e+14
9.109158e+14
8.688508e+14
8.171574e+14
7.576153e+14
6.91003e+14
6.178949e+14
5.393275e+14
4.561865e+14
3.731098e+14
2.840663e+14
1.874473e+14
1.079795e+14
5.042785e+13
5.946956e+13
1.410911e+14
2.081624e+14
3.077503e+14
3.984227e+14
4.868006e+14
5.725916e+14
6.531793e+14
7.282316e+14
7.962146e+14
8.576955e+14
9.105065e+14
9.529715e+14
9.847431e+14
1.005861e+15
1.016423e+15
1.016463e+15
1.005983e+15
9.849432e+14
9.532402e+14
9.108276e+14
8.580497e+14
7.965881e+14
7.286147e+14
6.535591e+14
5.729541e+14
4.871254e+14
3.987085e+14
3.07899e+14
2.081934e+14
1.410356e+14
5.948497e+13
3.486151e+13
8.254948e+13
1.55215e+14
2.419626e+14
3.276162e+14
4.174723e+14
5.093665e+14
5.974785e+14
6.802214e+14
7.566592e+14
8.265304e+14
8.892348e+14
9.423127e+14
9.846288e+14
1.016084e+15
1.036897e+15
1.047275e+15
1.047309e+15
1.037e+15
1.016255e+15
9.848696e+14
9.426189e+14
8.895942e+14
8.269266e+14
7.570793e+14
6.806534e+14
5.978933e+14
5.097485e+14
4.177872e+14
3.277894e+14
2.420003e+14
1.55168e+14
8.257541e+13
3.486709e+13
4.114401e+13
8.660128e+13
1.603356e+14
2.546354e+14
3.397099e+14
4.297423e+14
5.237549e+14
6.13748e+14
6.982899e+14
7.758702e+14
8.473388e+14
9.106114e+14
9.636037e+14
1.005631e+15
1.036791e+15
1.05737e+15
1.067615e+15
1.067644e+15
1.057463e+15
1.036958e+15
1.005882e+15
9.639369e+14
9.110099e+14
8.477795e+14
7.763339e+14
6.987612e+14
6.142043e+14
5.241793e+14
4.300865e+14
3.399286e+14
2.547253e+14
1.603403e+14
8.663252e+13
4.119659e+13
4.238681e+13
8.809404e+13
1.627773e+14
2.596396e+14
3.452895e+14
4.356945e+14
5.307507e+14
6.216778e+14
7.068348e+14
7.856542e+14
8.580302e+14
9.214311e+14
9.742652e+14
1.016086e+15
1.047077e+15
1.067527e+15
1.077697e+15
1.077716e+15
1.067596e+15
1.047217e+15
1.01632e+15
9.745959e+14
9.218379e+14
8.58483e+14
7.861255e+14
7.073111e+14
6.22145e+14
5.311831e+14
4.360489e+14
3.455395e+14
2.597904e+14
1.62871e+14
8.816255e+13
4.244548e+13
4.238747e+13
8.810549e+13
1.628176e+14
2.596604e+14
3.4531e+14
4.357108e+14
5.307541e+14
6.216634e+14
7.068083e+14
7.856201e+14
8.579895e+14
9.213821e+14
9.742165e+14
1.016051e+15
1.047055e+15
1.067512e+15
1.077677e+15
1.077682e+15
1.067545e+15
1.047151e+15
1.016247e+15
9.745216e+14
9.217688e+14
8.584218e+14
7.860699e+14
7.072597e+14
6.22103e+14
5.311525e+14
4.360342e+14
3.455511e+14
2.598206e+14
1.629112e+14
8.818817e+13
4.245448e+13
4.117606e+13
8.66288e+13
1.603608e+14
2.546633e+14
3.397589e+14
4.297889e+14
5.237663e+14
6.137175e+14
6.98231e+14
7.757841e+14
8.472318e+14
9.104912e+14
9.63487e+14
1.005538e+15
1.036726e+15
1.057323e+15
1.067561e+15
1.067559e+15
1.057337e+15
1.036794e+15
1.005696e+15
9.637457e+14
9.108316e+14
8.476237e+14
7.761976e+14
6.986411e+14
6.141073e+14
5.241017e+14
4.300461e+14
3.399625e+14
2.548082e+14
1.604504e+14
8.670343e+13
4.123001e+13
3.490462e+13
8.253415e+13
1.551819e+14
2.419769e+14
3.276743e+14
4.175495e+14
5.093946e+14
5.97457e+14
6.801633e+14
7.565614e+14
8.264004e+14
8.890899e+14
9.421751e+14
9.845172e+14
1.016003e+15
1.036832e+15
1.047199e+15
1.047196e+15
1.036839e+15
1.01605e+15
9.846352e+14
9.423788e+14
8.893712e+14
8.267371e+14
7.569258e+14
6.805237e+14
5.977893e+14
5.09662e+14
4.177319e+14
3.278391e+14
2.421082e+14
1.552903e+14
8.261304e+13
3.494459e+13
5.948596e+13
1.410044e+14
2.08185e+14
3.078202e+14
3.985387e+14
4.868575e+14
5.72607e+14
6.531459e+14
7.281592e+14
7.961103e+14
8.575764e+14
9.10393e+14
9.528758e+14
9.846615e+14
1.005774e+15
1.016303e+15
1.016297e+15
1.005765e+15
9.846754e+14
9.529413e+14
9.105288e+14
8.577827e+14
7.963742e+14
7.284609e+14
6.534517e+14
5.72875e+14
4.870646e+14
3.986542e+14
3.079549e+14
2.082905e+14
1.411432e+14
5.952482e+13
5.038773e+13
1.079394e+14
1.874267e+14
2.840045e+14
3.730035e+14
4.560054e+14
5.390687e+14
6.175478e+14
6.906015e+14
7.571794e+14
8.167126e+14
8.684277e+14
9.105396e+14
9.424484e+14
9.63825e+14
9.745427e+14
9.745263e+14
9.637863e+14
9.424115e+14
9.105354e+14
8.684795e+14
8.16828e+14
7.573528e+14
6.908201e+14
6.17772e+14
5.392547e+14
4.561576e+14
3.730644e+14
2.841202e+14
1.874984e+14
1.079804e+14
5.040417e+13
4.405627e+13
9.188005e+13
1.654748e+14
2.52635e+14
3.355221e+14
4.189741e+14
4.98196e+14
5.739129e+14
6.44576e+14
7.095561e+14
7.669969e+14
8.168212e+14
8.578127e+14
8.894225e+14
9.108559e+14
9.21709e+14
9.216843e+14
9.107903e+14
8.893399e+14
8.577461e+14
8.167982e+14
7.670284e+14
7.096388e+14
6.447006e+14
5.74039e+14
4.982926e+14
4.190693e+14
3.355699e+14
2.527359e+14
1.654747e+14
9.187647e+13
4.404288e+13
3.321625e+13
7.568246e+13
1.43313e+14
2.043014e+14
2.898307e+14
3.743219e+14
4.498176e+14
5.221401e+14
5.905048e+14
6.534706e+14
7.096041e+14
7.573209e+14
7.963508e+14
8.267069e+14
8.475468e+14
8.582551e+14
8.582288e+14
8.474728e+14
8.266054e+14
7.962548e+14
7.572595e+14
7.095847e+14
6.534892e+14
5.905518e+14
5.221869e+14
4.498508e+14
3.743875e+14
2.898894e+14
2.043924e+14
1.432059e+14
7.568322e+13
3.320834e+13
4.675167e+13
9.65991e+13
1.67933e+14
2.258928e+14
3.19441e+14
3.973748e+14
4.649022e+14
5.298184e+14
5.905049e+14
6.446148e+14
6.907109e+14
7.283387e+14
7.567843e+14
7.760044e+14
7.857906e+14
7.857683e+14
7.759388e+14
7.566904e+14
7.282455e+14
6.90643e+14
6.445751e+14
5.904892e+14
5.298216e+14
4.649124e+14
3.973952e+14
3.194737e+14
2.259668e+14
1.679231e+14
9.659464e+13
4.674868e+13
3.343815e+13
7.070067e+13
1.151083e+14
1.872835e+14
2.661659e+14
3.370563e+14
4.052013e+14
4.648944e+14
5.221217e+14
5.739144e+14
6.175987e+14
6.532417e+14
6.802887e+14
6.983535e+14
7.068951e+14
7.068764e+14
6.983016e+14
6.802156e+14
6.531674e+14
6.175344e+14
5.738667e+14
5.220843e+14
4.648662e+14
4.051739e+14
3.370207e+14
2.661163e+14
1.872265e+14
1.150751e+14
7.068908e+13
3.346655e+13
3.794395e+13
8.194193e+13
1.491712e+14
2.026438e+14
2.738536e+14
3.370325e+14
3.973622e+14
4.497713e+14
4.981306e+14
5.390394e+14
5.726168e+14
5.974919e+14
6.137498e+14
6.21667e+14
6.216525e+14
6.137181e+14
5.974458e+14
5.72566e+14
5.389976e+14
4.981028e+14
4.497299e+14
3.973144e+14
3.369983e+14
2.738224e+14
2.026219e+14
1.490695e+14
8.189669e+13
3.795489e+13
4.13111e+13
9.225074e+13
1.574791e+14
2.025993e+14
2.661239e+14
3.194087e+14
3.742482e+14
4.188526e+14
4.559072e+14
4.867755e+14
5.093248e+14
5.237002e+14
5.306749e+14
5.30661e+14
5.236901e+14
5.09319e+14
4.86768e+14
4.559001e+14
4.188527e+14
3.742138e+14
3.193525e+14
2.660912e+14
2.025762e+14
1.574287e+14
9.221936e+13
4.129861e+13
4.332939e+13
9.224021e+13
1.491723e+14
1.872528e+14
2.25937e+14
2.897892e+14
3.35398e+14
3.728434e+14
3.983746e+14
4.173926e+14
4.296528e+14
4.356089e+14
4.355843e+14
4.296501e+14
4.174029e+14
3.983903e+14
3.728703e+14
3.354006e+14
2.897371e+14
2.258341e+14
1.872217e+14
1.491472e+14
9.222346e+13
4.331658e+13
4.12885e+13
8.189359e+13
1.151111e+14
1.678961e+14
2.042122e+14
2.525224e+14
2.838752e+14
3.076862e+14
3.27538e+14
3.396262e+14
3.451654e+14
3.451304e+14
3.39587e+14
3.274942e+14