/*--------------------------------*- C++ -*----------------------------------*\
  =========                 |
  \\      /  F ield         | OpenFOAM: The Open Source CFD Toolbox
   \\    /   O peration     | Website:  https://openfoam.org
    \\  /    A nd           | Version:  6
     \\/     M anipulation  |
\*---------------------------------------------------------------------------*/
FoamFile
{
    version     2.0;
    format      ascii;
    class       volScalarField;
    location    "49.8/region0/neutronTransport";
    object      flux6;
}
// * * * * * * * * * * * * * * * * * * * * * * * * * * * * * * * * * * * * * //

dimensions      [0 -2 -1 0 0 0 0];

internalField   nonuniform List<scalar> 
203709
(
-5.324029e-36
-2.094269e-36
-3.120643e-36
-1.687922e-36
-5.324077e-36
-2.222723e-36
-8.133784e-37
-1.94614e-36
-2.190596e-36
-1.676465e-36
-3.547497e-36
-2.01371e-36
-5.324021e-36
-2.164069e-36
-1.069652e-36
-2.402556e-36
-3.012074e-36
-3.354335e-36
-3.427097e-36
-3.121433e-36
-2.740914e-36
-2.027425e-36
-3.54788e-36
-1.82012e-36
-5.324022e-36
5.839958e-37
-2.225751e-36
-3.045524e-36
-3.458917e-36
-3.612664e-36
-3.68599e-36
-3.70539e-36
-3.673526e-36
-3.591051e-36
-3.202329e-36
-2.68247e-36
-1.662574e-36
-1.726605e-36
-2.162966e-36
-2.225512e-36
-3.311863e-36
-3.590078e-36
-3.711973e-36
-3.766675e-36
-3.793749e-36
-3.800099e-36
-3.787909e-36
-3.757634e-36
-3.687097e-36
-3.536622e-36
-2.935829e-36
-1.106105e-36
-5.324076e-36
-1.070482e-36
-3.045203e-36
-3.590121e-36
-3.737149e-36
-3.797872e-36
-3.823183e-36
-3.836335e-36
-3.839607e-36
-3.834718e-36
-3.818457e-36
-3.784208e-36
-3.710617e-36
-3.527747e-36
-3.112452e-36
-1.986014e-36
-2.222433e-36
-2.40245e-36
-3.459088e-36
-3.712131e-36
-3.797761e-36
-3.831514e-36
-3.851566e-36
-3.862008e-36
-3.862359e-36
-3.854935e-36
-3.845039e-36
-3.824407e-36
-3.778532e-36
-3.671677e-36
-3.121512e-36
-1.286464e-36
-5.324029e-36
-8.115954e-37
-3.013544e-36
-3.612204e-36
-3.766554e-36
-3.823085e-36
-3.851362e-36
-3.866967e-36
-3.872672e-36
-3.876462e-36
-3.873818e-36
-3.859583e-36
-3.84371e-36
-3.810709e-36
-3.738673e-36
-3.539356e-36
-3.086277e-36
-1.643755e-36
-2.098246e-36
-1.947874e-36
-3.354025e-36
-3.68616e-36
-3.793602e-36
-3.835939e-36
-3.861575e-36
-3.87242e-36
-3.886954e-36
-3.884602e-36
-3.882818e-36
-3.865568e-36
-3.854324e-36
-3.824033e-36
-3.768118e-36
-3.622293e-36
-2.91892e-36
-9.897839e-37
-3.119699e-36
-2.189578e-36
-3.427199e-36
-3.705512e-36
-3.799934e-36
-3.839551e-36
-3.86212e-36
-3.876195e-36
-3.882941e-36
-3.883189e-36
-3.88465e-36
-3.868257e-36
-3.855765e-36
-3.826971e-36
-3.774494e-36
-3.632935e-36
-3.185281e-36
-1.890676e-36
-1.686409e-36
-1.674271e-36
-3.120873e-36
-3.673011e-36
-3.78789e-36
-3.834634e-36
-3.855014e-36
-3.873533e-36
-3.882113e-36
-3.884554e-36
-3.874987e-36
-3.86661e-36
-3.848838e-36
-3.819346e-36
-3.753974e-36
-3.573763e-36
-3.224528e-36
1.058072e-36
-3.547106e-36
-2.740253e-36
-3.590912e-36
-3.757544e-36
-3.818558e-36
-3.844887e-36
-3.859691e-36
-3.865334e-36
-3.868303e-36
-3.866747e-36
-3.855677e-36
-3.835174e-36
-3.800133e-36
-3.70805e-36
-3.444256e-36
-2.186465e-36
-2.01333e-36
-2.030277e-36
-3.203399e-36
-3.68704e-36
-3.784309e-36
-3.824534e-36
-3.843782e-36
-3.854454e-36
-3.855936e-36
-3.848696e-36
-3.835029e-36
-3.811655e-36
-3.75333e-36
-3.60217e-36
-3.349608e-36
3.174115e-37
-3.546615e-36
-2.682545e-36
-3.537077e-36
-3.710891e-36
-3.778448e-36
-3.810908e-36
-3.820747e-36
-3.827139e-36
-3.818691e-36
-3.799935e-36
-3.753238e-36
-3.655087e-36
-3.400235e-36
-2.152253e-36
-1.821952e-36
-1.662996e-36
-2.936127e-36
-3.527576e-36
-3.672083e-36
-3.739347e-36
-3.76843e-36
-3.774388e-36
-3.752237e-36
-3.708149e-36
-3.602697e-36
-3.399902e-36
-3.08144e-36
6.711062e-37
-1.725411e-36
-1.106367e-36
-3.113125e-36
-3.121755e-36
-3.539992e-36
-3.619439e-36
-3.631816e-36
-3.573571e-36
-3.444487e-36
-3.350475e-36
-2.150883e-36
6.722854e-37
-1.987726e-36
-1.288706e-36
-3.08848e-36
-2.920383e-36
-3.185488e-36
-3.221251e-36
-2.188419e-36
3.144467e-37
-1.647945e-36
-9.936785e-37
-1.886324e-36
1.053703e-36
-5.324082e-36
-2.431443e-36
-3.536789e-36
-3.647956e-36
-3.684758e-36
-3.68884e-36
-3.674448e-36
-3.619535e-36
-3.444854e-36
-1.989203e-36
-5.32407e-36
-2.425905e-36
-1.187519e-36
-2.352988e-36
-2.730583e-36
-2.848337e-36
-2.868843e-36
-2.860273e-36
-2.849145e-36
-2.781261e-36
-2.606681e-36
-2.089611e-36
-3.649685e-36
-2.121417e-36
-5.324109e-36
-4.313839e-37
-2.578278e-36
-3.238874e-36
-3.564422e-36
-3.785719e-36
-3.757383e-36
-3.772602e-36
-3.736714e-36
-3.828797e-36
-3.774769e-36
-3.661412e-36
-3.346746e-36
-2.919232e-36
-2.092656e-36
-2.474575e-36
-5.324135e-36
-1.06267e-36
-2.984097e-36
-3.560719e-36
-3.851872e-36
-3.841858e-36
-3.743964e-36
-2.135477e-36
-2.619547e-36
-2.722247e-36
-2.943502e-36
-3.864948e-36
-3.92261e-36
-3.872031e-36
-3.725194e-36
-3.299261e-36
-2.683182e-36
-2.585092e-36
-5.324109e-36
-1.060969e-36
-3.055725e-36
-3.755713e-36
-3.838491e-36
-3.76019e-36
-2.259652e-36
-2.828378e-36
-2.96449e-36
-3.205116e-36
-3.064895e-36
-3.075987e-36
-2.851172e-36
-3.04867e-36
-3.896336e-36
-3.931581e-36
-3.851635e-36
-3.418575e-36
-2.755414e-36
-2.493714e-36
-5.32407e-36
-4.295961e-37
-2.983205e-36
-3.754931e-36
-3.725248e-36
-2.328533e-36
-2.797807e-36
-2.996758e-36
-3.261065e-36
-3.233497e-36
-3.064577e-36
-3.085492e-36
-3.158648e-36
-3.155992e-36
-3.153477e-36
-2.856359e-36
-3.069441e-36
-3.970924e-36
-3.859758e-36
-3.41044e-36
-2.614881e-36
-2.004376e-36
-2.42596e-36
-2.57687e-36
-3.561009e-36
-3.837853e-36
-2.327563e-36
-2.876962e-36
-3.202911e-36
-3.246994e-36
-3.121873e-36
-3.154587e-36
-3.170169e-36
-3.172863e-36
-3.162835e-36
-3.161463e-36
-3.193539e-36
-3.139487e-36
-3.071584e-36
-3.333201e-36
-3.941361e-36
-3.79495e-36
-3.23808e-36
-1.545874e-36
-5.324082e-36
-1.188361e-36
-3.238545e-36
-3.852318e-36
-3.759832e-36
-2.797702e-36
-3.202546e-36
-3.069994e-36
-3.147122e-36
-3.2003e-36
-3.23632e-36
-3.255986e-36
-3.25973e-36
-3.247341e-36
-3.218402e-36
-3.172712e-36
-3.127235e-36
-3.143343e-36
-3.537481e-36
-3.90041e-36
-3.855307e-36
-3.69926e-36
-3.293491e-36
-1.940013e-36
-2.43034e-36
-2.350552e-36
-3.563978e-36
-3.840902e-36
-2.258108e-36
-2.995311e-36
-3.246492e-36
-3.146878e-36
-3.214625e-36
-3.265758e-36
-3.298192e-36
-3.315394e-36
-3.318615e-36
-3.307725e-36
-3.283013e-36
-3.240445e-36
-3.176743e-36
-3.134314e-36
-3.129268e-36
-3.353526e-36
-3.957735e-36
-3.814403e-36
-3.208827e-36
-1.527418e-36
-3.533937e-36
-2.726625e-36
-3.785425e-36
-3.743787e-36
-2.827682e-36
-3.260639e-36
-3.121784e-36
-3.200284e-36
-3.265819e-36
-3.311024e-36
-3.337992e-36
-3.351995e-36
-3.354374e-36
-3.344997e-36
-3.324332e-36
-3.289146e-36
-3.232521e-36
-3.181098e-36
-3.195589e-36
-3.580109e-36
-3.898139e-36
-3.830058e-36
-3.552407e-36
-2.587829e-36
-3.645317e-36
-2.844948e-36
-3.75583e-36
-2.1345e-36
-2.964636e-36
-3.232868e-36
-3.154476e-36
-3.236132e-36
-3.298026e-36
-3.337778e-36
-3.363865e-36
-3.379267e-36
-3.38231e-36
-3.371851e-36
-3.35001e-36
-3.317798e-36
-3.266513e-36
-3.189963e-36
-3.128698e-36
-3.088534e-36
-3.341674e-36
-3.939362e-36
-3.633408e-36
-2.763922e-36
-3.683541e-36
-2.868116e-36
-3.771891e-36
-2.618975e-36
-3.204874e-36
-3.064817e-36
-3.170145e-36
-3.255673e-36
-3.315184e-36
-3.351724e-36
-3.378977e-36
-3.390005e-36
-3.393262e-36
-3.384522e-36
-3.364641e-36
-3.332059e-36
-3.284899e-36
-3.210587e-36
-3.135154e-36
-3.118964e-36
-3.64276e-36
-3.904347e-36
-3.587696e-36
-2.811751e-36
-3.689269e-36
-2.862623e-36
-3.737731e-36
-2.723359e-36
-3.065214e-36
-3.085705e-36
-3.173006e-36
-3.259715e-36
-3.318527e-36
-3.354196e-36
-3.381911e-36
-3.392336e-36
-3.396085e-36
-3.386686e-36
-3.367397e-36
-3.334307e-36
-3.287754e-36
-3.214752e-36
-3.11696e-36
-3.056891e-36
-3.695787e-36
-3.87116e-36
-3.597599e-36
-2.819442e-36
-3.676535e-36
-2.851629e-36
-3.828785e-36
-2.9436e-36
-3.075837e-36
-3.158618e-36
-3.162885e-36
-3.247185e-36
-3.307668e-36
-3.344939e-36
-3.371653e-36
-3.384135e-36
-3.386615e-36
-3.377805e-36
-3.356915e-36
-3.324131e-36
-3.275802e-36
-3.205792e-36
-3.148844e-36
-3.409078e-36
-3.998895e-36
-3.961487e-36
-3.631466e-36
-2.803802e-36
-3.62183e-36
-2.783666e-36
-3.775274e-36
-3.864653e-36
-2.85109e-36
-3.156183e-36
-3.161473e-36
-3.218205e-36
-3.283021e-36
-3.324398e-36
-3.349875e-36
-3.364468e-36
-3.367486e-36
-3.356867e-36
-3.3352e-36
-3.301643e-36
-3.249295e-36
-3.18133e-36
-3.17148e-36
-3.644045e-36
-3.937321e-36
-3.789188e-36
-3.641958e-36
-2.716656e-36
-3.447785e-36
-2.60863e-36
-3.661945e-36
-3.920752e-36
-3.049147e-36
-3.153184e-36
-3.193422e-36
-3.172691e-36
-3.240529e-36
-3.289116e-36
-3.317793e-36
-3.331781e-36
-3.334196e-36
-3.324071e-36
-3.301559e-36
-3.262624e-36
-3.206878e-36
-3.172731e-36
-3.464625e-36
-4.015561e-36
-3.908427e-36
-3.88414e-36
-3.470103e-36
-2.428558e-36
-1.998047e-36
-2.096332e-36
-3.348263e-36
-3.871788e-36
-3.897239e-36
-2.856678e-36
-3.139782e-36
-3.127453e-36
-3.176837e-36
-3.232512e-36
-3.266382e-36
-3.284183e-36
-3.28603e-36
-3.275539e-36
-3.249129e-36
-3.206852e-36
-3.144554e-36
-3.143555e-36
-3.647809e-36
-3.950322e-36
-3.817833e-36
-3.811753e-36
-3.432305e-36
3.726588e-37
-3.647117e-36
-2.919447e-36
-3.725238e-36
-3.93187e-36
-3.069587e-36
-3.07087e-36
-3.143084e-36
-3.134566e-36
-3.1813e-36
-3.190035e-36
-3.209343e-36
-3.211917e-36
-3.205539e-36
-3.18126e-36
-3.172577e-36
-3.143734e-36
-3.384995e-36
-4.016412e-36
-3.90662e-36
-3.895895e-36
-3.589302e-36
-2.375021e-36
-2.127512e-36
-2.090325e-36
-3.299403e-36
-3.853186e-36
-3.970407e-36
-3.332831e-36
-3.537055e-36
-3.12945e-36
-3.195777e-36
-3.128844e-36
-3.13498e-36
-3.114878e-36
-3.148789e-36
-3.171595e-36
-3.464325e-36
-3.647914e-36
-4.015801e-36
-4.037864e-36
-3.820419e-36
-3.759885e-36
-3.384818e-36
1.31806e-38
-2.473979e-36
-2.684298e-36
-3.419372e-36
-3.860285e-36
-3.940302e-36
-3.900488e-36
-3.353478e-36
-3.578646e-36
-3.088956e-36
-3.117965e-36
-3.053658e-36
-3.40941e-36
-3.644475e-36
-4.016081e-36
-3.950127e-36
-3.906457e-36
-3.820442e-36
-3.854182e-36
-3.508611e-36
-1.030798e-37
-2.586188e-36
-2.755223e-36
-3.409204e-36
-3.79498e-36
-3.855069e-36
-3.958344e-36
-3.898311e-36
-3.34267e-36
-3.643167e-36
-3.694668e-36
-3.99898e-36
-3.936914e-36
-3.909207e-36
-3.818363e-36
-3.896187e-36
-3.76076e-36
-3.50984e-36
-3.275302e-37
-2.489449e-36
-2.615185e-36
-3.238198e-36
-3.699517e-36
-3.814336e-36
-3.829044e-36
-3.939437e-36
-3.902758e-36
-3.870885e-36
-3.961419e-36
-3.790006e-36
-3.884489e-36
-3.810032e-36
-3.58729e-36
-3.382521e-36
-1.043143e-37
-2.00625e-36
-1.545882e-36
-3.291975e-36
-3.20694e-36
-3.551989e-36
-3.633272e-36
-3.588552e-36
-3.598479e-36
-3.629033e-36
-3.641438e-36
-3.469997e-36
-3.432859e-36
-2.373345e-36
1.560441e-38
-1.940782e-36
-1.526228e-36
-2.586733e-36
-2.763461e-36
-2.808261e-36
-2.818962e-36
-2.802737e-36
-2.714354e-36
-2.426081e-36
3.88018e-37
-5.324072e-36
-2.551195e-36
-3.601439e-36
-3.701101e-36
-3.718212e-36
-3.685282e-36
-3.519518e-36
-2.134751e-36
-5.324085e-36
-2.693364e-36
-3.660158e-36
-1.612896e-36
-2.521602e-36
-2.762253e-36
-2.842599e-36
-2.855294e-36
-2.815934e-36
-2.701881e-36
-2.3753e-36
-3.930589e-36
-3.64482e-36
-2.176641e-36
-5.324198e-36
-9.167719e-37
-2.844446e-36
-3.22989e-36
-3.505322e-36
-3.673279e-36
-3.745219e-36
-3.768634e-36
-3.773564e-36
-3.762224e-36
-3.740133e-36
-3.518637e-36
-3.392002e-36
-3.046967e-36
-2.405896e-36
-2.843363e-36
-5.324098e-36
-2.782683e-36
-2.539127e-36
-3.294817e-36
-3.492398e-36
-2.125694e-36
-2.700815e-36
-2.894751e-36
-2.971831e-36
-2.999495e-36
-3.00512e-36
-2.991936e-36
-2.9504e-36
-2.867322e-36
-2.940103e-36
-3.740172e-36
-3.539633e-36
-3.289148e-36
-3.941823e-36
-2.381058e-36
-5.324096e-36
-8.903663e-37
-3.020798e-36
-3.358478e-36
-2.190904e-36
-2.821588e-36
-3.059915e-36
-3.330301e-36
-3.236481e-36
-3.274567e-36
-3.276629e-36
-3.280016e-36
-3.286118e-36
-3.268627e-36
-3.226452e-36
-3.196192e-36
-2.90934e-36
-2.994748e-36
-3.699727e-36
-3.262317e-36
-2.511949e-36
-2.558638e-36
-5.324098e-36
-8.82446e-37
-3.251532e-36
-3.504853e-36
-2.471145e-36
-2.93532e-36
-3.289922e-36
-3.343169e-36
-3.218097e-36
-3.217744e-36
-3.306849e-36
-3.283068e-36
-3.287298e-36
-3.281755e-36
-3.275815e-36
-3.261872e-36
-3.296256e-36
-3.240403e-36
-3.190053e-36
-3.174193e-36
-3.827556e-36
-3.479528e-36
-2.834635e-36
-2.27549e-36
-2.780517e-36
-3.0219e-36
-3.501813e-36
-2.496731e-36
-2.956509e-36
-3.450962e-36
-3.219617e-36
-3.247086e-36
-3.334061e-36
-3.362668e-36
-3.391323e-36
-3.427407e-36
-3.446165e-36
-3.399969e-36
-3.329998e-36
-3.319454e-36
-3.308994e-36
-3.272713e-36
-3.290708e-36
-3.221511e-36
-3.235802e-36
-3.847882e-36
-3.456118e-36
-2.09262e-36
-5.324198e-36
-2.53626e-36
-3.35646e-36
-2.472478e-36
-2.957888e-36
-3.476807e-36
-3.234885e-36
-3.324221e-36
-3.372201e-36
-3.409819e-36
-3.420277e-36
-3.515103e-36
-3.293741e-36
-3.299916e-36
-3.395359e-36
-3.439405e-36
-3.439139e-36
-3.353193e-36
-3.320603e-36
-3.325206e-36
-3.322315e-36
-3.235946e-36
-3.242323e-36
-3.824233e-36
-3.703248e-36
-3.023081e-36
-5.324085e-36
-9.108296e-37
-3.295732e-36
-2.190349e-36
-2.933378e-36
-3.450902e-36
-3.235271e-36
-3.379511e-36
-3.391007e-36
-3.418948e-36
-3.534268e-36
-3.325682e-36
-3.300114e-36
-3.263565e-36
-3.254119e-36
-3.27335e-36
-3.327247e-36
-3.424499e-36
-3.448977e-36
-3.433396e-36
-3.331146e-36
-3.344344e-36
-3.308518e-36
-3.186388e-36
-3.353782e-36
-3.658508e-36
-3.043145e-36
-2.13157e-36
-2.693245e-36
-2.841884e-36
-3.489753e-36
-2.821796e-36
-3.289546e-36
-3.21901e-36
-3.324437e-36
-3.390952e-36
-3.494695e-36
-3.31264e-36
-3.310493e-36
-3.294436e-36
-3.291577e-36
-3.28806e-36
-3.287029e-36
-3.287168e-36
-3.288148e-36
-3.296163e-36
-3.328825e-36
-3.411008e-36
-3.375906e-36
-3.373295e-36
-3.310659e-36
-3.263802e-36
-3.579926e-36
-3.826913e-36
-3.364698e-36
-1.962993e-36
-3.657761e-36
-3.227055e-36
-2.127632e-36
-3.059751e-36
-3.342895e-36
-3.246504e-36
-3.372281e-36
-3.418588e-36
-3.312351e-36
-3.281802e-36
-3.291896e-36
-3.309576e-36
-3.326203e-36
-3.335859e-36
-3.337639e-36
-3.331325e-36
-3.317714e-36
-3.299474e-36
-3.285561e-36
-3.318439e-36
-3.348159e-36
-3.305149e-36
-3.349924e-36
-3.271164e-36
-3.214516e-36
-3.355918e-36
-3.785044e-36
-2.98008e-36
-5.324069e-36
-1.604709e-36
-3.501383e-36
-2.701377e-36
-3.328482e-36
-3.217788e-36
-3.333566e-36
-3.409091e-36
-3.533568e-36
-3.310053e-36
-3.291735e-36
-3.315642e-36
-3.345451e-36
-3.368488e-36
-3.381552e-36
-3.384073e-36
-3.375897e-36
-3.357741e-36
-3.33113e-36
-3.302973e-36
-3.318922e-36
-3.420748e-36
-3.395802e-36
-3.385857e-36
-3.317629e-36
-3.265825e-36
-3.699159e-36
-3.859886e-36
-3.581699e-36
-2.032696e-36
-2.54631e-36
-2.516908e-36
-3.672886e-36
-2.893996e-36
-3.23452e-36
-3.216914e-36
-3.362656e-36
-3.419579e-36
-3.325078e-36
-3.294174e-36
-3.30947e-36
-3.345434e-36
-3.379073e-36
-3.402883e-36
-3.416052e-36
-3.418569e-36
-3.410294e-36
-3.391676e-36
-3.363271e-36
-3.327782e-36
-3.300344e-36
-3.327552e-36
-3.35212e-36
-3.29776e-36
-3.334519e-36
-3.237654e-36
-3.743626e-36
-3.878782e-36
-3.337556e-36
-1.705414e-36
-3.600224e-36
-2.76398e-36
-3.74597e-36
-2.971097e-36
-3.273021e-36
-3.305321e-36
-3.390751e-36
-3.514522e-36
-3.299638e-36
-3.291393e-36
-3.326068e-36
-3.368382e-36
-3.402784e-36
-3.426987e-36
-3.440734e-36
-3.443453e-36
-3.434724e-36
-3.415454e-36
-3.386428e-36
-3.348228e-36
-3.308409e-36
-3.314105e-36
-3.404009e-36
-3.376533e-36
-3.372479e-36
-3.278738e-36
-3.785032e-36
-3.903425e-36
-3.554096e-36
-2.655443e-36
-3.701214e-36
-2.844956e-36
-3.769293e-36
-2.999427e-36
-3.276309e-36
-3.282639e-36
-3.427139e-36
-3.293508e-36
-3.263516e-36
-3.288e-36
-3.335713e-36
-3.38142e-36
-3.415901e-36
-3.440597e-36
-3.453177e-36
-3.455935e-36
-3.447618e-36
-3.428797e-36
-3.399195e-36
-3.359869e-36
-3.313307e-36
-3.277129e-36
-3.295761e-36
-3.316283e-36
-3.322511e-36
-3.290145e-36
-3.80143e-36
-3.913913e-36
-3.590825e-36
-2.793876e-36
-3.719065e-36
-2.856124e-36
-3.774e-36
-3.006208e-36
-3.280974e-36
-3.288252e-36
-3.446847e-36
-3.300289e-36
-3.254283e-36
-3.287091e-36
-3.337607e-36
-3.383991e-36
-3.418436e-36
-3.443232e-36
-3.455614e-36
-3.458455e-36
-3.450014e-36
-3.431379e-36
-3.401687e-36
-3.36248e-36
-3.315961e-36
-3.27748e-36
-3.306611e-36
-3.320782e-36
-3.32364e-36
-3.29035e-36
-3.805678e-36
-3.917061e-36
-3.599012e-36
-2.818942e-36
-3.685496e-36
-2.815152e-36
-3.762638e-36
-2.993993e-36
-3.287917e-36
-3.282603e-36
-3.40025e-36
-3.395834e-36
-3.273542e-36
-3.287234e-36
-3.331273e-36
-3.375842e-36
-3.410209e-36
-3.434565e-36
-3.447398e-36
-3.449943e-36
-3.44176e-36
-3.422819e-36
-3.393782e-36
-3.35602e-36
-3.315073e-36
-3.30795e-36
-3.269886e-36
-3.376614e-36
-3.348246e-36
-3.283269e-36
-3.799752e-36
-3.911137e-36
-3.578225e-36
-2.763766e-36
-3.521327e-36
-2.698114e-36
-3.739874e-36
-2.952734e-36
-3.270563e-36
-3.275758e-36
-3.3298e-36
-3.439595e-36
-3.327435e-36
-3.288197e-36
-3.317654e-36
-3.357715e-36
-3.391643e-36
-3.415323e-36
-3.428624e-36
-3.4313e-36
-3.422756e-36
-3.404014e-36
-3.376144e-36
-3.341255e-36
-3.310425e-36
-3.343425e-36
-3.350853e-36
-3.280159e-36
-3.372909e-36
-3.262711e-36
-3.77916e-36
-3.894273e-36
-3.505623e-36
-2.528736e-36
-2.152027e-36
-2.374479e-36
-3.518045e-36
-2.868872e-36
-3.228435e-36
-3.261109e-36
-3.319482e-36
-3.43899e-36
-3.424454e-36
-3.296125e-36
-3.299448e-36
-3.33113e-36
-3.36321e-36
-3.386305e-36
-3.398924e-36
-3.40143e-36
-3.393622e-36
-3.376061e-36
-3.349868e-36
-3.320969e-36
-3.325393e-36
-3.30164e-36
-3.418532e-36
-3.373943e-36
-3.303866e-36
-3.241519e-36
-3.774763e-36
-3.858118e-36
-3.55653e-36
8.303955e-38
-3.927594e-36
-3.392408e-36
-2.940334e-36
-3.198321e-36
-3.29573e-36
-3.309906e-36
-3.35323e-36
-3.448789e-36
-3.328737e-36
-3.285564e-36
-3.302973e-36
-3.327714e-36
-3.348021e-36
-3.359405e-36
-3.361616e-36
-3.355656e-36
-3.341089e-36
-3.320917e-36
-3.301352e-36
-3.339497e-36
-3.355802e-36
-3.301096e-36
-3.400201e-36
-3.302222e-36
-3.511914e-36
-4.001628e-36
-3.878679e-36
-2.915803e-36
-3.647608e-36
-3.046551e-36
-3.738619e-36
-2.910475e-36
-3.239162e-36
-3.274073e-36
-3.321004e-36
-3.433054e-36
-3.410619e-36
-3.318255e-36
-3.318923e-36
-3.300308e-36
-3.308202e-36
-3.312562e-36
-3.314631e-36
-3.314619e-36
-3.310269e-36
-3.325295e-36
-3.339411e-36
-3.294379e-36
-3.403465e-36
-3.36867e-36
-3.312727e-36
-3.276455e-36
-3.680358e-36
-3.896574e-36
-3.542911e-36
-2.96987e-36
-2.166326e-36
-2.408804e-36
-3.540096e-36
-2.994451e-36
-3.188694e-36
-3.292108e-36
-3.32563e-36
-3.331031e-36
-3.375278e-36
-3.347911e-36
-3.420712e-36
-3.327465e-36
-3.313879e-36
-3.276645e-36
-3.276351e-36
-3.307574e-36
-3.343421e-36
-3.30164e-36
-3.355533e-36
-3.40308e-36
-3.295107e-36
-3.384131e-36
-3.306185e-36
-3.505712e-36
-4.000917e-36
-3.770424e-36
-3.582772e-36
-1.973745e-37
-2.847119e-36
-3.288686e-36
-3.700782e-36
-3.174407e-36
-3.222575e-36
-3.322312e-36
-3.343901e-36
-3.37292e-36
-3.305159e-36
-3.395858e-36
-3.351857e-36
-3.403771e-36
-3.295176e-36
-3.305335e-36
-3.269606e-36
-3.351057e-36
-3.418807e-36
-3.300926e-36
-3.3684e-36
-3.384142e-36
-3.319899e-36
-3.571097e-36
-3.924405e-36
-3.967303e-36
-3.702272e-36
-1.060068e-36
-3.936558e-36
-3.26224e-36
-3.826562e-36
-3.236078e-36
-3.235452e-36
-3.308492e-36
-3.310254e-36
-3.3499e-36
-3.385949e-36
-3.297435e-36
-3.376455e-36
-3.315805e-36
-3.319846e-36
-3.376264e-36
-3.280388e-36
-3.37425e-36
-3.399945e-36
-3.312601e-36
-3.306297e-36
-3.571813e-36
-3.932903e-36
-3.98207e-36
-3.555967e-36
-2.989565e-36
-2.379814e-36
-2.506563e-36
-3.48127e-36
-3.847739e-36
-3.241653e-36
-3.186442e-36
-3.263642e-36
-3.271153e-36
-3.31767e-36
-3.334559e-36
-3.372089e-36
-3.322131e-36
-3.32254e-36
-3.347773e-36
-3.372861e-36
-3.303759e-36
-3.302083e-36
-3.276194e-36
-3.505213e-36
-3.924246e-36
-3.98256e-36
-3.587474e-36
-3.630373e-36
-6.259838e-37
-2.553826e-36
-2.835336e-36
-3.452334e-36
-3.824288e-36
-3.353402e-36
-3.580037e-36
-3.214488e-36
-3.265952e-36
-3.237649e-36
-3.278668e-36
-3.289414e-36
-3.287897e-36
-3.282153e-36
-3.26214e-36
-3.241263e-36
-3.511973e-36
-3.679376e-36
-4.00095e-36
-3.967042e-36
-3.552405e-36
-3.632735e-36
-2.888309e-37
-2.260209e-36
-2.092849e-36
-3.70229e-36
-3.65801e-36
-3.82698e-36
-3.35687e-36
-3.700011e-36
-3.744287e-36
-3.785976e-36
-3.800953e-36
-3.805921e-36
-3.798862e-36
-3.777796e-36
-3.77345e-36
-3.998782e-36
-3.894837e-36
-3.769729e-36
-3.704648e-36
-2.982972e-36
-6.120454e-37
-3.021512e-36
-3.042877e-36
-3.36404e-36
-3.784812e-36
-3.860173e-36
-3.879453e-36
-3.904533e-36
-3.913653e-36
-3.918382e-36
-3.911889e-36
-3.894688e-36
-3.858394e-36
-3.879635e-36
-3.545496e-36
-3.58313e-36
-1.057802e-36
-2.131095e-36
-1.960257e-36
-2.979811e-36
-3.579724e-36
-3.337194e-36
-3.554956e-36
-3.590489e-36
-3.600764e-36
-3.578031e-36
-3.506509e-36
-3.555229e-36
-2.916086e-36
-2.968767e-36
-1.936604e-37
-2.025357e-36
-1.700359e-36
-2.655931e-36
-2.794238e-36
-2.818837e-36
-2.765055e-36
-2.529823e-36
9.329499e-38
-5.324119e-36
-2.726315e-36
-3.688063e-36
-3.733848e-36
-3.608229e-36
-2.355368e-36
-5.324124e-36
-2.900256e-36
-3.92306e-36
-3.907769e-36
-2.171815e-36
-2.864182e-36
-3.02224e-36
-3.052134e-36
-2.992022e-36
-2.849785e-36
-4.200684e-36
-3.966454e-36
-3.748557e-36
-2.350605e-36
-5.324106e-36
-3.155267e-36
-2.083701e-36
-2.877372e-36
-2.910397e-36
-1.65511e-36
-2.423274e-36
-2.721124e-36
-2.826392e-36
-2.841911e-36
-2.806979e-36
-2.581681e-36
-2.454632e-36
-3.190602e-36
-3.011618e-36
-2.980054e-36
-3.883138e-36
-2.78473e-36
-5.324184e-36
-1.558568e-36
-2.799858e-36
-1.880741e-36
-2.57958e-36
-2.946286e-36
-3.080454e-36
-3.311021e-36
-3.213082e-36
-3.244693e-36
-3.250649e-36
-3.231506e-36
-3.20504e-36
-3.188705e-36
-2.93984e-36
-2.792139e-36
-2.700447e-36
-3.333949e-36
-2.716976e-36
-2.985894e-36
-5.324231e-36
-1.972053e-36
-3.146969e-36
-2.366317e-36
-2.928896e-36
-3.278651e-36
-3.294404e-36
-3.427471e-36
-3.291956e-36
-3.312255e-36
-3.330065e-36
-3.333941e-36
-3.322036e-36
-3.320343e-36
-3.359175e-36
-3.309939e-36
-3.273747e-36
-3.180498e-36
-3.140022e-36
-3.446784e-36
-3.346036e-36
-3.136974e-36
-5.324231e-36
-1.813092e-36
-1.833463e-36
-2.736589e-36
-3.086588e-36
-3.554983e-36
-3.300459e-36
-3.361177e-36
-3.447419e-36
-3.492641e-36
-3.521735e-36
-3.539368e-36
-3.54386e-36
-3.534256e-36
-3.511359e-36
-3.48545e-36
-3.395712e-36
-3.29894e-36
-3.323354e-36
-3.331763e-36
-2.988918e-36
-2.775514e-36
-3.492061e-36
-3.127586e-36
-5.324231e-36
-1.810443e-36
-2.021215e-36
-2.8334e-36
-3.283282e-36
-3.487677e-36
-3.366371e-36
-3.395971e-36
-3.52265e-36
-3.357098e-36
-3.365986e-36
-3.384936e-36
-3.399015e-36
-3.402477e-36
-3.395202e-36
-3.378692e-36
-3.380999e-36
-3.43496e-36
-3.435056e-36
-3.424496e-36
-3.363375e-36
-3.317321e-36
-3.192393e-36
-2.934829e-36
-3.458272e-36
-3.055921e-36
-5.324183e-36
-1.964729e-36
-1.834484e-36
-2.83278e-36
-3.386762e-36
-3.302699e-36
-3.349323e-36
-3.501684e-36
-3.3476e-36
-3.358599e-36
-3.355255e-36
-3.361863e-36
-3.370302e-36
-3.37443e-36
-3.376396e-36
-3.375044e-36
-3.368205e-36
-3.359706e-36
-3.354367e-36
-3.369843e-36
-3.433025e-36
-3.381253e-36
-3.302883e-36
-3.31151e-36
-3.169897e-36
-3.118089e-36
-3.426503e-36
-2.984962e-36
-5.324105e-36
-1.547261e-36
-3.148942e-36
-2.732182e-36
-3.282498e-36
-3.302631e-36
-3.351441e-36
-3.515334e-36
-3.371055e-36
-3.357042e-36
-3.36616e-36
-3.371698e-36
-3.371572e-36
-3.36645e-36
-3.362507e-36
-3.362953e-36
-3.366536e-36
-3.370851e-36
-3.3757e-36
-3.370865e-36
-3.362508e-36
-3.379464e-36
-3.447349e-36
-3.39189e-36
-3.30522e-36
-3.311888e-36
-3.559841e-36
-3.602531e-36
-3.15205e-36
-2.521253e-36
-3.157737e-36
-2.800127e-36
-2.361662e-36
-3.087262e-36
-3.487627e-36
-3.349097e-36
-3.515939e-36
-3.380397e-36
-3.367352e-36
-3.369567e-36
-3.377315e-36
-3.380215e-36
-3.374912e-36
-3.366825e-36
-3.340731e-36
-3.334113e-36
-3.348912e-36
-3.370794e-36
-3.381528e-36
-3.381553e-36
-3.377912e-36
-3.36959e-36
-3.388535e-36
-3.451012e-36
-3.389554e-36
-3.320156e-36
-3.359892e-36
-3.247619e-36
-3.523018e-36
-2.317252e-36
-5.324124e-36
-2.082927e-36
-1.880681e-36
-2.930919e-36
-3.553255e-36
-3.366039e-36
-3.50101e-36
-3.370876e-36
-3.367361e-36
-3.369694e-36
-3.3723e-36
-3.375661e-36
-3.37804e-36
-3.355833e-36
-3.338853e-36
-3.321084e-36
-3.316419e-36
-3.325861e-36
-3.343583e-36
-3.363678e-36
-3.378822e-36
-3.38064e-36
-3.37441e-36
-3.368974e-36
-3.385422e-36
-3.437408e-36
-3.386188e-36
-3.409935e-36
-3.259039e-36
-3.278707e-36
-3.730998e-36
-2.44993e-36
-2.903542e-36
-2.877316e-36
-2.580955e-36
-3.277603e-36
-3.300507e-36
-3.395668e-36
-3.347075e-36
-3.356681e-36
-3.369535e-36
-3.372265e-36
-3.369791e-36
-3.352548e-36
-3.345897e-36
-3.336442e-36
-3.331099e-36
-3.326466e-36
-3.325077e-36
-3.327103e-36
-3.331861e-36
-3.338814e-36
-3.348436e-36
-3.36291e-36
-3.373072e-36
-3.373096e-36
-3.366573e-36
-3.373695e-36
-3.352471e-36
-3.267414e-36
-3.315592e-36
-3.6477e-36
-3.520003e-36
-2.185223e-36
-3.920814e-36
-2.914258e-36
-2.948093e-36
-3.29392e-36
-3.362151e-36
-3.522078e-36
-3.357987e-36
-3.365751e-36
-3.377248e-36
-3.37544e-36
-3.352408e-36
-3.334034e-36
-3.333774e-36
-3.339708e-36
-3.346772e-36
-3.35105e-36
-3.351758e-36
-3.34882e-36
-3.342906e-36
-3.336221e-36
-3.333765e-36
-3.343952e-36
-3.362294e-36
-3.375046e-36
-3.374317e-36
-3.384668e-36
-3.439864e-36
-3.372274e-36
-3.343802e-36
-3.643365e-36
-3.659895e-36
-3.072697e-36
-3.91081e-36
-1.648298e-36
-3.075664e-36
-3.427421e-36
-3.448173e-36
-3.35659e-36
-3.354857e-36
-3.371333e-36
-3.37984e-36
-3.37765e-36
-3.345672e-36
-3.333691e-36
-3.342702e-36
-3.358495e-36
-3.372498e-36
-3.380949e-36
-3.382622e-36
-3.377351e-36
-3.365999e-36
-3.350958e-36
-3.337982e-36
-3.338109e-36
-3.358581e-36
-3.376738e-36
-3.378096e-36
-3.369801e-36
-3.376437e-36
-3.364866e-36
-3.348896e-36
-3.306794e-36
-3.288442e-36
-3.42095e-36
-5.324117e-36
-2.166208e-36
-2.420338e-36
-3.309322e-36
-3.292135e-36
-3.492925e-36
-3.365492e-36
-3.361393e-36
-3.37138e-36
-3.374515e-36
-3.355503e-36
-3.336268e-36
-3.339632e-36
-3.358472e-36
-3.38002e-36
-3.397253e-36
-3.407377e-36
-3.409414e-36
-3.403191e-36
-3.389442e-36
-3.370048e-36
-3.349653e-36
-3.337625e-36
-3.34473e-36
-3.361857e-36
-3.372983e-36
-3.374037e-36
-3.390704e-36
-3.397701e-36
-3.377304e-36
-3.308103e-36
-3.666306e-36
-3.862024e-36
-2.139168e-36
-2.730212e-36
-2.862713e-36
-2.721852e-36
-3.214022e-36
-3.313135e-36
-3.521983e-36
-3.384549e-36
-3.369694e-36
-3.366115e-36
-3.366487e-36
-3.338613e-36
-3.330981e-36
-3.346697e-36
-3.372441e-36
-3.397208e-36
-3.416139e-36
-3.427143e-36
-3.429382e-36
-3.42262e-36
-3.407587e-36
-3.385798e-36
-3.360526e-36
-3.338998e-36
-3.333402e-36
-3.349737e-36
-3.366317e-36
-3.374461e-36
-3.405566e-36
-3.422975e-36
-3.377364e-36
-3.259711e-36
-3.721919e-36
-3.524455e-36
-2.028673e-36
-3.683617e-36
-3.024187e-36
-2.830052e-36
-3.246861e-36
-3.33117e-36
-3.539818e-36
-3.399149e-36
-3.374349e-36
-3.362406e-36
-3.340645e-36
-3.321045e-36
-3.326434e-36
-3.350989e-36
-3.380879e-36
-3.407298e-36
-3.427079e-36
-3.438161e-36
-3.440468e-36
-3.433616e-36
-3.418181e-36
-3.395195e-36
-3.367402e-36
-3.340392e-36
-3.324932e-36
-3.33101e-36
-3.350298e-36
-3.370487e-36
-3.413695e-36
-3.438294e-36
-3.392774e-36
-3.281967e-36
-3.752103e-36
-3.680021e-36
-2.806548e-36
-3.732478e-36
-3.052645e-36
-2.843156e-36
-3.25149e-36
-3.334694e-36
-3.544561e-36
-3.403191e-36
-3.376965e-36
-3.36336e-36
-3.334358e-36
-3.316542e-36
-3.325122e-36
-3.351741e-36
-3.382567e-36
-3.409327e-36
-3.429263e-36
-3.440351e-36
-3.442678e-36
-3.435818e-36
-3.420388e-36
-3.397283e-36
-3.369226e-36
-3.341343e-36
-3.323278e-36
-3.328011e-36
-3.346129e-36
-3.369153e-36
-3.415201e-36
-3.441019e-36
-3.395585e-36
-3.286554e-36
-3.75733e-36
-3.688966e-36
-2.850237e-36
-3.611808e-36
-2.989631e-36
-2.8045e-36
-3.230775e-36
-3.322298e-36
-3.535086e-36
-3.396245e-36
-3.375744e-36
-3.366896e-36
-3.349247e-36
-3.326036e-36
-3.327173e-36
-3.348812e-36
-3.377307e-36
-3.403114e-36
-3.422503e-36
-3.433486e-36
-3.435757e-36
-3.429108e-36
-3.414037e-36
-3.391923e-36
-3.365838e-36
-3.341771e-36
-3.331021e-36
-3.335659e-36
-3.356857e-36
-3.369893e-36
-3.409444e-36
-3.430723e-36
-3.385896e-36
-3.273678e-36
-3.736313e-36
-3.646448e-36
-2.686725e-36
-2.376416e-36
-2.852351e-36
-2.580433e-36
-3.202348e-36
-3.319627e-36
-3.512036e-36
-3.37969e-36
-3.368571e-36
-3.370965e-36
-3.371007e-36
-3.343732e-36
-3.33192e-36
-3.342896e-36
-3.365966e-36
-3.389375e-36
-3.407468e-36
-3.418032e-36
-3.420273e-36
-3.413971e-36
-3.399924e-36
-3.37994e-36
-3.357903e-36
-3.341188e-36
-3.342564e-36
-3.35586e-36
-3.365673e-36
-3.37091e-36
-3.396974e-36
-3.408485e-36
-3.368007e-36
-3.270618e-36
-3.722156e-36
-3.741214e-36
-4.03796e-37
-4.198438e-36
-2.459882e-36
-3.186419e-36
-3.357529e-36
-3.485756e-36
-3.381848e-36
-3.35981e-36
-3.375914e-36
-3.381626e-36
-3.363742e-36
-3.33883e-36
-3.336211e-36
-3.350927e-36
-3.369968e-36
-3.38565e-36
-3.394968e-36
-3.397042e-36
-3.391759e-36
-3.379862e-36
-3.363468e-36
-3.347492e-36
-3.342292e-36
-3.350071e-36
-3.370909e-36
-3.374533e-36
-3.373211e-36
-3.398504e-36
-3.388044e-36
-3.365383e-36
-3.555056e-36
-3.93237e-36
-3.31545e-36
-3.966467e-36
-3.194903e-36
-2.942754e-36
-3.307575e-36
-3.395431e-36
-3.435687e-36
-3.354568e-36
-3.371338e-36
-3.3817e-36
-3.378805e-36
-3.3484e-36
-3.333741e-36
-3.337944e-36
-3.349556e-36
-3.360321e-36
-3.367055e-36
-3.368747e-36
-3.36554e-36
-3.35775e-36
-3.347432e-36
-3.339317e-36
-3.345349e-36
-3.362013e-36
-3.374181e-36
-3.376017e-36
-3.386782e-36
-3.331667e-36
-3.397971e-36
-3.359965e-36
-3.680386e-36
-3.792161e-36
-3.200225e-36
-3.751607e-36
-3.009639e-36
-2.791997e-36
-3.274488e-36
-3.298661e-36
-3.435405e-36
-3.369866e-36
-3.363117e-36
-3.378243e-36
-3.380601e-36
-3.362756e-36
-3.343855e-36
-3.338059e-36
-3.337524e-36
-3.338763e-36
-3.339925e-36
-3.340682e-36
-3.341398e-36
-3.341012e-36
-3.342196e-36
-3.345277e-36
-3.35091e-36
-3.369288e-36
-3.37454e-36
-3.374868e-36
-3.396222e-36
-3.371238e-36
-3.250647e-36
-3.349348e-36
-3.741083e-36
-3.550498e-36
-2.955567e-36
-2.364409e-36
-2.976338e-36
-2.697603e-36
-3.183278e-36
-3.323746e-36
-3.42564e-36
-3.433195e-36
-3.380042e-36
-3.369931e-36
-3.374405e-36
-3.372821e-36
-3.362169e-36
-3.35853e-36
-3.344622e-36
-3.333167e-36
-3.324505e-36
-3.322638e-36
-3.330672e-36
-3.342446e-36
-3.350015e-36
-3.361871e-36
-3.369121e-36
-3.369233e-36