/*--------------------------------*- C++ -*----------------------------------*\
  =========                 |
  \\      /  F ield         | OpenFOAM: The Open Source CFD Toolbox
   \\    /   O peration     | Website:  https://openfoam.org
    \\  /    A nd           | Version:  6
     \\/     M anipulation  |
\*---------------------------------------------------------------------------*/
FoamFile
{
    version     2.0;
    format      ascii;
    class       volScalarField;
    location    "49.8/region0/neutronTransport";
    object      flux7;
}
// * * * * * * * * * * * * * * * * * * * * * * * * * * * * * * * * * * * * * //

dimensions      [0 -2 -1 0 0 0 0];

internalField   nonuniform List<scalar> 
203709
(
6.166904
16.44508
15.41726
6.166904
4.111269
15.41726
47.2796
40.08488
39.05706
48.30742
14.38944
7.194722
5.139087
13.36163
46.25178
37.00142
34.94579
37.00142
37.00142
37.00142
37.00142
48.30742
13.36163
7.194722
5.139087
47.2796
38.02924
35.97361
35.97361
32.89016
34.94579
35.97361
32.89016
35.97361
37.00142
40.08488
48.30742
8.222539
14.38944
39.05706
33.91797
37.00142
35.97361
33.91797
35.97361
34.94579
33.91797
38.02924
35.97361
34.94579
41.11269
18.50071
4.111269
46.25178
35.97361
37.00142
35.97361
34.94579
33.91797
34.94579
34.94579
33.91797
34.94579
34.94579
37.00142
37.00142
51.39087
8.222539
14.38944
37.00142
34.94579
35.97361
34.94579
33.91797
34.94579
33.91797
33.91797
34.94579
33.91797
33.91797
37.00142
37.00142
39.05706
18.50071
5.139087
46.25178
33.91797
33.91797
32.89016
32.89016
34.94579
31.86234
31.86234
32.89016
30.83452
34.94579
33.91797
33.91797
34.94579
37.00142
51.39087
9.250356
16.44508
40.08488
38.02924
34.94579
33.91797
33.91797
33.91797
31.86234
32.89016
33.91797
32.89016
33.91797
34.94579
34.94579
35.97361
37.00142
41.11269
21.58416
14.38944
38.02924
38.02924
35.97361
34.94579
33.91797
33.91797
31.86234
33.91797
32.89016
30.83452
33.91797
34.94579
34.94579
35.97361
38.02924
41.11269
22.61198
7.194722
47.2796
34.94579
34.94579
32.89016
34.94579
34.94579
31.86234
32.89016
31.86234
31.86234
34.94579
33.91797
33.91797
34.94579
34.94579
49.33523
12.33381
14.38944
38.02924
35.97361
37.00142
33.91797
33.91797
34.94579
34.94579
33.91797
34.94579
33.91797
33.91797
35.97361
37.00142
38.02924
18.50071
7.194722
48.30742
35.97361
35.97361
35.97361
33.91797
34.94579
34.94579
33.91797
33.91797
34.94579
34.94579
37.00142
37.00142
48.30742
12.33381
13.36163
40.08488
34.94579
35.97361
37.00142
34.94579
34.94579
34.94579
33.91797
35.97361
35.97361
34.94579
40.08488
18.50071
7.194722
48.30742
41.11269
37.00142
37.00142
34.94579
37.00142
37.00142
35.97361
37.00142
37.00142
40.08488
50.36305
12.33381
8.222539
17.4729
51.39087
39.05706
35.97361
38.02924
37.00142
34.94579
37.00142
48.30742
18.50071
12.33381
8.222539
18.50071
49.33523
41.11269
42.14051
50.36305
18.50071
12.33381
9.250356
21.58416
22.61198
13.36163
5.139087
11.30599
11.30599
13.36163
13.36163
12.33381
13.36163
11.30599
12.33381
7.194722
5.139087
14.38944
44.19615
38.02924
37.00142
37.00142
38.02924
37.00142
37.00142
37.00142
38.02924
46.25178
14.38944
7.194722
4.111269
42.14051
35.97361
34.94579
35.97361
32.89016
56.52995
69.89158
68.86376
58.58559
32.89016
35.97361
34.94579
34.94579
43.16833
6.166904
4.111269
42.14051
33.91797
33.91797
31.86234
57.55777
114.0877
9.507697e+14
1.227938e+15
1.223183e+15
1.05643e+15
136.6997
62.69686
32.89016
34.94579
34.94579
45.22396
6.166904
4.111269
42.14051
33.91797
32.89016
58.58559
117.1712
9.829807e+14
1.393881e+15
1.736935e+15
2.059079e+15
2.087491e+15
1.786376e+15
1.403953e+15
1.095699e+15
138.7553
60.64122
31.86234
35.97361
44.19615
6.166904
4.111269
43.16833
33.91797
31.86234
89.42011
9.809892e+14
1.39465e+15
1.761319e+15
2.141541e+15
2.295639e+15
2.416177e+15
2.434786e+15
2.367357e+15
2.20424e+15
1.816353e+15
1.404436e+15
1.092858e+15
113.0599
31.86234
35.97361
44.19615
7.194722
14.38944
34.94579
34.94579
58.58559
9.809116e+14
1.715261e+15
2.129034e+15
2.303915e+15
2.453383e+15
2.522994e+15
2.564362e+15
2.57324e+15
2.551229e+15
2.492105e+15
2.379828e+15
2.183688e+15
1.759001e+15
1.135036e+15
80.16975
35.97361
38.02924
17.4729
5.139087
43.16833
34.94579
31.86234
116.1434
1.394877e+15
2.129079e+15
2.405687e+15
2.515465e+15
2.579517e+15
2.613212e+15
2.630836e+15
2.634372e+15
2.62418e+15
2.597766e+15
2.546343e+15
2.444238e+15
2.222526e+15
1.613464e+15
146.9779
31.86234
34.94579
48.30742
8.222539
11.30599
37.00142
34.94579
58.58559
9.833003e+14
1.761749e+15
2.304115e+15
2.515545e+15
2.595925e+15
2.633796e+15
2.652581e+15
2.661304e+15
2.662674e+15
2.656904e+15
2.641973e+15
2.611104e+15
2.545494e+15
2.386286e+15
1.895569e+15
1.153882e+15
80.16975
34.94579
40.08488
16.44508
11.30599
37.00142
32.89016
115.1155
1.394347e+15
2.141895e+15
2.453599e+15
2.57964e+15
2.633876e+15
2.658909e+15
2.67079e+15
2.676342e+15
2.677075e+15
2.672981e+15
2.662981e+15
2.642248e+15
2.598788e+15
2.500272e+15
2.260946e+15
1.620027e+15
146.9779
32.89016
39.05706
17.4729
14.38944
35.97361
57.55777
9.507557e+14
1.737243e+15
2.295925e+15
2.523181e+15
2.613333e+15
2.652699e+15
2.670879e+15
2.679631e+15
2.683733e+15
2.683988e+15
2.680675e+15
2.673168e+15
2.657409e+15
2.625166e+15
2.554107e+15
2.382149e+15
1.873919e+15
1.124692e+15
76.05848
39.05706
19.52853
12.33381
38.02924
69.89158
1.227905e+15
2.059186e+15
2.416346e+15
2.56448e+15
2.630939e+15
2.661446e+15
2.676498e+15
2.683844e+15
2.686815e+15
2.686866e+15
2.684206e+15
2.677781e+15
2.663792e+15
2.636877e+15
2.579751e+15
2.456104e+15
2.174608e+15
1.471879e+15
94.5592
39.05706
18.50071
12.33381
38.02924
69.89158
1.222819e+15
2.087297e+15
2.434765e+15
2.573288e+15
2.634447e+15
2.66278e+15
2.677204e+15
2.684177e+15
2.687209e+15
2.68707e+15
2.684265e+15
2.677557e+15
2.663223e+15
2.635272e+15
2.575527e+15
2.447553e+15
2.160096e+15
1.511113e+15
95.58701
39.05706
18.50071
13.36163
35.97361
58.58559
1.056682e+15
1.785983e+15
2.367236e+15
2.551224e+15
2.624183e+15
2.656949e+15
2.673053e+15
2.680806e+15
2.684416e+15
2.68433e+15
2.680841e+15
2.67247e+15
2.655699e+15
2.620586e+15
2.542576e+15
2.357554e+15
1.824125e+15
1.346075e+15
85.30884
38.02924
18.50071
11.30599
37.00142
31.86234
136.6997
1.403756e+15
2.204193e+15
2.492006e+15
2.597673e+15
2.641942e+15
2.663047e+15
2.673301e+15
2.677961e+15
2.677638e+15
2.672537e+15
2.661457e+15
2.638929e+15
2.590892e+15
2.482638e+15
2.226125e+15
1.624866e+15
178.8402
31.86234
39.05706
17.4729
11.30599
37.00142
35.97361
61.66904
1.096212e+15
1.816741e+15
2.379941e+15
2.546346e+15
2.611082e+15
2.642333e+15
2.657557e+15
2.663851e+15
2.663176e+15
2.655799e+15
2.639029e+15
2.605274e+15
2.535284e+15
2.36394e+15
1.842599e+15
1.370596e+15
90.44793
37.00142
40.08488
17.4729
7.194722
46.25178
34.94579
31.86234
137.7275
1.404756e+15
2.183986e+15
2.444319e+15
2.545555e+15
2.59894e+15
2.625291e+15
2.636447e+15
2.634644e+15
2.620586e+15
2.590989e+15
2.535308e+15
2.436781e+15
2.208918e+15
1.623596e+15
182.9515
33.91797
34.94579
46.25178
11.30599
14.38944
38.02924
34.94579
61.66904
1.093195e+15
1.759346e+15
2.22264e+15
2.386462e+15
2.500518e+15
2.554269e+15
2.579032e+15
2.574733e+15
2.542608e+15
2.482681e+15
2.363962e+15
2.209033e+15
1.79738e+15
1.369738e+15
88.39229
35.97361
34.94579
18.50071
7.194722
45.22396
37.00142
32.89016
113.0599
1.135358e+15
1.613611e+15
1.895861e+15
2.261375e+15
2.382399e+15
2.455529e+15
2.446917e+15
2.357606e+15
2.226137e+15
1.842692e+15
1.623949e+15
1.370051e+15
153.1448
33.91797
35.97361
45.22396
12.33381
6.166904
44.19615
35.97361
32.89016
81.19757
146.9779
1.154108e+15
1.620833e+15
1.873994e+15
2.173754e+15
2.159425e+15
1.824204e+15
1.624747e+15
1.370507e+15
182.9515
89.42011
32.89016
35.97361
44.19615
9.250356
5.139087
46.25178
35.97361
35.97361
31.86234
80.16975
144.9222
1.124563e+15
1.47129e+15
1.51106e+15
1.345743e+15
179.868
90.44793
32.89016
35.97361
35.97361
44.19615
9.250356
6.166904
45.22396
39.05706
34.94579
34.94579
31.86234
77.0863
95.58701
96.61483
85.30884
33.91797
35.97361
34.94579
37.00142
45.22396
9.250356
7.194722
17.4729
48.30742
39.05706
39.05706
39.05706
41.11269
40.08488
38.02924
38.02924
40.08488
47.2796
17.4729
11.30599
7.194722
16.44508
17.4729
20.55635
18.50071
18.50071
20.55635
17.4729
17.4729
12.33381
3.083452
12.33381
12.33381
11.30599
11.30599
12.33381
13.36163
5.139087
3.083452
12.33381
12.33381
44.19615
39.05706
39.05706
38.02924
37.00142
39.05706
39.05706
47.2796
12.33381
13.36163
5.139087
3.083452
46.25178
32.89016
57.55777
71.94722
71.94722
72.97503
71.94722
71.94722
71.94722
72.97503
70.9194
58.58559
33.91797
45.22396
6.166904
6.166904
12.33381
39.05706
59.61341
117.1712
1.005632e+15
1.293625e+15
1.311617e+15
1.309036e+15
1.306279e+15
1.305003e+15
1.304331e+15
1.301705e+15
1.281784e+15
1.114557e+15
139.7832
63.72468
41.11269
13.36163
7.194722
6.166904
44.19615
32.89016
94.5592
1.038046e+15
1.472688e+15
1.84984e+15
2.200294e+15
2.319189e+15
2.360822e+15
2.368745e+15
2.36589e+15
2.352075e+15
2.311282e+15
2.222857e+15
1.894643e+15
1.481762e+15
1.159776e+15
119.2268
33.91797
44.19615
8.222539
5.139087
43.16833
33.91797
98.67047
1.140672e+15
1.837185e+15
2.257375e+15
2.453856e+15
2.631286e+15
2.738192e+15
2.839762e+15
2.860496e+15
2.856646e+15
2.829032e+15
2.722415e+15
2.641664e+15
2.514042e+15
2.306322e+15
1.882811e+15
1.279403e+15
125.3937
33.91797
45.22396
8.222539
12.33381
33.91797
100.7261
1.144385e+15
1.863559e+15
2.339075e+15
2.624537e+15
2.787923e+15
2.958217e+15
3.096105e+15
3.51367e+15
3.621304e+15
3.62872e+15
3.573153e+15
3.110116e+15
2.96239e+15
2.79629e+15
2.65265e+15
2.429152e+15
1.939156e+15
1.28702e+15
126.4215
34.94579
16.44508
5.139087
39.05706
95.58701
1.141075e+15
1.863455e+15
2.356124e+15
2.688991e+15
2.933209e+15
3.11188e+15
3.564147e+15
3.733662e+15
3.874785e+15
4e+15
4.027573e+15
3.982565e+15
3.801567e+15
3.643247e+15
3.1379e+15
2.947435e+15
2.718108e+15
2.452942e+15
1.942336e+15
1.286635e+15
121.2824
42.14051
6.166904
3.083452
43.16833
59.61341
1.037563e+15
1.837564e+15
2.339511e+15
2.689334e+15
3.014085e+15
3.535846e+15
3.733433e+15
3.897466e+15
4.054773e+15
4.141451e+15
4.205243e+15
4.224813e+15
4.204532e+15
4.128456e+15
4.021539e+15
3.806742e+15
3.614799e+15
3.044794e+15
2.721038e+15
2.438751e+15
1.91452e+15
1.209789e+15
82.22539
46.25178
7.194722
13.36163
32.89016
118.199
1.472929e+15
2.257539e+15
2.62494e+15
2.933444e+15
3.535739e+15
3.844071e+15
4.04146e+15
4.148821e+15
4.233104e+15
4.282072e+15
4.312401e+15
4.322143e+15
4.312161e+15
4.278386e+15
4.221824e+15
4.118511e+15
3.976455e+15
3.669418e+15
2.963488e+15
2.667104e+15
2.358098e+15
1.701459e+15
151.0892
34.94579
16.44508
12.33381
57.55777
1.004156e+15
1.850133e+15
2.454091e+15
2.788233e+15
3.111931e+15
3.733443e+15
4.041465e+15
4.197663e+15
4.276306e+15
4.324876e+15
4.352932e+15
4.368398e+15
4.372737e+15
4.366355e+15
4.347725e+15
4.314253e+15
4.25501e+15
4.154169e+15
3.938262e+15
3.178015e+15
2.809319e+15
2.529522e+15
1.986308e+15
1.190807e+15
80.16975
17.4729
3.083452
46.25178
70.9194
1.292209e+15
2.200056e+15
2.631387e+15
2.95842e+15
3.56433e+15
3.897675e+15
4.148943e+15
4.27637e+15
4.338172e+15
4.371055e+15
4.388771e+15
4.39758e+15
4.399486e+15
4.394873e+15
4.382596e+15
4.359661e+15
4.318755e+15
4.243473e+15
4.091374e+15
3.721609e+15
2.988229e+15
2.666854e+15
2.315237e+15
1.549285e+15
98.67047
49.33523
5.139087
12.33381
39.05706
72.97503
1.310791e+15
2.318755e+15
2.738094e+15
3.096005e+15
3.733799e+15
4.054962e+15
4.233245e+15
4.324969e+15
4.371101e+15
4.39497e+15
4.407482e+15
4.413472e+15
4.414366e+15
4.410484e+15
4.401185e+15
4.383881e+15
4.353105e+15
4.297623e+15
4.189151e+15
3.948328e+15
3.160583e+15
2.752626e+15
2.396514e+15
1.611241e+15
100.7261
42.14051
18.50071
12.33381
40.08488
71.94722
1.308608e+15
2.360445e+15
2.839635e+15
3.513547e+15
3.874865e+15
4.141614e+15
4.282188e+15
4.353019e+15
4.388848e+15
4.407533e+15
4.417247e+15
4.421681e+15
4.422068e+15
4.418758e+15
4.41097e+15
4.396706e+15
4.371457e+15
4.326501e+15
4.241786e+15
4.071158e+15
3.66858e+15
2.869269e+15
2.438534e+15
1.625208e+15
100.7261
41.11269
18.50071
11.30599
35.97361
71.94722
1.306087e+15
2.368536e+15
2.860349e+15
3.621233e+15
4.00004e+15
4.205339e+15
4.312483e+15
4.368479e+15
4.397668e+15
4.413558e+15
4.421743e+15
4.425451e+15
4.425546e+15
4.422559e+15
4.415373e+15
4.40242e+15
4.379864e+15
4.340377e+15
4.270354e+15
4.135365e+15
3.835225e+15
2.919125e+15
2.457006e+15
1.630747e+15
100.7261
40.08488
17.4729
10.27817
38.02924
71.94722
1.304959e+15
2.365881e+15
2.856603e+15
3.62855e+15
4.027451e+15
4.224803e+15
4.322179e+15
4.372791e+15
4.399558e+15
4.414448e+15
4.422171e+15
4.425665e+15
4.425601e+15
4.422554e+15
4.415309e+15
4.402329e+15
4.379751e+15
4.340411e+15
4.271681e+15
4.140169e+15
3.857603e+15
2.932451e+15
2.462243e+15
1.633282e+15
100.7261
40.08488
16.44508
12.33381
39.05706
72.97503
1.304333e+15
2.352074e+15
2.829004e+15
3.57328e+15
3.982455e+15
4.204486e+15
4.312148e+15
4.366365e+15
4.394914e+15
4.410545e+15
4.418842e+15
4.422664e+15
4.422594e+15
4.41892e+15
4.410928e+15
4.396604e+15
4.371395e+15
4.327122e+15
4.246809e+15
4.099252e+15
3.765457e+15
2.917768e+15
2.455593e+15
1.634181e+15
99.69828
41.11269
17.4729
12.33381
38.02924
71.94722
1.301658e+15
2.311006e+15
2.722206e+15
3.110168e+15
3.80162e+15
4.128453e+15
4.278343e+15
4.347693e+15
4.382601e+15
4.40123e+15
4.411052e+15
4.415456e+15
4.415353e+15
4.410963e+15
4.401465e+15
4.384188e+15
4.353844e+15
4.299433e+15
4.191822e+15
3.961832e+15
3.195555e+15
2.790412e+15
2.411085e+15
1.63054e+15
100.7261
41.11269
18.50071
5.139087
46.25178
71.94722
1.281853e+15
2.222414e+15
2.641548e+15
2.962451e+15
3.643478e+15
4.021707e+15
4.221909e+15
4.314275e+15
4.359672e+15
4.383938e+15
4.396774e+15
4.402393e+15
4.402289e+15
4.396637e+15
4.384226e+15
4.362025e+15
4.323609e+15
4.253229e+15
4.119076e+15
3.809058e+15
3.036008e+15
2.684563e+15
2.30849e+15
1.607634e+15
98.67047
47.2796
11.30599
12.33381
58.58559
1.114818e+15
1.8941e+15
2.514039e+15
2.796249e+15
3.137751e+15
3.806882e+15
4.11863e+15
4.255066e+15
4.318812e+15
4.353191e+15
4.371469e+15
4.379487e+15
4.379423e+15
4.371353e+15
4.35387e+15
4.323625e+15
4.272359e+15
4.176139e+15
3.960001e+15
3.211312e+15
2.840743e+15
2.527504e+15
1.945164e+15
1.423024e+15
88.39229
16.44508
12.33381
32.89016
140.811
1.481174e+15
2.306626e+15
2.652755e+15
2.947196e+15
3.614836e+15
3.97654e+15
4.154252e+15
4.243591e+15
4.297768e+15
4.326553e+15
4.339928e+15
4.340022e+15
4.327062e+15
4.299434e+15
4.253266e+15
4.176193e+15
4.062685e+15
3.78092e+15
3.013471e+15
2.679227e+15
2.346063e+15
1.715256e+15
185.0071
37.00142
17.4729
5.139087
45.22396
62.69686
1.159166e+15
1.883219e+15
2.429197e+15
2.717612e+15
3.04441e+15
3.669492e+15
3.938376e+15
4.091537e+15
4.189333e+15
4.241835e+15
4.269862e+15
4.271294e+15
4.246781e+15
4.191817e+15
4.119104e+15
3.960117e+15
3.781002e+15
3.122993e+15
2.755522e+15
2.431566e+15
1.923331e+15
1.44605e+15
91.47575
48.30742
10.27817
6.166904
40.08488
118.199
1.278977e+15
1.938986e+15
2.452329e+15
2.720602e+15
2.963404e+15
3.178044e+15
3.72167e+15
3.948468e+15
4.071095e+15
4.134864e+15
4.139867e+15
4.09927e+15
3.961835e+15
3.808977e+15
3.211251e+15
3.013416e+15
2.755559e+15
2.451895e+15
1.946959e+15
1.500917e+15
161.3673
41.11269
9.250356
12.33381
32.89016
125.3937
1.287459e+15
1.941854e+15
2.438729e+15
2.66718e+15
2.809333e+15
2.988203e+15
3.160533e+15
3.668438e+15
3.834953e+15
3.857529e+15
3.765508e+15
3.195725e+15
3.035908e+15
2.84072e+15
2.679415e+15
2.431918e+15
1.946919e+15
1.503762e+15
166.5064
33.91797
16.44508
8.222539
45.22396
33.91797
128.4772
1.286839e+15
1.915056e+15
2.358274e+15
2.52953e+15
2.666811e+15
2.752509e+15
2.869098e+15
2.918663e+15
2.931892e+15
2.917794e+15
2.790641e+15
2.684684e+15
2.527677e+15
2.3464e+15
1.924221e+15
1.501317e+15
168.562
35.97361
47.2796
12.33381
8.222539
46.25178
33.91797
120.2546
1.209974e+15
1.701309e+15
1.986116e+15
2.314702e+15
2.395766e+15
2.437936e+15
2.456239e+15
2.461183e+15
2.455536e+15
2.411503e+15
2.308915e+15
1.944963e+15
1.714536e+15
1.445675e+15
160.3395
34.94579
47.2796
11.30599
9.250356
17.4729
42.14051
82.22539
151.0892
1.190047e+15
1.547895e+15
1.609699e+15
1.624175e+15
1.631232e+15
1.632815e+15
1.634192e+15
1.631248e+15
1.6089e+15
1.424755e+15
185.0071
92.50356
41.11269
17.4729
13.36163
6.166904
46.25178
34.94579
79.14194
98.67047
100.7261
100.7261
101.7539
101.7539
99.69828
100.7261
98.67047
89.42011
35.97361
47.2796
9.250356
6.166904
16.44508
16.44508
48.30742
42.14051
40.08488
39.05706
40.08488
40.08488
40.08488
48.30742
15.41726
18.50071
10.27817
6.166904
17.4729
16.44508
17.4729
17.4729
17.4729
18.50071
11.30599
4.111269
11.30599
13.36163
13.36163
11.30599
5.139087
3.083452
11.30599
10.27817
25.69543
79.14194
77.0863
79.14194
78.11412
77.0863
79.14194
27.75107
10.27817
11.30599
4.111269
5.139087
12.33381
62.69686
83.25321
125.3937
1.062044e+15
1.372479e+15
1.387051e+15
1.382374e+15
1.380205e+15
1.379597e+15
1.370484e+15
1.183302e+15
149.0335
83.25321
67.83595
9.250356
5.139087
4.111269
41.11269
100.7261
1.078451e+15
1.416311e+15
1.588983e+15
1.956193e+15
2.31011e+15
2.414666e+15
2.438506e+15
2.437929e+15
2.416715e+15
2.339597e+15
2.011394e+15
1.593977e+15
1.402305e+15
1.19203e+15
124.3659
41.11269
6.166904
1.027817
67.83595
129.505
1.2135e+15
1.95309e+15
2.390211e+15
2.626866e+15
2.74101e+15
2.873664e+15
2.932411e+15
2.952873e+15
2.954003e+15
2.939382e+15
2.898805e+15
2.807765e+15
2.646009e+15
2.394863e+15
1.98507e+15
1.343362e+15
157.2561
69.89158
3.083452
2.055635
102.7817
1.123913e+15
1.586357e+15
2.05391e+15
2.615654e+15
2.962111e+15
3.483944e+15
3.640008e+15
3.699573e+15
3.723791e+15
3.73207e+15
3.732196e+15
3.72581e+15
3.709137e+15
3.668819e+15
3.560851e+15
3.005962e+15
2.708097e+15
2.11998e+15
1.587348e+15
1.250179e+15
123.3381
2.055635
2.055635
101.7539
1.236879e+15
1.978347e+15
2.465411e+15
2.834447e+15
3.470606e+15
3.729523e+15
3.922483e+15
4.075163e+15
4.139659e+15
4.164389e+15
4.171577e+15
4.171847e+15
4.167187e+15
4.152551e+15
4.118308e+15
4.038689e+15
3.816332e+15
3.590349e+15
2.927127e+15
2.494328e+15
1.999667e+15
1.380346e+15
127.4494
3.083452
3.083452
66.80813
1.124681e+15
1.978359e+15
2.528693e+15
2.968947e+15
3.566495e+15
3.889458e+15
4.100754e+15
4.2172e+15
4.302786e+15
4.349346e+15
4.378634e+15
4.387615e+15
4.388946e+15
4.385383e+15
4.364144e+15
4.336931e+15
4.287752e+15
4.18517e+15
4.038696e+15
3.721555e+15
3.026874e+15
2.595077e+15
2.028415e+15
1.304261e+15
87.36448
5.139087
4.111269
39.05706
130.5328
1.586309e+15
2.465099e+15
2.969048e+15
3.59657e+15
3.920833e+15
4.152471e+15
4.295491e+15
4.376596e+15
4.438227e+15
4.480632e+15
4.566185e+15
4.600904e+15
4.609839e+15
4.604682e+15
4.518111e+15
4.471259e+15
4.420995e+15
4.358234e+15
4.264682e+15
4.092056e+15
3.749927e+15
3.036026e+15
2.544714e+15
1.80532e+15
164.4508
43.16833
7.194722
10.27817
99.69828
1.21168e+15
2.054094e+15
2.834474e+15
3.566723e+15
3.920897e+15
4.161241e+15
4.316448e+15
4.420444e+15
4.48775e+15
4.590969e+15
4.645693e+15
4.694548e+15
4.732313e+15
4.746772e+15
4.742592e+15
4.694787e+15
4.651197e+15
4.542613e+15
4.473023e+15
4.394064e+15
4.285221e+15
4.096547e+15
3.730217e+15
2.941779e+15
2.183974e+15
1.368087e+15
127.4494
13.36163
4.111269
63.72468
1.07668e+15
1.952017e+15
2.615953e+15
3.470546e+15
3.889688e+15
4.152737e+15
4.316606e+15
4.436426e+15
4.572174e+15
4.644275e+15
4.704977e+15
4.754843e+15
4.788866e+15
4.814008e+15
4.825033e+15
4.822743e+15
4.7997e+15
4.768906e+15
4.704493e+15
4.6458e+15
4.515512e+15
4.405942e+15
4.281057e+15
4.072204e+15
3.658773e+15
2.74907e+15
2.030175e+15
1.262307e+15
88.39229
6.166904
12.33381
83.25321
1.414778e+15
2.389787e+15
2.962083e+15
3.729492e+15
4.100838e+15
4.295724e+15
4.420576e+15
4.572163e+15
4.678115e+15
4.747312e+15
4.79182e+15
4.825743e+15
4.847889e+15
4.862434e+15
4.868792e+15
4.867188e+15
4.855585e+15
4.836469e+15
4.801521e+15
4.759842e+15
4.675521e+15
4.510186e+15
4.389734e+15
4.241725e+15
3.963071e+15
3.070281e+15
2.483779e+15
1.664044e+15
114.0877
16.44508
10.27817
125.3937
1.5881e+15
2.627077e+15
3.483325e+15
3.922481e+15
4.217303e+15
4.376775e+15
4.487808e+15
4.644279e+15
4.747313e+15
4.809068e+15
4.844642e+15
4.867598e+15
4.881805e+15
4.890213e+15
4.893526e+15
4.891989e+15
4.884991e+15
4.872519e+15
4.851521e+15
4.821787e+15
4.765289e+15
4.58799e+15
4.458446e+15
4.332596e+15
4.131757e+15
3.667755e+15
2.723371e+15
1.88005e+15
164.4508
15.41726
25.69543
1.062929e+15
1.957043e+15
2.741902e+15
3.639659e+15
4.075047e+15
4.302832e+15
4.438322e+15
4.591031e+15
4.705037e+15
4.791861e+15
4.844665e+15
4.87402e+15
4.890918e+15
4.900624e+15
4.905837e+15
4.907558e+15
4.906073e+15
4.901079e+15
4.891981e+15
4.877056e+15
4.854005e+15
4.813419e+15
4.708849e+15
4.528971e+15
4.395491e+15
4.227639e+15
3.881808e+15
2.866703e+15
2.126976e+15
1.269611e+15
42.14051
3.083452
78.11412
1.373375e+15
2.31165e+15
2.874711e+15
3.699509e+15
4.139481e+15
4.349296e+15
4.480598e+15
4.645719e+15
4.754901e+15
4.825795e+15
4.867635e+15
4.890936e+15
4.9039e+15
4.911068e+15
4.9147e+15
4.915658e+15
4.914204e+15
4.910171e+15
4.902904e+15
4.891056e+15
4.872496e+15
4.841422e+15
4.775075e+15
4.584317e+15
4.435431e+15
4.27299e+15
3.95834e+15
2.976097e+15
2.446987e+15
1.64309e+15
108.9486
6.166904
11.30599
78.11412
1.38759e+15
2.41589e+15
2.933121e+15
3.723817e+15
4.164235e+15
4.378554e+15
4.566124e+15
4.694556e+15
4.788916e+15
4.847936e+15
4.881842e+15
4.900653e+15
4.911085e+15
4.916775e+15
4.919539e+15
4.920111e+15
4.918732e+15
4.915205e+15
4.908954e+15
4.898771e+15
4.882733e+15
4.85676e+15
4.80913e+15
4.691092e+15
4.483503e+15
4.300632e+15
3.987138e+15
3.022329e+15
2.516001e+15
1.69152e+15
107.9208
16.44508
13.36163
79.14194
1.382328e+15
2.438886e+15
2.953179e+15
3.732114e+15
4.171518e+15
4.387557e+15
4.600868e+15
4.732318e+15
4.814041e+15
4.862469e+15
4.890246e+15
4.905871e+15
4.914729e+15
4.919558e+15
4.921868e+15
4.922234e+15
4.920904e+15
4.917607e+15
4.911849e+15
4.902545e+15
4.887966e+15
4.86527e+15
4.826723e+15
4.742897e+15
4.510392e+15
4.31469e+15
3.998002e+15
3.039663e+15
2.537376e+15
1.708898e+15
109.9765
17.4729
13.36163
78.11412
1.380481e+15
2.438126e+15
2.954215e+15
3.732293e+15
4.171906e+15
4.388956e+15
4.609804e+15
4.746741e+15
4.825034e+15
4.868808e+15
4.893549e+15
4.907586e+15
4.915688e+15
4.920143e+15
4.922264e+15
4.922525e+15
4.921167e+15
4.917892e+15
4.912233e+15
4.903161e+15
4.889093e+15
4.867686e+15
4.832079e+15
4.757875e+15
4.520214e+15
4.318864e+15
3.999109e+15
3.039623e+15
2.537888e+15
1.714192e+15
109.9765
18.50071
11.30599
78.11412
1.380211e+15
2.416877e+15
2.939599e+15
3.725926e+15
4.167217e+15
4.385356e+15
4.6047e+15
4.742573e+15
4.822732e+15
4.867187e+15
4.891996e+15
4.906091e+15
4.914228e+15
4.918761e+15
4.920936e+15
4.921181e+15
4.919667e+15
4.916208e+15
4.910282e+15
4.900844e+15
4.886394e+15
4.86429e+15
4.82825e+15
4.745057e+15
4.516608e+15
4.313984e+15
3.990512e+15
3.020605e+15
2.514558e+15
1.714443e+15
108.9486
18.50071
4.111269
82.22539
1.370317e+15
2.339872e+15
2.899039e+15
3.709204e+15
4.152416e+15
4.364034e+15
4.518128e+15
4.69481e+15
4.799703e+15
4.855577e+15
4.884986e+15
4.901084e+15
4.910188e+15
4.915231e+15
4.917631e+15
4.917905e+15
4.916216e+15
4.912382e+15
4.9058e+15
4.895444e+15
4.879623e+15
4.853562e+15
4.802528e+15
4.6346e+15
4.470247e+15
4.288154e+15
3.964017e+15
2.968478e+15
2.426524e+15
1.702843e+15
107.9208
9.250356
27.75107
1.181219e+15
2.011598e+15
2.80776e+15
3.66882e+15
4.11804e+15
4.336841e+15
4.471251e+15
4.651238e+15
4.768944e+15
4.836492e+15
4.872529e+15
4.891988e+15
4.902921e+15
4.90897e+15
4.911837e+15
4.912217e+15
4.910284e+15
4.905807e+15
4.89818e+15
4.886359e+15
4.868234e+15
4.838329e+15
4.768022e+15
4.576964e+15
4.423762e+15
4.241749e+15
3.904163e+15
2.860015e+15
2.066974e+15
1.495737e+15
47.2796
9.250356
148.0057
1.593955e+15
2.64591e+15
3.561006e+15
4.038403e+15
4.287712e+15
4.420955e+15
4.542553e+15
4.704506e+15
4.801545e+15
4.851539e+15
4.877074e+15
4.891079e+15
4.898767e+15
4.902438e+15
4.903057e+15
4.900813e+15
4.895443e+15
4.886363e+15
4.872138e+15
4.849165e+15
4.802912e+15
4.644069e+15
4.500173e+15
4.357458e+15
4.159872e+15
3.75574e+15
2.7507e+15
1.850195e+15
197.3409
16.44508
11.30599
84.28102
1.401933e+15
2.393759e+15
3.005594e+15
3.815949e+15
4.185199e+15
4.35822e+15
4.472878e+15
4.645737e+15
4.759835e+15
4.821805e+15
4.854039e+15
4.872533e+15
4.882734e+15
4.887825e+15
4.888954e+15
4.886347e+15
4.879612e+15
4.86824e+15
4.849177e+15
4.821502e+15
4.756024e+15
4.568183e+15
4.424317e+15
4.261125e+15
3.972797e+15
3.086611e+15
2.507089e+15
1.729911e+15
114.0877
18.50071
5.139087
67.83595
1.193555e+15
1.983663e+15
2.707075e+15
3.589508e+15
4.038539e+15
4.264567e+15
4.393775e+15
4.515275e+15
4.675474e+15
4.765308e+15
4.813461e+15
4.841463e+15
4.856755e+15
4.865106e+15
4.867537e+15
4.864248e+15
4.853552e+15
4.838331e+15
4.802934e+15
4.756045e+15
4.608251e+15
4.464749e+15
4.320419e+15
4.12527e+15
3.74152e+15
2.757399e+15
2.058098e+15
1.51854e+15
96.61483
9.250356
9.250356
125.3937
1.343652e+15
2.118725e+15
2.926368e+15
3.721232e+15
4.091837e+15
4.284874e+15
4.40571e+15
4.510102e+15
4.587981e+15
4.708859e+15
4.775084e+15
4.809087e+15
4.826546e+15
4.831949e+15
4.828232e+15
4.80253e+15
4.768001e+15
4.644057e+15
4.568196e+15
4.464791e+15
4.335757e+15
4.159195e+15
3.824757e+15
2.98157e+15
2.158164e+15
1.586353e+15
170.6177
12.33381
7.194722
41.11269
157.2561
1.588437e+15
2.494353e+15
3.026602e+15
3.74987e+15
4.096403e+15
4.281042e+15
4.389761e+15
4.458452e+15
4.528975e+15
4.584289e+15
4.691005e+15
4.742724e+15
4.757775e+15
4.745072e+15
4.634652e+15
4.576958e+15
4.500214e+15
4.42444e+15
4.320617e+15
4.159362e+15
3.850707e+15
3.088178e+15
2.572308e+15
1.838612e+15
201.4522
42.14051
10.27817
5.139087
69.89158
1.251757e+15
1.99952e+15
2.594403e+15
3.035879e+15
3.730341e+15
4.072397e+15
4.241803e+15
4.332593e+15
4.395445e+15
4.435323e+15
4.48335e+15
4.509983e+15
4.519851e+15
4.516554e+15
4.470359e+15
4.423861e+15
4.357539e+15
4.261176e+15
4.12535e+15
3.824792e+15
3.088411e+15
2.62804e+15
2.062138e+15
1.553048e+15
96.61483
9.250356
2.055635
126.4215
1.382947e+15
2.027784e+15
2.544839e+15
2.941662e+15
3.658819e+15
3.963015e+15
4.131631e+15
4.227392e+15
4.272703e+15
4.300421e+15
4.314228e+15
4.318373e+15
4.313824e+15
4.288263e+15
4.241959e+15
4.160046e+15
3.972691e+15
3.741204e+15
2.981033e+15
2.572434e+15
2.061598e+15
1.609114e+15
162.3951
5.139087
4.111269
128.4772
1.3058e+15
1.805636e+15
2.183622e+15
2.749017e+15
3.070287e+15
3.667663e+15
3.881608e+15
3.958153e+15
3.987121e+15
3.997898e+15
3.998783e+15
3.990344e+15
3.964018e+15
3.904325e+15
3.756053e+15
3.086611e+15
2.756978e+15
2.157453e+15
1.839337e+15
1.554796e+15
163.423
7.194722
3.083452
88.39229
166.5064
1.368482e+15
2.03011e+15
2.483941e+15
2.723585e+15
2.86738e+15
2.976964e+15
3.023147e+15
3.039593e+15
3.038852e+15
3.020365e+15
2.968174e+15
2.859541e+15
2.750335e+15
2.506941e+15
2.057933e+15
1.587061e+15
201.4522
97.64265
6.166904
5.139087
43.16833
128.4772
1.262251e+15
1.664404e+15
1.879591e+15
2.12756e+15
2.447809e+15
2.516882e+15
2.537382e+15
2.537365e+15
2.514792e+15
2.426883e+15
2.06705e+15
1.850678e+15
1.731812e+15
1.520768e+15
170.6177
43.16833
9.250356
7.194722
12.33381
87.36448
114.0877
164.4508
1.270323e+15
1.643781e+15
1.692339e+15
1.709295e+15
1.714021e+15
1.714838e+15
1.703762e+15
1.497115e+15
197.3409
114.0877
96.61483
14.38944
11.30599
7.194722
16.44508
15.41726
43.16833
108.9486
108.9486
111.0043
111.0043
109.9765
107.9208
47.2796
17.4729
17.4729
9.250356
6.166904
16.44508
18.50071
18.50071
17.4729
10.27817
1.027817
6.166904
23.6398
29.8067
30.83452
30.83452
30.83452
24.66762
7.194722
3.083452
-1.027817
25.69543
31.86234
86.33666
133.6163
1.123673e+15
1.452299e+15
1.479174e+15
1.472513e+15
1.439848e+15
1.240763e+15
157.2561
87.36448
30.83452
25.69543
1.027817
15.41726
128.4772
1.154055e+15
1.468788e+15
1.545216e+15
1.734396e+15
2.125218e+15
2.523836e+15
2.629391e+15
2.632508e+15
2.550882e+15
2.185513e+15
1.735856e+15
1.524266e+15
1.443496e+15
1.259348e+15
149.0335
17.4729
3.083452
42.14051
1.23386e+15
1.724e+15
2.186016e+15
2.586346e+15
2.807749e+15
3.312696e+15
3.499186e+15
3.629209e+15
3.675782e+15
3.681037e+15
3.655141e+15
3.580662e+15
3.402496e+15
2.822207e+15
2.5931e+15
2.201506e+15
1.694741e+15
1.351669e+15
53.4465
4.111269
1.027817
108.9486
1.321973e+15
2.141432e+15
2.724104e+15
3.369938e+15
3.63711e+15
3.766229e+15
3.928955e+15
4.079881e+15
4.156754e+15
4.186301e+15
4.191101e+15
4.178462e+15
4.141002e+15
4.051775e+15
3.834652e+15
3.676963e+15
3.484802e+15
2.760928e+15
2.162087e+15
1.450979e+15
132.5884
3.083452
3.083452
109.9765
1.351252e+15
2.210807e+15
2.82746e+15
3.545947e+15
3.899647e+15
4.114144e+15
4.224674e+15
4.297457e+15
4.367288e+15
4.408763e+15
4.427064e+15
4.430684e+15
4.423508e+15
4.40388e+15
4.363633e+15
4.281276e+15
4.180301e+15
4.045766e+15
3.705485e+15
2.938495e+15
2.273427e+15
1.480204e+15
134.6441
5.139087
2.055635
108.9486
1.359717e+15
2.270422e+15
3.288214e+15
3.703981e+15
3.981145e+15
4.219707e+15
4.3709e+15
4.516307e+15
4.584887e+15
4.622532e+15
4.642637e+15
4.651623e+15
4.6536e+15
4.650438e+15
4.641764e+15
4.624226e+15
4.585521e+15
4.454316e+15
4.34395e+15
4.158632e+15
3.833002e+15
3.453801e+15
2.348513e+15
1.492795e+15
134.6441
3.083452
2.055635
108.9486
1.351215e+15
2.270897e+15
3.322265e+15
3.843853e+15
4.131295e+15
4.305209e+15
4.499866e+15
4.611351e+15
4.693547e+15
4.749488e+15
4.778896e+15
4.792655e+15
4.798142e+15
4.79947e+15
4.798109e+15
4.793271e+15
4.782512e+15
4.758984e+15
4.689286e+15
4.613784e+15
4.439636e+15
4.251815e+15
4.025246e+15
3.539281e+15
2.359849e+15
1.488526e+15
134.6441
3.083452
42.14051
1.322022e+15
2.210445e+15
3.288754e+15
3.843917e+15
4.168821e+15
4.367895e+15
4.546221e+15
4.672462e+15
4.755386e+15
4.807446e+15
4.843071e+15
4.863217e+15
4.8743e+15
4.878743e+15
4.880128e+15
4.879853e+15
4.875466e+15
4.867752e+15
4.852717e+15
4.817752e+15
4.770701e+15
4.67214e+15
4.486295e+15
4.31302e+15
4.055104e+15
3.526349e+15
2.2943e+15
1.476186e+15
58.58559
14.38944
1.234761e+15
2.1411e+15
2.82727e+15
3.703783e+15
4.131183e+15
4.367931e+15
4.564234e+15
4.690562e+15
4.77939e+15
4.837774e+15
4.873014e+15
4.896929e+15
4.912124e+15
4.931638e+15
4.942015e+15
4.945968e+15
4.94629e+15
4.930652e+15
4.918275e+15