/*--------------------------------*- C++ -*----------------------------------*\
  =========                 |
  \\      /  F ield         | OpenFOAM: The Open Source CFD Toolbox
   \\    /   O peration     | Website:  https://openfoam.org
    \\  /    A nd           | Version:  6
     \\/     M anipulation  |
\*---------------------------------------------------------------------------*/
FoamFile
{
    version     2.0;
    format      ascii;
    class       volScalarField;
    location    "49.8/region0/neutronTransport";
    object      flux5;
}
// * * * * * * * * * * * * * * * * * * * * * * * * * * * * * * * * * * * * * //

dimensions      [0 -2 -1 0 0 0 0];

internalField   nonuniform List<scalar> 
203709
(
7261956
9216081
9215804
7267743
7719507
9919836
1.431092e+07
1.407377e+07
1.407386e+07
1.431697e+07
9926986
7726532
7482601
9947539
1.44569e+07
1.42913e+07
1.476613e+07
1.488876e+07
1.489092e+07
1.477281e+07
1.430168e+07
1.44699e+07
9958601
7491262
7482440
1.402339e+07
1.422885e+07
1.483687e+07
1.515114e+07
1.543673e+07
1.556242e+07
1.556563e+07
1.544281e+07
1.516022e+07
1.484802e+07
1.42408e+07
1.40364e+07
7488758
9943818
1.422641e+07
1.4933e+07
1.542132e+07
1.57937e+07
1.606457e+07
1.620004e+07
1.620229e+07
1.606821e+07
1.579951e+07
1.542842e+07
1.49399e+07
1.423293e+07
9947921
7710858
1.444585e+07
1.483146e+07
1.541835e+07
1.59243e+07
1.632099e+07
1.659575e+07
1.673101e+07
1.673181e+07
1.659763e+07
1.632445e+07
1.592724e+07
1.542129e+07
1.483489e+07
1.445036e+07
7712353
9903617
1.427457e+07
1.514066e+07
1.578666e+07
1.631821e+07
1.672792e+07
1.699821e+07
1.712358e+07
1.712359e+07
1.699897e+07
1.67281e+07
1.631878e+07
1.579049e+07
1.514724e+07
1.428293e+07
9910420
7247288
1.428235e+07
1.474385e+07
1.542147e+07
1.605523e+07
1.659046e+07
1.699647e+07
1.724177e+07
1.736458e+07
1.736582e+07
1.724552e+07
1.700101e+07
1.659781e+07
1.606566e+07
1.543438e+07
1.475864e+07
1.429942e+07
7252466
9188004
1.403546e+07
1.485737e+07
1.554105e+07
1.618595e+07
1.672212e+07
1.711895e+07
1.736043e+07
1.749629e+07
1.74916e+07
1.736205e+07
1.712293e+07
1.672925e+07
1.619589e+07
1.555415e+07
1.487466e+07
1.405349e+07
9199478
9187959
1.403668e+07
1.485503e+07
1.55363e+07
1.618273e+07
1.672142e+07
1.711813e+07
1.735892e+07
1.749764e+07
1.749107e+07
1.73568e+07
1.711676e+07
1.67227e+07
1.619052e+07
1.55494e+07
1.487038e+07
1.405186e+07
9199277
7240002
1.427662e+07
1.473607e+07
1.541371e+07
1.604928e+07
1.658732e+07
1.699507e+07
1.724017e+07
1.736041e+07
1.735573e+07
1.723224e+07
1.698735e+07
1.658325e+07
1.605153e+07
1.542143e+07
1.474684e+07
1.428742e+07
7250457
9895269
1.426504e+07
1.51331e+07
1.578251e+07
1.631594e+07
1.672785e+07
1.699837e+07
1.712322e+07
1.711749e+07
1.698941e+07
1.671613e+07
1.63064e+07
1.577752e+07
1.513373e+07
1.427097e+07
9903364
7705296
1.44378e+07
1.48248e+07
1.541491e+07
1.592271e+07
1.632171e+07
1.659497e+07
1.672997e+07
1.672535e+07
1.658725e+07
1.630949e+07
1.591064e+07
1.540552e+07
1.482023e+07
1.443798e+07
7707640
9939872
1.422235e+07
1.493135e+07
1.542126e+07
1.579371e+07
1.606326e+07
1.620345e+07
1.619968e+07
1.605421e+07
1.57809e+07
1.540678e+07
1.491813e+07
1.421403e+07
9936865
7481584
1.402388e+07
1.422814e+07
1.483597e+07
1.514724e+07
1.54294e+07
1.55574e+07
1.555428e+07
1.542066e+07
1.51345e+07
1.482021e+07
1.421173e+07
1.400938e+07
7474675
7483130
9945623
1.445005e+07
1.427803e+07
1.474886e+07
1.486887e+07
1.486794e+07
1.474166e+07
1.42681e+07
1.443528e+07
9932782
7473466
7710615
9903795
1.428371e+07
1.404717e+07
1.404827e+07
1.427791e+07
9897226
7704437
7244848
9186889
9187330
7243634
6078739
7970012
8389383
8659644
8824509
8825137
8661438
8391766
7972878
6082986
6259996
8416156
1.25084e+07
1.288063e+07
1.340791e+07
1.407176e+07
1.460169e+07
1.460308e+07
1.407678e+07
1.341178e+07
1.288135e+07
1.250771e+07
8414858
6259103
6460006
1.223781e+07
1.289682e+07
1.403142e+07
1.522346e+07
1.623334e+07
1.796081e+07
1.928543e+07
1.928717e+07
1.796676e+07
1.623673e+07
1.52256e+07
1.40356e+07
1.290057e+07
1.224417e+07
6461940
6541420
1.246041e+07
1.36524e+07
1.513025e+07
1.670534e+07
1.955114e+07
2.335267e+07
2.955644e+07
3.11151e+07
3.111845e+07
2.956227e+07
2.336194e+07
1.956331e+07
1.671818e+07
1.514198e+07
1.36633e+07
1.246914e+07
6548577
6452993
1.24534e+07
1.380319e+07
1.552971e+07
1.908174e+07
2.3707e+07
3.125079e+07
3.529996e+07
3.833453e+07
4.308081e+07
4.308612e+07
3.835137e+07
3.532263e+07
3.127464e+07
2.373206e+07
1.910238e+07
1.554969e+07
1.3819e+07
1.246683e+07
6461451
6251033
1.222431e+07
1.363971e+07
1.55243e+07
2.071907e+07
3.013792e+07
3.52325e+07
3.945613e+07
4.617923e+07
4.915341e+07
5.092317e+07
5.093099e+07
4.917605e+07
4.621219e+07
3.949377e+07
3.527016e+07
3.016928e+07
2.074397e+07
1.554157e+07
1.365582e+07
1.223903e+07
6259247
8397044
1.287322e+07
1.510927e+07
1.906717e+07
3.012862e+07
3.740207e+07
4.537443e+07
4.970522e+07
5.30925e+07
5.517045e+07
5.623556e+07
5.624382e+07
5.519371e+07
5.312815e+07
4.974766e+07
4.541623e+07
3.743635e+07
3.015431e+07
1.908387e+07
1.51258e+07
1.288789e+07
8407373
6069112
1.247806e+07
1.400179e+07
1.667976e+07
2.368175e+07
3.521954e+07
4.536882e+07
5.126605e+07
5.500265e+07
5.756843e+07
5.919013e+07
5.999337e+07
5.999974e+07
5.920768e+07
5.759542e+07
5.503432e+07
5.129728e+07
4.53961e+07
3.52396e+07
2.369823e+07
1.669325e+07
1.401217e+07
1.24889e+07
6073213
7950769
1.285159e+07
1.518936e+07
1.952048e+07
3.122114e+07
3.943484e+07
4.969137e+07
5.499509e+07
5.835002e+07
6.058812e+07
6.199468e+07
6.268052e+07
6.268386e+07
6.20045e+07
6.060348e+07
5.836779e+07
5.501275e+07
4.970689e+07
3.944721e+07
3.123184e+07
1.952495e+07
1.519699e+07
1.285924e+07
7956108
8366004
1.337693e+07
1.619381e+07
2.330299e+07
3.525534e+07
4.613828e+07
5.30634e+07
5.754921e+07
6.057855e+07
6.26355e+07
6.393373e+07
6.456851e+07
6.456984e+07
6.393827e+07
6.264198e+07
6.058806e+07
5.756334e+07
5.308155e+07
4.615728e+07
3.526751e+07
2.33226e+07
1.621035e+07
1.338748e+07
8374630
8631969
1.403531e+07
1.791908e+07
2.949705e+07
3.82732e+07
4.909271e+07
5.512244e+07
5.915636e+07
6.197391e+07
6.39246e+07
6.515946e+07
6.576606e+07
6.576888e+07
6.516948e+07
6.394076e+07
6.19971e+07
5.918691e+07
5.51575e+07
4.912768e+07
3.830169e+07
2.952616e+07
1.793671e+07
1.405175e+07
8646010
8792465
1.455462e+07
1.922943e+07
3.104193e+07
4.299297e+07
5.083742e+07
5.616583e+07
5.994258e+07
6.264728e+07
6.454863e+07
6.575258e+07
6.634607e+07
6.634459e+07
6.575739e+07
6.455988e+07
6.266702e+07
5.997239e+07
5.620348e+07
5.087909e+07
4.303109e+07
3.10746e+07
1.925509e+07
1.457869e+07
8810445
8790040
1.454822e+07
1.922055e+07
3.103181e+07
4.298427e+07
5.08276e+07
5.615255e+07
5.993221e+07
6.264251e+07
6.454705e+07
6.575064e+07
6.634264e+07
6.633629e+07
6.574367e+07
6.454385e+07
6.265053e+07
5.99568e+07
5.618963e+07
5.086779e+07
4.302205e+07
3.106412e+07
1.924679e+07
1.457296e+07
8807946
8625774
1.40236e+07
1.790705e+07
2.948191e+07
3.824779e+07
4.906547e+07
5.509497e+07
5.913335e+07
6.195896e+07
6.391719e+07
6.515424e+07
6.57559e+07
6.574673e+07
6.513647e+07
6.390185e+07
6.195605e+07
5.914708e+07
5.5122e+07
4.909893e+07
3.828091e+07
2.950918e+07
1.792811e+07
1.404423e+07
8640225
8360066
1.33665e+07
1.618454e+07
2.328868e+07
3.522728e+07
4.610648e+07
5.303227e+07
5.75244e+07
6.056256e+07
6.262833e+07
6.393107e+07
6.456446e+07
6.455551e+07
6.391232e+07
6.260706e+07
6.054811e+07
5.752323e+07
5.304514e+07
4.612879e+07
3.525355e+07
2.330481e+07
1.619717e+07
1.338172e+07
8370168
7946893
1.284567e+07
1.518227e+07
1.950498e+07
3.120302e+07
3.941249e+07
4.966724e+07
5.4976e+07
5.833815e+07
6.058291e+07
6.199122e+07
6.267315e+07
6.266537e+07
6.197352e+07
6.055904e+07
5.831495e+07
5.496048e+07
4.966285e+07
3.941589e+07
3.121189e+07
1.951799e+07
1.519084e+07
1.285556e+07
7953268
6067495
1.247873e+07
1.399927e+07
1.667246e+07
2.367551e+07
3.520811e+07
4.5357e+07
5.125663e+07
5.499657e+07
5.756306e+07
5.918098e+07
5.997203e+07
5.996443e+07
5.916119e+07
5.753475e+07
5.496466e+07
5.122792e+07
4.533641e+07
3.519661e+07
2.367257e+07
1.667732e+07
1.400353e+07
1.248281e+07
6070860
8400553
1.287368e+07
1.51082e+07
1.906515e+07
3.012894e+07
3.740077e+07
4.53712e+07
4.969929e+07
5.30783e+07
5.514519e+07
5.619002e+07
5.618261e+07
5.512382e+07
5.30467e+07
4.966154e+07
4.533479e+07
3.737134e+07
3.010668e+07
1.905575e+07
1.510722e+07
1.287392e+07
8398936
6253760
1.222425e+07
1.364053e+07
1.55236e+07
2.071856e+07
3.013271e+07
3.522376e+07
3.944119e+07
4.614609e+07
4.910562e+07
5.085324e+07
5.084777e+07
4.908592e+07
4.611658e+07
3.940557e+07
3.519158e+07
3.01054e+07
2.069823e+07
1.551078e+07
1.363422e+07
1.222116e+07
6248975
6455813
1.245578e+07
1.380133e+07
1.552196e+07
1.906594e+07
2.368329e+07
3.122046e+07
3.525234e+07
3.827022e+07
4.29904e+07
4.298758e+07
3.825615e+07
3.522997e+07
3.119192e+07
2.3661e+07
1.904772e+07
1.550662e+07
1.378849e+07
1.244607e+07
6449943
6539283
1.245211e+07
1.363752e+07
1.510939e+07
1.667738e+07
1.950757e+07
2.329485e+07
2.94873e+07
3.103045e+07
3.102797e+07
2.947501e+07
2.328079e+07
1.949612e+07
1.666177e+07
1.509428e+07
1.362456e+07
1.244139e+07
6534386
6448641
1.221808e+07
1.286912e+07
1.399447e+07
1.517713e+07
1.618416e+07
1.790587e+07
1.921735e+07
1.921543e+07
1.790001e+07
1.617386e+07
1.516979e+07
1.398775e+07
1.286068e+07
1.220839e+07
6444698
6248521
8394085
1.247135e+07
1.284128e+07
1.336471e+07
1.402257e+07
1.45469e+07
1.454611e+07
1.401934e+07
1.335836e+07
1.283327e+07
1.246673e+07
8390028
6244332
6061922
7940923
8355469
8622436
8785572
8784727
8622835
8355274
7939300
6057181
5136173
6712911
6976560
7069690
7068842
6974061
6706143
5127831
5163810
7216805
8101968
1.180596e+07
1.225179e+07
1.252349e+07
1.264501e+07
1.264415e+07
1.252029e+07
1.224637e+07
1.180545e+07
8103069
7220597
5172504
5904226
1.136712e+07
1.258827e+07
1.447625e+07
1.639814e+07
1.721025e+07
1.770235e+07
1.792772e+07
1.7927e+07
1.770003e+07
1.720637e+07
1.639448e+07
1.447663e+07
1.259055e+07
1.137448e+07
5914716
5406858
7796404
1.228485e+07
1.555162e+07
1.945155e+07
2.596792e+07
2.831765e+07
2.953892e+07
3.03286e+07
3.073268e+07
3.073124e+07
3.032448e+07
2.953269e+07
2.830996e+07
2.596179e+07
1.945114e+07
1.555869e+07
1.228907e+07
7802392
5411242
5475870
1.102012e+07
1.312173e+07
1.796663e+07
2.64985e+07
3.129118e+07
3.530662e+07
4.154444e+07
4.438486e+07
4.604609e+07
4.685909e+07
4.685822e+07
4.604444e+07
4.438391e+07
4.154569e+07
3.531492e+07
3.130079e+07
2.650747e+07
1.79697e+07
1.312892e+07
1.102543e+07
5481048
5400505
1.101894e+07
1.362416e+07
1.882216e+07
2.87941e+07
3.489708e+07
4.290752e+07
4.800571e+07
5.244996e+07
5.577146e+07
5.810801e+07
5.925029e+07
5.925069e+07
5.811104e+07
5.577453e+07
5.245291e+07
4.801102e+07
4.291218e+07
3.490405e+07
2.880226e+07
1.883074e+07
1.362891e+07
1.102429e+07
5406343
7790423
1.311364e+07
1.881707e+07
2.928472e+07
3.619272e+07
4.562659e+07
5.246475e+07
5.803687e+07
6.290852e+07
6.691737e+07
7.007752e+07
7.132983e+07
7.133237e+07
7.008464e+07
6.692972e+07
6.29264e+07
5.805809e+07
5.248402e+07
4.564565e+07
3.620725e+07
2.929225e+07
1.882504e+07
1.3123e+07
7798005
5902803
1.226632e+07
1.794472e+07
2.877873e+07
3.617757e+07
4.642787e+07
5.455594e+07
6.175492e+07
6.802088e+07
7.361836e+07
7.768672e+07
8.061653e+07
8.229216e+07
8.22993e+07
8.063696e+07
7.77184e+07
7.365835e+07
6.806425e+07
6.179611e+07
5.459633e+07
4.64611e+07
3.620428e+07
2.880073e+07
1.796078e+07
1.22791e+07
5908717
5153952
1.134557e+07
1.552362e+07
2.645978e+07
3.486783e+07
4.559913e+07
5.453807e+07
6.312975e+07
7.120253e+07
7.761987e+07
8.29304e+07
8.733365e+07
9.043385e+07
9.211685e+07
9.212818e+07
9.046658e+07
8.738462e+07
8.299362e+07
7.768651e+07
7.126612e+07
6.318931e+07
5.45875e+07
4.563947e+07
3.489816e+07
2.64794e+07
1.554304e+07
1.136296e+07
5161399
7199916
1.25585e+07
1.940662e+07
3.124244e+07
4.284932e+07
5.241117e+07
6.170878e+07
7.11757e+07
7.910523e+07
8.598492e+07
9.152008e+07
9.581501e+07
9.870327e+07
1.001871e+08
1.002005e+08
9.874238e+07
9.58756e+07
9.15941e+07
8.606266e+07
7.917921e+07
7.124177e+07
6.176477e+07
5.245953e+07
4.288848e+07
3.126414e+07
1.943166e+07
1.257902e+07
7212553
8077002
1.443293e+07
2.589299e+07
3.524532e+07
4.792798e+07
5.796158e+07
6.795235e+07
7.757432e+07
8.5966e+07
9.305641e+07
9.852656e+07
1.025522e+08
1.052036e+08
1.065336e+08
1.065453e+08
1.052373e+08
1.026036e+08
9.858831e+07
9.312041e+07
8.602608e+07
7.762701e+07
6.799928e+07
5.800397e+07
4.796787e+07
3.527405e+07
2.593654e+07
1.445973e+07
8094014
5115685
1.176731e+07
1.634082e+07
2.823168e+07
4.14558e+07
5.235506e+07
6.281433e+07
7.3534e+07
8.286718e+07
9.148254e+07
9.850907e+07
1.038175e+08
1.076349e+08
1.101159e+08
1.113453e+08
1.113522e+08
1.101368e+08
1.076668e+08
1.038554e+08
9.85476e+07
9.151781e+07
8.289872e+07
7.356444e+07
6.284574e+07
5.239166e+07
4.149432e+07
2.828026e+07
1.637385e+07
1.17899e+07
5130517
6683605
1.220541e+07
1.715113e+07
2.94501e+07
4.428143e+07
5.566191e+07
6.679971e+07
7.757634e+07
8.724127e+07
9.574941e+07
1.025107e+08
1.076139e+08
1.112724e+08
1.136425e+08
1.148134e+08
1.148171e+08
1.136539e+08
1.112895e+08
1.076368e+08
1.025399e+08
9.578515e+07
8.728197e+07
7.762004e+07
6.684943e+07
5.571102e+07
4.433306e+07
2.950154e+07
1.718415e+07
1.223262e+07
6701509
6949851
1.247648e+07
1.764026e+07
3.023774e+07
4.593044e+07
5.798452e+07
6.994035e+07
8.047704e+07
9.030636e+07
9.860233e+07
1.051318e+08
1.100706e+08
1.13622e+08
1.159241e+08
1.170614e+08
1.170668e+08
1.159415e+08
1.136514e+08
1.101126e+08
1.051856e+08
9.866418e+07
9.037186e+07
8.054305e+07
7.000594e+07
5.804579e+07
4.599623e+07
3.02943e+07
1.767837e+07
1.250573e+07
6965788
7045251
1.260099e+07
1.786647e+07
3.064173e+07
4.673445e+07
5.910844e+07
7.117252e+07
8.212368e+07
9.195154e+07
1.000477e+08
1.064285e+08
1.112741e+08
1.14771e+08
1.170365e+08
1.181535e+08
1.181556e+08
1.170464e+08
1.147918e+08
1.113103e+08
1.064821e+08
1.001142e+08
9.202496e+07
8.219494e+07
7.124144e+07
5.917816e+07
4.680625e+07
3.070018e+07
1.79063e+07
1.263006e+07
7061391
7045824
1.260229e+07
1.786744e+07
3.064284e+07
4.67301e+07
5.909694e+07
7.115867e+07
8.211033e+07
9.19363e+07
1.000261e+08
1.064096e+08
1.112642e+08
1.14768e+08
1.170337e+08
1.18146e+08
1.181402e+08
1.170239e+08
1.147651e+08
1.112823e+08
1.064552e+08
1.000901e+08
9.200412e+07
8.217618e+07
7.122353e+07
5.916399e+07
4.679696e+07
3.069543e+07
1.7905e+07
1.263062e+07
7062981
6953407
1.248232e+07
1.764447e+07
3.024187e+07
4.591966e+07
5.795873e+07
6.990951e+07
8.04397e+07
9.026337e+07
9.855559e+07
1.050898e+08
1.10041e+08
1.13606e+08
1.15914e+08
1.170447e+08
1.170335e+08
1.158903e+08
1.135875e+08
1.100431e+08
1.051174e+08
9.86027e+07
9.031961e+07
8.049811e+07
6.996575e+07
5.801456e+07
4.597121e+07
3.027732e+07
1.767157e+07
1.250316e+07
6966318
6692509
1.221551e+07
1.71584e+07
2.945986e+07
4.427022e+07
5.563539e+07
6.676425e+07
7.752941e+07
8.718645e+07
9.569316e+07
1.024625e+08
1.075804e+08
1.112542e+08
1.136332e+08
1.148015e+08
1.147914e+08
1.136096e+08
1.112292e+08
1.075668e+08
1.024684e+08
9.571928e+07
8.722696e+07
7.757656e+07
6.680903e+07
5.567762e+07
4.430459e+07
2.947424e+07
1.717216e+07
1.222682e+07
6699753
5128531
1.1778e+07
1.635585e+07
2.825219e+07
4.145201e+07
5.233954e+07
6.278326e+07
7.349348e+07
8.281974e+07
9.143528e+07
9.847008e+07
1.03791e+08
1.076188e+08
1.101023e+08
1.113233e+08
1.113138e+08
1.100779e+08
1.075869e+08
1.037616e+08
9.845276e+07
9.143526e+07
8.283643e+07
7.352272e+07
6.281797e+07
5.236844e+07
4.147393e+07
2.82498e+07
1.635993e+07
1.178443e+07
5128667
8086787
1.444838e+07
2.592094e+07
3.524667e+07
4.792785e+07
5.794603e+07
6.793133e+07
7.754845e+07
8.594008e+07
9.303426e+07
9.850874e+07
1.025336e+08
1.051753e+08
1.064847e+08
1.064735e+08
1.051446e+08
1.024897e+08
9.84606e+07
9.299197e+07
8.591123e+07
7.753709e+07
6.793775e+07
5.796197e+07
4.793872e+07
3.52596e+07
2.590723e+07
1.444533e+07
8087245
7204607
1.257042e+07
1.942496e+07
3.125322e+07
4.286006e+07
5.240805e+07
6.170109e+07
7.116696e+07
7.909225e+07
8.596753e+07
9.149533e+07
9.57754e+07
9.864139e+07
1.000945e+08
1.000819e+08
9.860552e+07
9.572218e+07
9.143339e+07
8.590758e+07
7.904233e+07
7.11323e+07
6.168573e+07
5.24022e+07
4.285209e+07
3.125591e+07
1.941516e+07
1.256721e+07
7207429
5152276
1.135849e+07
1.553878e+07
2.647394e+07
3.487779e+07
4.559803e+07
5.453022e+07
6.311625e+07
7.117677e+07
7.758127e+07
8.287593e+07
8.725449e+07
9.032629e+07
9.197755e+07
9.196606e+07
9.029187e+07
8.720202e+07
8.281356e+07
7.752036e+07
7.1123e+07
6.307382e+07
5.450145e+07
4.557705e+07
3.485513e+07
2.646796e+07
1.552707e+07
1.135049e+07
5159372
5899987
1.227556e+07
1.795247e+07
2.877707e+07
3.617509e+07
4.641204e+07
5.452708e+07
6.170546e+07
6.795116e+07
7.352761e+07
7.756889e+07
8.047066e+07
8.211831e+07
8.210966e+07
8.04434e+07
7.752624e+07
7.347696e+07
6.790232e+07
6.166108e+07
5.448932e+07
4.638294e+07
3.615378e+07
2.876287e+07
1.794148e+07
1.226561e+07
5899945
7790066
1.311588e+07
1.881476e+07
2.927241e+07
3.61655e+07
4.558781e+07
5.240303e+07
5.79506e+07
6.279287e+07
6.677586e+07
6.99144e+07
7.114751e+07
7.114089e+07
6.989445e+07
6.674651e+07
6.275976e+07
5.791466e+07
5.236898e+07
4.555761e+07
3.614217e+07
2.92526e+07
1.879774e+07
1.31037e+07
7785039
5402103
1.101767e+07
1.361795e+07
1.880882e+07
2.877188e+07
3.486108e+07
4.283797e+07
4.791361e+07
5.233171e+07
5.563078e+07
5.794937e+07
5.907621e+07
5.907181e+07
5.793862e+07
5.561271e+07
5.230973e+07
4.78916e+07
4.281936e+07
3.484094e+07
2.87522e+07
1.879341e+07
1.360494e+07
1.100634e+07
5398992
5471571
1.101663e+07
1.311159e+07
1.793836e+07
2.644684e+07
3.122032e+07
3.522572e+07
4.143108e+07
4.425011e+07
4.589824e+07
4.670151e+07
4.669843e+07
4.58957e+07
4.424632e+07
4.142323e+07
3.521246e+07
3.12136e+07
2.643938e+07
1.792693e+07
1.30991e+07
1.100511e+07
5466753
5399241
7787817
1.226187e+07
1.551932e+07
1.939554e+07
2.588469e+07
2.821348e+07
2.942193e+07
3.020795e+07
3.062541e+07
3.061996e+07
3.021418e+07
2.943078e+07
2.821965e+07
2.588684e+07
1.939175e+07
1.550969e+07
1.225381e+07
7778349
5394777
5896474
1.134066e+07
1.255114e+07
1.442558e+07
1.63299e+07
1.713249e+07
1.762048e+07
1.784796e+07
1.7842e+07
1.762131e+07
1.713224e+07
1.632765e+07
1.442019e+07
1.254242e+07
1.133423e+07
5889070
5147284
7194756
8071868
1.175753e+07
1.219257e+07
1.246083e+07
1.25913e+07
1.258902e+07
1.245904e+07
1.218843e+07
1.17536e+07
8066601
7187731
5144860
5115032
6676878
6938400
7035172
7034238
6936706
6672847
5105117
4639409
5984159
6189880
6189591
5980454
4638437
4417541
6427422
7445240
8835708
1.266747e+07
1.331538e+07
1.35481e+07
1.354449e+07
1.330638e+07
1.265703e+07
8840629
7453838
6434858
4426540
4456904
6845726
1.156775e+07
1.412413e+07
1.66504e+07
2.213385e+07
2.433938e+07
2.514931e+07
2.553567e+07
2.552945e+07
2.513481e+07
2.433166e+07
2.214357e+07
1.665913e+07
1.413041e+07
1.158027e+07
6857985
4471359
5173620
1.078536e+07
1.484219e+07
2.245846e+07
2.594403e+07
2.939361e+07
3.263621e+07
3.795372e+07
3.995398e+07
4.074161e+07
4.073627e+07
3.994093e+07
3.79416e+07
3.263162e+07
2.939066e+07
2.59489e+07
2.246009e+07
1.486372e+07
1.080247e+07
5190824
5713320
1.252432e+07
1.772135e+07
2.631465e+07
3.201407e+07
3.961205e+07
4.455437e+07
4.830928e+07
5.144543e+07
5.335506e+07
5.423113e+07
5.422586e+07
5.334129e+07
5.142929e+07
4.829899e+07
4.455543e+07
3.962493e+07
3.203347e+07
2.63285e+07
1.774619e+07
1.254169e+07
5727131
6013046
1.414291e+07
2.334755e+07
2.931995e+07
3.538782e+07
4.543882e+07
5.264339e+07
5.855496e+07
6.259613e+07
6.56069e+07
6.754329e+07
6.847757e+07
6.847166e+07
6.752729e+07
6.55861e+07
6.257786e+07
5.854575e+07
5.264794e+07
4.54613e+07
3.541466e+07
2.933763e+07
2.336423e+07
1.415529e+07
6021460
5712237
1.414111e+07
2.464831e+07
3.172093e+07
4.168893e+07
5.007852e+07
5.871741e+07
6.577061e+07
7.163215e+07
7.652151e+07
8.009492e+07
8.237062e+07
8.347279e+07
8.346643e+07
8.235353e+07
8.007295e+07
7.650254e+07
7.162317e+07
6.577264e+07
5.873178e+07
5.009585e+07
4.170625e+07
3.173426e+07
2.464908e+07
1.415079e+07
5719751
5171795
1.251437e+07
2.334395e+07
3.171167e+07
4.289504e+07
5.28307e+07
6.232327e+07
7.059486e+07
7.824318e+07
8.47169e+07
9.00368e+07
9.398122e+07
9.655989e+07
9.781593e+07
9.781058e+07
9.654583e+07
9.396281e+07
9.002005e+07
8.470755e+07
7.824178e+07
7.060339e+07
6.233759e+07
5.28472e+07
4.291085e+07
3.172877e+07
2.335919e+07
1.253128e+07
5181054
4452180
1.077103e+07
1.771166e+07
2.929671e+07
4.166781e+07
5.281767e+07
6.353705e+07
7.294706e+07
8.197926e+07
9.016522e+07
9.707689e+07
1.02725e+08
1.070159e+08
1.098846e+08
1.112448e+08
1.112438e+08
1.098821e+08
1.070138e+08
1.02727e+08
9.708485e+07
9.017744e+07
8.199704e+07
7.296775e+07
6.355753e+07
5.284109e+07
4.169391e+07
2.93238e+07
1.773798e+07
1.079233e+07
4460976
6835477
1.482622e+07
2.62711e+07
3.53631e+07
5.003921e+07
6.228953e+07
7.292564e+07
8.315936e+07
9.273515e+07
1.012832e+08
1.08572e+08
1.145297e+08
1.190428e+08
1.220996e+08
1.236631e+08
1.236683e+08
1.221153e+08
1.190692e+08
1.145658e+08
1.086145e+08
1.013274e+08
9.278054e+07
8.320313e+07
7.296651e+07
6.232884e+07
5.007584e+07
3.539572e+07
2.631285e+07
1.485572e+07
6853745
4413750
1.154139e+07
2.240602e+07
3.196284e+07
4.53859e+07
5.864995e+07
7.053069e+07
8.192523e+07
9.270018e+07
1.026304e+08
1.114906e+08
1.19028e+08
1.252008e+08
1.300116e+08
1.333245e+08
1.350386e+08
1.350516e+08
1.333624e+08
1.300719e+08
1.252776e+08
1.191129e+08
1.115757e+08
1.027119e+08
9.2774e+07
8.199027e+07
7.058725e+07
5.869795e+07
4.54298e+07
3.19981e+07
2.245505e+07
1.157044e+07
4430954
6408396
1.408668e+07
2.587722e+07
3.954181e+07
5.255224e+07
6.566711e+07
7.813646e+07
9.006561e+07
1.012004e+08
1.114428e+08
1.205013e+08
1.283603e+08
1.348315e+08
1.398311e+08
1.432333e+08
1.449715e+08
1.449902e+08
1.432878e+08
1.399156e+08
1.349364e+08
1.284738e+08
1.20613e+08
1.115469e+08
1.012935e+08
9.014758e+07
7.820676e+07
6.572576e+07
5.260827e+07
3.958686e+07
2.592333e+07
1.412029e+07
6429856
7427101
1.660772e+07
2.932399e+07
4.446464e+07
5.842717e+07
7.149324e+07
8.456936e+07
9.693361e+07
1.084455e+08
1.189388e+08
1.283202e+08
1.364671e+08
1.431026e+08
1.481366e+08
1.515191e+08
1.532289e+08
1.532472e+08
1.515719e+08
1.482169e+08
1.432001e+08
1.365705e+08
1.284203e+08
1.19031e+08
1.085297e+08
9.701211e+07
8.464371e+07
7.15612e+07
5.849578e+07
4.451619e+07
2.936576e+07
1.663894e+07
7443149
8814030
2.209174e+07
3.257027e+07
4.820008e+07
6.244269e+07
7.634811e+07
8.985429e+07
1.02546e+08
1.143679e+08
1.250754e+08
1.347556e+08
1.430689e+08
1.497538e+08
1.547576e+08
1.580873e+08
1.597574e+08
1.597695e+08
1.581237e+08
1.548124e+08
1.498187e+08
1.431359e+08
1.348186e+08
1.251343e+08
1.144279e+08
1.026118e+08
8.992753e+07
7.642531e+07
6.252086e+07
4.825999e+07
3.260736e+07
2.210838e+07
8826665
4629019
1.262817e+07
2.429029e+07
3.787026e+07
5.13184e+07
6.543476e+07
7.989528e+07
9.377289e+07
1.068051e+08
1.188417e+08
1.298411e+08
1.397098e+08
1.480623e+08
1.547212e+08
1.596724e+08
1.629503e+08
1.645869e+08
1.645944e+08
1.629722e+08
1.597047e+08
1.54762e+08
1.481119e+08
1.397696e+08
1.299096e+08
1.189174e+08
1.06889e+08
9.386385e+07
7.999301e+07
6.552582e+07
5.138723e+07
3.791352e+07
2.430962e+07
1.264716e+07
4635312
5962067
1.327632e+07
2.509114e+07
3.985898e+07
5.321664e+07
6.736065e+07
8.215391e+07
9.633042e+07
1.096459e+08
1.218568e+08
1.331022e+08
1.430572e+08
1.513953e+08
1.580094e+08
1.629149e+08
1.661561e+08
1.677716e+08
1.677799e+08
1.661816e+08
1.629584e+08
1.580719e+08
1.514751e+08
1.431501e+08
1.332028e+08
1.219606e+08
1.097519e+08
9.64435e+07
8.227518e+07
6.746924e+07
5.330022e+07
3.991411e+07
2.511915e+07
1.329612e+07
5977121
6172019
1.351234e+07
2.547387e+07
4.064522e+07
5.409294e+07
6.829425e+07
8.324918e+07
9.756952e+07
1.109821e+08
1.233845e+08
1.347653e+08
1.447382e+08
1.530518e+08
1.596364e+08
1.645164e+08
1.677351e+08
1.693354e+08
1.693395e+08
1.677501e+08
1.645477e+08
1.596915e+08
1.531325e+08
1.448376e+08
1.348743e+08
1.234923e+08
1.110915e+08
9.769049e+07
8.337905e+07
6.841273e+07
5.418777e+07
4.07135e+07
2.55175e+07
1.353813e+07
6187781
6171365
1.351437e+07
2.548174e+07
4.065064e+07
5.409791e+07
6.829695e+07
8.32462e+07
9.755763e+07
1.109654e+08
1.233674e+08
1.347456e+08
1.447097e+08
1.530234e+08
1.596202e+08
1.645109e+08
1.677319e+08
1.693266e+08
1.693205e+08
1.677209e+08
1.645114e+08
1.596523e+08
1.53094e+08
1.448026e+08
1.348435e+08
1.234643e+08
1.110654e+08
9.766776e+07
8.336167e+07
6.840243e+07
5.418588e+07
4.071763e+07
2.552513e+07
1.354304e+07
6188502
5966967
1.328205e+07
2.509936e+07
3.986955e+07
5.322962e+07
6.736902e+07
8.214713e+07
9.630068e+07
1.096035e+08
1.218082e+08
1.330451e+08
1.429923e+08
1.51333e+08
1.579631e+08
1.628886e+08
1.661412e+08
1.677513e+08
1.677398e+08
1.661169e+08
1.628733e+08
1.579755e+08
1.513778e+08
1.430606e+08
1.331252e+08
1.218927e+08
1.096901e+08
9.638979e+07
8.223247e+07
6.74423e+07
5.329197e+07
3.991847e+07
2.513258e+07
1.33047e+07
5980376
4639359
1.262934e+07
2.429134e+07
3.788179e+07
5.133625e+07
6.545046e+07
7.989085e+07
9.374151e+07
1.067544e+08
1.187764e+08
1.29765e+08
1.39629e+08
1.479895e+08
1.546677e+08
1.596405e+08
1.62932e+08
1.645665e+08
1.64557e+08
1.629096e+08
1.596189e+08
1.546612e+08
1.480065e+08
1.396697e+08
1.298239e+08
1.188471e+08
1.068278e+08
9.381051e+07
7.994783e+07
6.549163e+07
5.137301e+07
3.791224e+07
2.431744e+07
1.264713e+07
4647322
8820357
2.208546e+07
3.258402e+07
4.822245e+07
6.246826e+07
7.635382e+07
8.983827e+07
1.025068e+08
1.1431e+08
1.250055e+08
1.346842e+08
1.430079e+08
1.497092e+08
1.547267e+08
1.580591e+08
1.59717e+08
1.597066e+08
1.580319e+08
1.546921e+08
1.496793e+08
1.429936e+08
1.34692e+08
1.250356e+08
1.143575e+08
1.025608e+08
8.988604e+07
7.638861e+07
6.248595e+07
4.824304e+07
3.260127e+07
2.210989e+07
8827538
7430330
1.661889e+07
2.934276e+07
4.448585e+07
5.845931e+07
7.150985e+07
8.457257e+07
9.691697e+07
1.084131e+08
1.18896e+08
1.282759e+08
1.364275e+08
1.430671e+08
1.480973e+08
1.514638e+08
1.531454e+08
1.531305e+08
1.514228e+08
1.480393e+08
1.43005e+08
1.363748e+08
1.282431e+08
1.188879e+08
1.084262e+08
9.693999e+07
8.459247e+07
7.152413e+07
5.845952e+07
4.449752e+07
2.935166e+07
1.662529e+07
7433973
6417350
1.410211e+07
2.59041e+07
3.956058e+07
5.258077e+07
6.569181e+07
7.815227e+07
9.006449e+07
1.011864e+08
1.1142e+08
1.204699e+08
1.283191e+08
1.347752e+08
1.397502e+08
1.431184e+08
1.448162e+08
1.447979e+08
1.430666e+08
1.396741e+08
1.346881e+08
1.282355e+08
1.204015e+08
1.113741e+08
1.01163e+08
9.005293e+07
7.814272e+07
6.568637e+07
5.257241e+07
3.956661e+07
2.590042e+07
1.410184e+07
6416487
4420709
1.155372e+07
2.243959e+07
3.197538e+07
4.540086e+07
5.867085e+07
7.054559e+07
8.192537e+07
9.268532e+07
1.025979e+08
1.11435e+08
1.189458e+08
1.250867e+08
1.298592e+08
1.331308e+08
1.348046e+08
1.34787e+08
1.330802e+08
1.297836e+08
1.24998e+08
1.18857e+08
1.113557e+08
1.025339e+08
9.263771e+07
8.188887e+07
7.051591e+07
5.865409e+07
4.539132e+07
3.197943e+07
2.241847e+07
1.155304e+07
4418778
6840915
1.483271e+07
2.629369e+07
3.536105e+07
5.00518e+07
6.229433e+07
7.291602e+07
8.312882e+07
9.267639e+07
1.011886e+08
1.084387e+08
1.143553e+08
1.188258e+08
1.21843e+08
1.233737e+08
1.233597e+08
1.218025e+08
1.18765e+08
1.142837e+08
1.083661e+08
1.011211e+08
9.261671e+07
8.307774e+07
7.287257e+07
6.226023e+07
5.002906e+07
3.535555e+07
2.628245e+07
1.482878e+07
6839369
4450832
1.07787e+07
1.771772e+07
2.931749e+07
4.168048e+07
5.281481e+07
6.351618e+07
7.290267e+07
8.190219e+07
9.004572e+07
9.691275e+07
1.025146e+08
1.067638e+08
1.095997e+08
1.109369e+08
1.109267e+08
1.095707e+08
1.067204e+08
1.024633e+08
9.685889e+07
8.999339e+07
8.185152e+07
7.285508e+07
6.34727e+07
5.277645e+07
4.164781e+07
2.929377e+07
1.770637e+07
1.077403e+07
4456491
5168958
1.252313e+07
2.335588e+07
3.171119e+07
4.288132e+07
5.280316e+07
6.227353e+07
7.051154e+07
7.811289e+07
8.454148e+07
8.981634e+07
9.372242e+07
9.627379e+07
9.751349e+07
9.750649e+07
9.625516e+07
9.36939e+07
8.978122e+07
8.450335e+07
7.807428e+07
7.046834e+07
6.222979e+07
5.276553e+07
4.285022e+07
3.168927e+07
2.332843e+07
1.25113e+07
5170903
5709139
1.413898e+07
2.465419e+07
3.170046e+07
4.166278e+07
5.002696e+07
5.863091e+07
6.563946e+07
7.146051e+07
7.630835e+07
7.984786e+07
8.21026e+07
8.319463e+07
8.318941e+07
8.209203e+07
7.983231e+07
7.628739e+07
7.143479e+07
6.561182e+07
5.85952e+07
4.998954e+07
4.163328e+07
3.167854e+07
2.463319e+07
1.412754e+07
5706294
6007656
1.413637e+07
2.335154e+07
2.930272e+07
3.53518e+07
4.536903e+07
5.25292e+07
5.839858e+07
6.240652e+07
6.53905e+07
6.731257e+07
6.824498e+07
6.823902e+07
6.730574e+07
6.538112e+07
6.23935e+07
5.838311e+07
5.250806e+07
4.53381e+07
3.531672e+07
2.928219e+07
2.333558e+07
1.412697e+07
6003823
5706324
1.251299e+07
1.77118e+07
2.627437e+07
3.19419e+07
3.951583e+07
4.443384e+07
4.816749e+07
5.128018e+07
5.317453e+07
5.40416e+07
5.403454e+07
5.316346e+07
5.126479e+07
4.814961e+07
4.441971e+07
3.95063e+07
3.193636e+07
2.626047e+07
1.769677e+07
1.250965e+07
5702883
5165891
1.076869e+07
1.482122e+07
2.240319e+07
2.586382e+07
2.929767e+07
3.254062e+07
3.783261e+07
3.981763e+07
4.059543e+07
4.059089e+07
3.981073e+07
3.782405e+07
3.253014e+07
2.929956e+07
2.58741e+07
2.240515e+07
1.480909e+07
1.076371e+07
5161436
4444522
6831435
1.153281e+07
1.407258e+07
1.65882e+07
2.205899e+07
2.42569e+07
2.505863e+07
2.543951e+07
2.543416e+07
2.505638e+07
2.426001e+07
2.206965e+07
1.659639e+07
1.407923e+07
1.153463e+07
6826935
4444806
4414277
6399409
7413655
8800681
1.260533e+07
1.325343e+07
1.348802e+07
1.348624e+07
1.325389e+07
1.260988e+07
8802659
7418795
6404305
4404493
4626548
5950477
6157980
6157037
5949995
4620149
3737561
5331260
6471545
7143551
7358633
7367800
7168118
6518932
5373366
3752624
3894318
6519748
8088570
1.190075e+07
1.428813e+07
1.925592e+07
2.05929e+07
2.105813e+07
2.104899e+07
2.058327e+07
1.9254e+07
1.430222e+07
1.192882e+07
8097141
6536868
3901459
5892798
1.247136e+07
1.894077e+07
2.19209e+07
2.48732e+07
2.797786e+07
3.079744e+07
3.552454e+07
3.695833e+07
3.694923e+07
3.550899e+07
3.07875e+07
2.796161e+07
2.487845e+07
2.195517e+07
1.897928e+07
1.249294e+07
5899828
4405472
8733188
1.910517e+07
2.495204e+07
2.981579e+07
3.713098e+07
4.203254e+07
4.639391e+07
4.950319e+07
5.201222e+07