/*--------------------------------*- C++ -*----------------------------------*\
  =========                 |
  \\      /  F ield         | OpenFOAM: The Open Source CFD Toolbox
   \\    /   O peration     | Website:  https://openfoam.org
    \\  /    A nd           | Version:  6
     \\/     M anipulation  |
\*---------------------------------------------------------------------------*/
FoamFile
{
    version     2.0;
    format      ascii;
    class       volScalarField;
    location    "49.8/region0/neutronTransport";
    object      flux3;
}
// * * * * * * * * * * * * * * * * * * * * * * * * * * * * * * * * * * * * * //

dimensions      [0 -2 -1 0 0 0 0];

internalField   nonuniform List<scalar> 
203709
(
5.549061e+13
6.385947e+13
6.384907e+13
5.550525e+13
5.833191e+13
6.833143e+13
9.362602e+13
9.157707e+13
9.156047e+13
9.361265e+13
6.831461e+13
5.831644e+13
5.687782e+13
6.86735e+13
9.462121e+13
9.297067e+13
9.587445e+13
9.654251e+13
9.653375e+13
9.585193e+13
9.293267e+13
9.456921e+13
6.862278e+13
5.682484e+13
5.689033e+13
9.203327e+13
9.268844e+13
9.640515e+13
9.826815e+13
1.000123e+14
1.007635e+14
1.007587e+14
9.998039e+13
9.821657e+13
9.633868e+13
9.260634e+13
9.19398e+13
5.681877e+13
6.868604e+13
9.269275e+13
9.697379e+13
9.997993e+13
1.023023e+14
1.039962e+14
1.048308e+14
1.048235e+14
1.03958e+14
1.022448e+14
9.990765e+13
9.68831e+13
9.25875e+13
6.859158e+13
5.835223e+13
9.463775e+13
9.641541e+13
9.997888e+13
1.031472e+14
1.056559e+14
1.073969e+14
1.082475e+14
1.082358e+14
1.073631e+14
1.056097e+14
1.030811e+14
9.989667e+13
9.631946e+13
9.452776e+13
5.826747e+13
6.834527e+13
9.298224e+13
9.826968e+13
1.02285e+14
1.056442e+14
1.082573e+14
1.099846e+14
1.107788e+14
1.107683e+14
1.099607e+14
1.082152e+14
1.0559e+14
1.022263e+14
9.818929e+13
9.287903e+13
6.825657e+13
5.55233e+13
9.365996e+13
9.59045e+13
1.0003e+14
1.040005e+14
1.073915e+14
1.099823e+14
1.115488e+14
1.123276e+14
1.123233e+14
1.115365e+14
1.099502e+14
1.073488e+14
1.03941e+14
9.994577e+13
9.579842e+13
9.354537e+13
5.542263e+13
6.386751e+13
9.159601e+13
9.657131e+13
1.008009e+14
1.048573e+14
1.082616e+14
1.107921e+14
1.12338e+14
1.132107e+14
1.131747e+14
1.123265e+14
1.107746e+14
1.082311e+14
1.047993e+14
1.007145e+14
9.647185e+13
9.148008e+13
6.376781e+13
6.387868e+13
9.162223e+13
9.658431e+13
1.008048e+14
1.048664e+14
1.082771e+14
1.108038e+14
1.123514e+14
1.132519e+14
1.132134e+14
1.123423e+14
1.10788e+14
1.082421e+14
1.048146e+14
1.007278e+14
9.64819e+13
9.150185e+13
6.378696e+13
5.550885e+13
9.368539e+13
9.592394e+13
1.000566e+14
1.040388e+14
1.074376e+14
1.100283e+14
1.115965e+14
1.123787e+14
1.123634e+14
1.115783e+14
1.100011e+14
1.073939e+14
1.039797e+14
9.997689e+13
9.58219e+13
9.355386e+13
5.543787e+13
6.83538e+13
9.301083e+13
9.831813e+13
1.023565e+14
1.057158e+14
1.083273e+14
1.10052e+14
1.108541e+14
1.108316e+14
1.100266e+14
1.082798e+14
1.056531e+14
1.02277e+14
9.822427e+13
9.291048e+13
6.827526e+13
5.836827e+13
9.468091e+13
9.646648e+13
1.000475e+14
1.032218e+14
1.057392e+14
1.074729e+14
1.08335e+14
1.083132e+14
1.074415e+14
1.056786e+14
1.031462e+14
9.995802e+13
9.636832e+13
9.457161e+13
5.829203e+13
6.872257e+13
9.27509e+13
9.704683e+13
1.000632e+14
1.023889e+14
1.040853e+14
1.049753e+14
1.049557e+14
1.04039e+14
1.023199e+14
9.997618e+13
9.69496e+13
9.265759e+13
6.864356e+13
5.692925e+13
9.211079e+13
9.275871e+13
9.648478e+13
9.834254e+13
1.00088e+14
1.008872e+14
1.008729e+14
1.000475e+14
9.828119e+13
9.640168e+13
9.266099e+13
9.20055e+13
5.684637e+13
5.692032e+13
6.871821e+13
9.468663e+13
9.301636e+13
9.593112e+13
9.66196e+13
9.66205e+13
9.590452e+13
9.298178e+13
9.462403e+13
6.864944e+13
5.685558e+13
5.835607e+13
6.834898e+13
9.367184e+13
9.16575e+13
9.16709e+13
9.365665e+13
6.833035e+13
5.832907e+13
5.550422e+13
6.386022e+13
6.38665e+13
5.550373e+13
4.618927e+13
5.500079e+13
5.746122e+13
5.912974e+13
6.018026e+13
6.017895e+13
5.912697e+13
5.745679e+13
5.499695e+13
4.619155e+13
4.732933e+13
5.787864e+13
8.174841e+13
8.371354e+13
8.694891e+13
9.111788e+13
9.44656e+13
9.446451e+13
9.112231e+13
8.693238e+13
8.366765e+13
8.168021e+13
5.782211e+13
4.728096e+13
4.831796e+13
8.011438e+13
8.383874e+13
9.094058e+13
9.839626e+13
1.047812e+14
1.157871e+14
1.241052e+14
1.241017e+14
1.157842e+14
1.047429e+14
9.833469e+13
9.08833e+13
8.377302e+13
8.005088e+13
4.827901e+13
4.879089e+13
8.150663e+13
8.864679e+13
9.786489e+13
1.078347e+14
1.259114e+14
1.498382e+14
1.865097e+14
1.963367e+14
1.963265e+14
1.864575e+14
1.497891e+14
1.258658e+14
1.077888e+14
9.780486e+13
8.857342e+13
8.140795e+13
4.873967e+13
4.831371e+13
8.149601e+13
8.96107e+13
1.004712e+14
1.230359e+14
1.522063e+14
1.973229e+14
2.228352e+14
2.419746e+14
2.717772e+14
2.717576e+14
2.419369e+14
2.227677e+14
1.972184e+14
1.521297e+14
1.22941e+14
1.003877e+14
8.950369e+13
8.137249e+13
4.824487e+13
4.732963e+13
8.013329e+13
8.865472e+13
1.004885e+14
1.334531e+14
1.904763e+14
2.226e+14
2.49243e+14
2.914776e+14
3.100938e+14
3.211292e+14
3.211028e+14
3.10019e+14
2.913578e+14
2.490992e+14
2.224264e+14
1.902661e+14
1.332878e+14
1.003331e+14
8.85041e+13
7.998454e+13
4.72447e+13
5.785407e+13
8.383412e+13
9.787447e+13
1.230576e+14
1.904863e+14
2.364761e+14
2.866308e+14
3.138129e+14
3.350255e+14
3.47994e+14
3.545938e+14
3.545593e+14
3.478933e+14
3.3487e+14
3.136036e+14
2.863694e+14
2.361973e+14
1.902132e+14
1.228479e+14
9.770325e+13
8.367699e+13
5.774229e+13
4.619704e+13
8.172603e+13
9.092976e+13
1.078532e+14
1.522286e+14
2.226597e+14
2.866591e+14
3.237083e+14
3.471412e+14
3.631993e+14
3.73315e+14
3.782816e+14
3.782437e+14
3.732013e+14
3.630227e+14
3.469037e+14
3.234148e+14
2.86334e+14
2.223597e+14
1.520086e+14
1.076814e+14
9.075451e+13
8.154856e+13
4.608243e+13
5.500338e+13
8.372344e+13
9.83911e+13
1.259567e+14
1.974185e+14
2.493425e+14
3.138764e+14
3.471693e+14
3.681967e+14
3.822025e+14
3.909816e+14
3.952302e+14
3.951921e+14
3.908709e+14
3.820292e+14
3.679597e+14
3.468718e+14
3.13535e+14
2.490122e+14
1.971206e+14
1.25724e+14
9.820816e+13
8.354384e+13
5.487115e+13
5.746189e+13
8.697365e+13
1.047833e+14
1.498573e+14
2.229622e+14
2.916025e+14
3.351138e+14
3.632469e+14
3.822232e+14
3.950993e+14
4.032125e+14
4.071581e+14
4.071239e+14
4.031153e+14
3.949401e+14
3.820053e+14
3.629708e+14
3.347767e+14
2.912224e+14
2.225807e+14
1.49632e+14
1.046174e+14
8.678768e+13
5.73302e+13
5.912723e+13
9.11504e+13
1.158379e+14
1.866071e+14
2.421302e+14
3.102611e+14
3.481267e+14
3.734085e+14
3.910431e+14
4.032468e+14
4.109631e+14
4.147326e+14
4.147035e+14
4.108856e+14
4.031132e+14
3.908532e+14
3.731558e+14
3.478039e+14
3.098839e+14
2.417604e+14
1.863189e+14
1.156239e+14
9.096165e+13
5.90045e+13
6.017124e+13
9.447556e+13
1.241355e+14
1.964507e+14
2.719569e+14
3.213311e+14
3.547852e+14
3.784482e+14
3.953656e+14
4.072588e+14
4.147919e+14
4.184947e+14
4.184528e+14
4.147203e+14
4.071445e+14
3.951962e+14
3.782123e+14
3.544802e+14
3.209751e+14
2.715911e+14
1.961606e+14
1.239377e+14
9.430779e+13
6.005447e+13
6.016373e+13
9.445553e+13
1.241092e+14
1.964296e+14
2.7196e+14
3.213495e+14
3.54815e+14
3.784891e+14
3.954146e+14
4.073098e+14
4.148487e+14
4.185673e+14
4.185237e+14
4.147801e+14
4.072026e+14
3.952541e+14
3.782689e+14
3.545339e+14
3.210261e+14
2.716317e+14
1.961604e+14
1.239231e+14
9.429615e+13
6.004735e+13
5.910993e+13
9.113181e+13
1.158409e+14
1.866281e+14
2.42127e+14
3.103071e+14
3.48215e+14
3.735318e+14
3.911895e+14
4.034024e+14
4.111269e+14
4.149081e+14
4.148735e+14
4.110533e+14
4.03286e+14
3.91025e+14
3.733192e+14
3.479566e+14
3.100242e+14
2.418731e+14
1.863856e+14
1.15669e+14
9.098286e+13
5.899687e+13
5.745717e+13
8.698277e+13
1.048256e+14
1.499065e+14
2.229923e+14
2.916879e+14
3.352546e+14
3.634368e+14
3.82445e+14
3.953407e+14
4.034681e+14
4.074308e+14
4.073926e+14
4.033834e+14
3.952044e+14
3.822625e+14
3.63217e+14
3.350062e+14
2.914289e+14
2.227711e+14
1.49691e+14
1.046477e+14
8.68406e+13
5.734902e+13
5.501354e+13
8.375633e+13
9.844546e+13
1.259898e+14
1.975144e+14
2.49473e+14
3.140625e+14
3.474027e+14
3.684694e+14
3.825095e+14
3.913098e+14
3.955737e+14
3.955329e+14
3.912144e+14
3.823585e+14
3.682727e+14
3.471739e+14
3.138136e+14
2.492197e+14
1.972754e+14
1.258267e+14
9.827513e+13
8.361175e+13
5.490889e+13
4.621073e+13
8.178076e+13
9.098947e+13
1.079068e+14
1.523418e+14
2.228184e+14
2.868816e+14
3.239777e+14
3.474529e+14
3.635448e+14
3.736853e+14
3.786465e+14
3.786082e+14
3.735848e+14
3.633906e+14
3.472539e+14
3.237498e+14
2.866375e+14
2.225751e+14
1.521325e+14
1.077561e+14
9.083108e+13
8.162846e+13
4.612602e+13
5.790899e+13
8.388682e+13
9.79311e+13
1.231399e+14
1.906512e+14
2.366873e+14
2.869007e+14
3.141289e+14
3.353715e+14
3.483653e+14
3.549409e+14
3.549114e+14
3.48279e+14
3.352384e+14
3.139562e+14
2.867082e+14
2.364912e+14
1.904441e+14
1.229751e+14
9.780093e+13
8.374783e+13
5.778083e+13
4.737112e+13
8.016828e+13
8.870367e+13
1.005457e+14
1.335509e+14
1.906411e+14
2.228292e+14
2.495258e+14
2.917928e+14
3.104427e+14
3.214611e+14
3.214494e+14
3.103848e+14
2.916986e+14
2.494007e+14
2.227058e+14
1.905133e+14
1.334178e+14
1.004252e+14
8.859601e+13
8.005345e+13
4.725934e+13
4.835186e+13
8.157009e+13
8.967489e+13
1.005241e+14
1.230994e+14
1.523145e+14
1.975443e+14
2.230787e+14
2.422341e+14
2.720359e+14
2.720409e+14
2.422107e+14
2.23019e+14
1.974508e+14
1.522434e+14
1.230299e+14
1.004463e+14
8.958605e+13
8.147586e+13
4.827152e+13
4.88264e+13
8.155379e+13
8.868497e+13
9.791411e+13
1.078907e+14
1.259504e+14
1.499034e+14
1.866854e+14
1.965069e+14
1.96508e+14
1.866537e+14
1.498739e+14
1.259391e+14
1.078452e+14
9.7859e+13
8.862688e+13
8.149114e+13
4.877573e+13
4.831965e+13
8.014918e+13
8.385675e+13
9.094189e+13
9.838915e+13
1.048076e+14
1.158473e+14
1.241498e+14
1.241496e+14
1.158422e+14
1.047858e+14
9.839311e+13
9.094765e+13
8.384114e+13
8.011431e+13
4.829211e+13
4.734457e+13
5.787237e+13
8.174637e+13
8.373447e+13
8.698323e+13
9.115419e+13
9.450525e+13
9.451105e+13
9.116388e+13
8.698581e+13
8.373455e+13
8.177358e+13
5.788523e+13
4.734081e+13
4.618215e+13
5.49894e+13
5.744538e+13
5.911358e+13
6.017287e+13
6.017735e+13
5.914149e+13
5.748135e+13
5.5023e+13
4.620082e+13
3.891963e+13
4.630491e+13
4.77989e+13
4.833636e+13
4.832264e+13
4.775809e+13
4.622972e+13
3.886577e+13
3.889968e+13
4.935025e+13
5.486081e+13
7.686481e+13
7.946817e+13
8.114201e+13
8.189012e+13
8.187267e+13
8.108761e+13
7.938165e+13
7.680606e+13
5.483422e+13
4.933243e+13
3.891269e+13
4.323566e+13
7.40965e+13
8.16342e+13
9.365954e+13
1.058244e+14
1.109385e+14
1.140318e+14
1.154429e+14
1.154232e+14
1.139742e+14
1.108489e+14
1.05721e+14
9.357982e+13
8.156243e+13
7.403333e+13
4.323354e+13
4.041991e+13
5.31265e+13
7.991725e+13
1.005746e+14
1.251587e+14
1.642042e+14
1.790428e+14
1.867093e+14
1.916519e+14
1.941669e+14
1.941319e+14
1.915507e+14
1.865511e+14
1.788411e+14
1.63989e+14
1.250091e+14
1.004737e+14
7.979646e+13
5.305415e+13
4.034977e+13
4.073484e+13
7.198539e+13
8.509067e+13
1.15894e+14
1.676411e+14
1.978958e+14
2.232487e+14
2.624699e+14
2.802757e+14
2.906616e+14
2.957246e+14
2.956822e+14
2.905431e+14
2.800971e+14
2.622562e+14
2.230538e+14
1.976902e+14
1.674128e+14
1.157019e+14
8.495764e+13
7.182098e+13
4.063981e+13
4.042003e+13
7.200404e+13
8.835133e+13
1.213498e+14
1.822056e+14
2.208016e+14
2.711931e+14
3.031979e+14
3.31045e+14
3.51819e+14
3.664046e+14
3.735057e+14
3.734603e+14
3.662826e+14
3.516118e+14
3.307688e+14
3.028849e+14
2.708433e+14
2.204595e+14
1.818871e+14
1.211442e+14
8.815303e+13
7.18027e+13
4.031196e+13
5.314477e+13
8.510149e+13
1.213602e+14
1.853683e+14
2.290539e+14
2.884315e+14
3.313504e+14
3.662662e+14
3.967407e+14
4.217811e+14
4.415612e+14
4.493132e+14
4.492635e+14
4.414114e+14
4.215464e+14
3.964445e+14
3.659247e+14
3.309575e+14
2.880172e+14
2.286516e+14
1.849647e+14
1.210939e+14
8.489941e+13
5.300454e+13
4.32822e+13
7.99059e+13
1.158694e+14
1.822369e+14
2.290444e+14
2.935972e+14
3.446539e+14
3.897896e+14
4.290176e+14
4.640707e+14
4.894258e+14
5.076457e+14
5.180172e+14
5.179667e+14
5.074954e+14
4.891829e+14
4.637458e+14
4.286264e+14
3.893386e+14
3.44185e+14
2.931131e+14
2.28607e+14
1.818322e+14
1.156073e+14
7.970023e+13
4.314877e+13
3.890716e+13
7.410342e+13
1.005634e+14
1.676252e+14
2.208616e+14
2.884968e+14
3.446981e+14
3.986297e+14
4.492875e+14
4.894151e+14
5.225644e+14
5.499945e+14
5.692524e+14
5.796446e+14
5.795887e+14
5.690872e+14
5.497274e+14
5.222021e+14
4.889583e+14
4.48754e+14
3.980677e+14
3.441157e+14
2.879319e+14
2.203675e+14
1.671847e+14
1.003285e+14
7.389607e+13
3.877537e+13
4.936489e+13
8.163054e+13
1.2512e+14
1.979434e+14
2.712543e+14
3.314464e+14
3.898594e+14
4.493214e+14
4.989729e+14
5.41989e+14
5.765456e+14
6.03303e+14
6.212309e+14
6.303611e+14
6.302962e+14
6.210434e+14
6.030024e+14
5.761351e+14
5.414732e+14
4.983718e+14
4.486662e+14
3.891875e+14
3.308005e+14
2.706615e+14
1.974167e+14
1.24829e+14
8.14234e+13
4.920684e+13
5.485407e+13
9.362041e+13
1.64114e+14
2.233388e+14
3.032896e+14
3.663938e+14
4.291228e+14
4.895082e+14
5.42042e+14
5.863864e+14
6.205532e+14
6.456472e+14
6.621144e+14
6.702948e+14
6.702247e+14
6.619104e+14
6.453211e+14
6.201125e+14
5.858382e+14
5.414046e+14
4.888121e+14
4.284133e+14
3.657054e+14
3.026606e+14
2.22792e+14
1.637917e+14
9.341246e+13
5.469854e+13
3.891501e+13
7.685573e+13
1.057556e+14
1.789778e+14
2.62553e+14
3.3117e+14
3.969062e+14
4.642582e+14
5.227383e+14
5.766664e+14
6.206131e+14
6.537779e+14
6.775895e+14
6.930197e+14
7.006009e+14
7.005312e+14
6.928165e+14
6.772653e+14
6.533388e+14
6.200628e+14
5.760191e+14
5.220245e+14
4.635196e+14
3.961871e+14
3.305178e+14
2.619811e+14
1.786421e+14
1.05543e+14
7.662852e+13
3.878944e+13
4.626205e+13
7.943053e+13
1.109061e+14
1.867063e+14
2.803817e+14
3.519834e+14
4.21974e+14
4.896714e+14
5.502343e+14
6.034881e+14
6.457649e+14
6.776449e+14
7.004796e+14
7.152442e+14
7.22492e+14
7.224286e+14
7.150599e+14
7.001827e+14
6.772408e+14
6.452489e+14
6.028617e+14
5.495224e+14
4.889249e+14
4.212758e+14
3.5133e+14
2.798116e+14
1.863379e+14
1.106643e+14
7.923221e+13
4.61392e+13
4.778246e+13
8.112767e+13
1.140264e+14
1.917115e+14
2.908153e+14
3.666291e+14
4.418307e+14
5.079589e+14
5.695695e+14
6.215005e+14
6.623159e+14
6.931516e+14
7.153129e+14
7.296595e+14
7.367079e+14
7.366571e+14
7.295124e+14
7.15067e+14
6.928011e+14
6.618445e+14
6.209052e+14
5.688789e+14
5.072309e+14
4.41129e+14
3.659685e+14
2.902445e+14
1.913136e+14
1.137743e+14
8.09232e+13
4.764492e+13
4.834907e+13
8.19182e+13
1.154792e+14
1.9429e+14
2.959347e+14
3.737724e+14
4.49641e+14
5.183958e+14
5.800437e+14
6.307379e+14
6.70624e+14
7.008651e+14
7.226797e+14
7.368122e+14
7.437605e+14
7.437139e+14
7.366869e+14
7.224661e+14
7.005471e+14
6.701865e+14
6.301801e+14
5.793931e+14
5.177042e+14
4.489634e+14
3.731373e+14
2.953679e+14
1.93872e+14
1.152062e+14
8.169202e+13
4.820143e+13
4.835394e+13
8.192736e+13
1.154921e+14
1.943156e+14
2.959551e+14
3.737844e+14
4.496533e+14
5.184145e+14
5.800778e+14
6.307917e+14
6.70698e+14
7.009537e+14
7.227752e+14
7.369121e+14
7.438651e+14
7.438182e+14
7.367895e+14
7.225703e+14
7.006526e+14
6.702899e+14
6.302777e+14
5.794821e+14
5.17777e+14
4.490135e+14
3.731774e+14
2.954e+14
1.938865e+14
1.152084e+14
8.16925e+13
4.820344e+13
4.780679e+13
8.116726e+13
1.140717e+14
1.917883e+14
2.908775e+14
3.666923e+14
4.419068e+14
5.080312e+14
5.696759e+14
6.216606e+14
6.625323e+14
6.934104e+14
7.155906e+14
7.299471e+14
7.370038e+14
7.369549e+14
7.298137e+14
7.153738e+14
6.931078e+14
6.621419e+14
6.211856e+14
5.691345e+14
5.074496e+14
4.413044e+14
3.661169e+14
2.903382e+14
1.913405e+14
1.137801e+14
8.092755e+13
4.765301e+13
4.631378e+13
7.949626e+13
1.109777e+14
1.868373e+14
2.804871e+14
3.521053e+14
4.221226e+14
4.898254e+14
5.50428e+14
6.037488e+14
6.460973e+14
6.780362e+14
7.009089e+14
7.156983e+14
7.22964e+14
7.229079e+14
7.15544e+14
7.006648e+14
6.77713e+14
6.457047e+14
6.032939e+14
5.499211e+14
4.892818e+14
4.215543e+14
3.515584e+14
2.799657e+14
1.863624e+14
1.106795e+14
7.92554e+13
4.615959e+13
3.897024e+13
7.691747e+13
1.058758e+14
1.791797e+14
2.626942e+14
3.313483e+14
3.970916e+14
4.644921e+14
5.230244e+14
5.770219e+14
6.210435e+14
6.542783e+14
6.781455e+14
6.936108e+14
7.01209e+14
7.011461e+14
6.934369e+14
6.778754e+14
6.539316e+14
6.206388e+14
5.765705e+14
5.225344e+14
4.639845e+14
3.965915e+14
3.308388e+14
2.622147e+14
1.786886e+14
1.055818e+14
7.669653e+13
3.883717e+13
5.490942e+13
9.373783e+13
1.643529e+14
2.234715e+14
3.035108e+14
3.666147e+14
4.294161e+14
4.898701e+14
5.424751e+14
5.868936e+14
6.211316e+14
6.462814e+14
6.627815e+14
6.709618e+14
6.708992e+14
6.626051e+14
6.460092e+14
6.207859e+14
5.864963e+14
5.420391e+14
4.894064e+14
4.289597e+14
3.66168e+14
3.030391e+14
2.23095e+14
1.638826e+14
9.346618e+13
5.474611e+13
4.938958e+13
8.171617e+13
1.25282e+14
1.981152e+14
2.715026e+14
3.316864e+14
3.901588e+14
4.497073e+14
4.994265e+14
5.425172e+14
5.771469e+14
6.039557e+14
6.219117e+14
6.310295e+14
6.309772e+14
6.217602e+14
6.037205e+14
5.768496e+14
5.421806e+14
4.990576e+14
4.493106e+14
3.897708e+14
3.312887e+14
2.71073e+14
1.97794e+14
1.249588e+14
8.149773e+13
4.926735e+13
3.890789e+13
7.419636e+13
1.006937e+14
1.678015e+14
2.210748e+14
2.887271e+14
3.44977e+14
3.989842e+14
4.497105e+14
4.899173e+14
5.231479e+14
5.506249e+14
5.699122e+14
5.80299e+14
5.802654e+14
5.698046e+14
5.504518e+14
5.229286e+14
4.896789e+14
4.494481e+14
3.986967e+14
3.44679e+14
2.884056e+14
2.207182e+14
1.675449e+14
1.004437e+14
7.398437e+13
3.883985e+13
4.32821e+13
7.999393e+13
1.159899e+14
1.823733e+14
2.292599e+14
2.938566e+14
3.449766e+14
3.901617e+14
4.294567e+14
4.645954e+14
4.899958e+14
5.082443e+14
5.186204e+14
5.186061e+14
5.081859e+14
4.898898e+14
4.64458e+14
4.293128e+14
3.899967e+14
3.447864e+14
2.936547e+14
2.290573e+14
1.821741e+14
1.158066e+14
7.982127e+13
4.319452e+13
5.317474e+13
8.51791e+13
1.214658e+14
1.855345e+14
2.292436e+14
2.887316e+14
3.317034e+14
3.666622e+14
3.971649e+14
4.222524e+14
4.420957e+14
4.498775e+14
4.498726e+14
4.420728e+14
4.222144e+14
3.971197e+14
3.665873e+14
3.316073e+14
2.886182e+14
2.291314e+14
1.853979e+14
1.213226e+14
8.504568e+13
5.307615e+13
4.046408e+13
7.207173e+13
8.842647e+13
1.214549e+14
1.824173e+14
2.210712e+14
2.714713e+14
3.035205e+14
3.314036e+14
3.522199e+14
3.668569e+14
3.73987e+14
3.739915e+14
3.668796e+14
3.522377e+14
3.314154e+14
3.035281e+14
2.714813e+14
2.210453e+14
1.823564e+14
1.213826e+14
8.834067e+13
7.19722e+13
4.039245e+13
4.076058e+13
7.207345e+13
8.518439e+13
1.159578e+14
1.677399e+14
1.980334e+14
2.23473e+14
2.627187e+14
2.805468e+14
2.909809e+14
2.960833e+14
2.960915e+14
2.910441e+14
2.806425e+14
2.628127e+14
2.235342e+14
1.981265e+14
1.678117e+14
1.159689e+14
8.515136e+13
7.202148e+13
4.07204e+13
4.045827e+13
5.318389e+13
7.995407e+13
1.006369e+14
1.251836e+14
1.642625e+14
1.790913e+14
1.867713e+14
1.917755e+14
1.944439e+14
1.944311e+14
1.918787e+14
1.869274e+14
1.792568e+14
1.644115e+14
1.252862e+14
1.006841e+14
7.998436e+13
5.316753e+13
4.044501e+13
4.326907e+13
7.413805e+13
8.166521e+13
9.367516e+13
1.058093e+14
1.109233e+14
1.140453e+14
1.155195e+14
1.154992e+14
1.141005e+14
1.110008e+14
1.058947e+14
9.374222e+13
8.170619e+13
7.419748e+13
4.328256e+13
3.889e+13
4.937408e+13
5.487219e+13
7.688651e+13
7.945745e+13
8.114785e+13
8.198918e+13
8.198767e+13
8.117493e+13
7.949278e+13
7.69432e+13
5.49059e+13
4.938929e+13
3.893326e+13
3.89436e+13
4.628686e+13
4.77899e+13
4.8374e+13
4.837521e+13
4.780014e+13
4.629614e+13
3.893218e+13
3.467791e+13
4.097586e+13
4.217959e+13
4.216492e+13
4.092558e+13
3.46483e+13
3.297901e+13
4.38063e+13
5.011462e+13
5.913424e+13
8.210875e+13
8.6104e+13
8.754605e+13
8.750503e+13
8.599724e+13
8.197382e+13
5.91157e+13
5.012236e+13
4.380633e+13
3.30049e+13
3.32451e+13
4.645054e+13
7.519993e+13
9.129189e+13
1.072516e+14
1.400756e+14
1.540802e+14
1.591717e+14
1.615816e+14
1.615125e+14
1.589938e+14
1.538963e+14
1.3998e+14
1.071743e+14
9.119801e+13
7.515263e+13
4.645743e+13
3.327848e+13
3.771206e+13
7.023176e+13
9.591287e+13
1.422584e+14
1.643036e+14
1.860594e+14
2.065593e+14
2.400407e+14
2.525882e+14
2.574995e+14
2.574231e+14
2.52382e+14
2.397714e+14
2.063003e+14
1.857772e+14
1.640453e+14
1.419599e+14
9.582683e+13
7.015417e+13
3.77162e+13
4.105855e+13
8.135889e+13
1.142404e+14
1.666849e+14
2.027724e+14
2.506194e+14
2.816676e+14
3.052284e+14
3.248875e+14
3.368314e+14
3.422822e+14
3.422008e+14
3.366033e+14
3.245575e+14
3.048559e+14
2.812912e+14
2.502596e+14
2.024419e+14
1.663219e+14
1.140574e+14
8.118756e+13
4.099428e+13
4.308389e+13
9.162626e+13
1.47977e+14
1.857734e+14
2.241177e+14
2.873938e+14
3.326283e+14
3.697484e+14
3.950221e+14
4.13832e+14
4.25911e+14
4.317134e+14
4.316276e+14
4.256658e+14
4.134597e+14
3.94563e+14
3.692353e+14
3.3211e+14
2.869219e+14
2.236907e+14
1.85301e+14
1.475418e+14
9.134341e+13
4.296033e+13
4.107844e+13
9.164521e+13
1.56264e+14
2.010848e+14
2.639329e+14
3.167041e+14
3.710011e+14
4.151709e+14
4.518229e+14
4.823534e+14
5.04642e+14
5.188152e+14
5.256562e+14
5.255699e+14
5.185683e+14
5.042635e+14
4.818777e+14
4.512762e+14
4.145656e+14
3.703632e+14
3.160372e+14
2.632716e+14
2.004809e+14
1.556582e+14
9.131884e+13
4.094638e+13
3.774794e+13
8.138043e+13
1.48052e+14
2.010923e+14
2.716325e+14
3.341415e+14
3.938113e+14
4.456308e+14
4.934627e+14
5.338894e+14
5.670584e+14
5.916156e+14
6.076407e+14
6.154196e+14
6.153356e+14
6.073994e+14
5.912318e+14
5.665553e+14
5.332883e+14
4.927728e+14
4.448754e+14
3.93005e+14
3.333333e+14
2.708531e+14
2.004286e+14
1.474921e+14
8.109844e+13
3.762046e+13
3.32842e+13
7.026241e+13
1.143303e+14
1.858134e+14
2.639767e+14
3.34175e+14
4.015878e+14
4.605883e+14
5.171206e+14
5.682752e+14
6.113963e+14
6.465647e+14
6.732327e+14
6.910222e+14
6.994089e+14
6.993258e+14
6.907787e+14
6.728438e+14
6.460512e+14
6.107707e+14
5.675418e+14
5.163011e+14
4.596968e+14
4.006504e+14
3.332701e+14
2.631562e+14
1.851708e+14
1.139431e+14
7.001604e+13
3.315767e+13
4.64949e+13
9.600114e+13
1.66682e+14
2.242577e+14
3.167807e+14
3.938808e+14
4.606299e+14
5.247566e+14
5.846655e+14
6.380526e+14
6.834953e+14
7.205588e+14
7.485649e+14
7.674758e+14
7.770872e+14
7.770049e+14
7.672321e+14
7.481719e+14
7.200305e+14
6.82839e+14
6.37278e+14
5.837993e+14
5.238155e+14
4.596447e+14
3.92892e+14
3.158687e+14
2.235167e+14
1.661278e+14
9.566489e+13
4.633548e+13
3.302811e+13
7.522058e+13
1.422452e+14
2.028463e+14
2.875504e+14
3.711094e+14
4.457415e+14
5.172185e+14
5.847246e+14
6.468388e+14
7.021679e+14
7.491496e+14
7.875408e+14
8.173861e+14
8.378646e+14
8.483729e+14
8.482861e+14
8.376094e+14
8.169728e+14
7.869789e+14
7.484431e+14
7.013315e+14
6.459023e+14
5.837112e+14
5.161666e+14
4.446891e+14
3.700951e+14
2.866605e+14
2.020943e+14
1.417687e+14
7.4948e+13
3.293001e+13
4.380059e+13
9.12964e+13
1.643001e+14
2.507589e+14
3.327568e+14
4.152985e+14
4.935966e+14
5.684206e+14
6.381686e+14
7.022311e+14
7.588e+14
8.078112e+14
8.480912e+14
8.791278e+14
9.001544e+14
9.107814e+14
9.106866e+14
8.998784e+14
8.786804e+14
8.474813e+14
8.070456e+14
7.578936e+14
7.012125e+14
6.370738e+14
5.672976e+14
4.924844e+14
4.142152e+14
3.317846e+14
2.498751e+14
1.63692e+14
9.096145e+13
4.36553e+13
5.013966e+13
1.072912e+14
1.861463e+14
2.818526e+14
3.698655e+14
4.519818e+14
5.340633e+14
6.115947e+14
6.83677e+14
7.492913e+14
8.078894e+14
8.58729e+14
9.000756e+14
9.313663e+14
9.522987e+14
9.627592e+14
9.626573e+14
9.520016e+14
9.308875e+14
8.994295e+14
8.57924e+14
8.069381e+14
7.482213e+14
6.825325e+14
6.104287e+14
5.329219e+14
4.508746e+14
3.688544e+14
2.808966e+14
1.854176e+14
1.068511e+14
4.992181e+13
5.917624e+13
1.402561e+14
2.067827e+14
3.054536e+14
3.951834e+14
4.825428e+14
5.672789e+14
6.46821e+14
7.208258e+14
7.877788e+14
8.482625e+14
9.001644e+14
9.418521e+14
9.729982e+14
9.936495e+14
1.003904e+15
1.003802e+15
9.933522e+14
9.72521e+14
9.412071e+14
8.993585e+14
8.473075e+14
7.867039e+14
7.196783e+14
6.456575e+14
5.661452e+14
4.81451e+14
3.941638e+14
3.044692e+14
2.059451e+14
1.395536e+14
5.889112e+13
3.471158e+13
8.213297e+13
1.542927e+14
2.403224e+14
3.251573e+14
4.140615e+14
5.048851e+14
5.918962e+14
6.735522e+14
7.489174e+14
8.177246e+14
8.793999e+14
9.315499e+14
9.730886e+14
1.00394e+15
1.024318e+15
1.034417e+15
1.034325e+15
1.024048e+15
1.003504e+15
9.724933e+14
9.30792e+14
8.784829e+14
8.166772e+14
7.47797e+14
6.724231e+14
5.907855e+14
5.0381e+14
4.130299e+14
3.241456e+14
2.39382e+14
1.535484e+14
8.175507e+13
3.453588e+13
4.096955e+13
8.615967e+13
1.593813e+14
2.529006e+14
3.371581e+14
4.262323e+14
5.191469e+14
6.080084e+14
6.914329e+14
7.679282e+14
8.383188e+14
9.005533e+14
9.526066e+14
9.938507e+14
1.024421e+15
1.04459e+15
1.054586e+15
1.054513e+15
1.044374e+15
1.024059e+15
9.933354e+14
9.519129e+14
8.99682e+14
8.373079e+14
7.668419e+14
6.90331e+14
6.069142e+14
5.180775e+14
4.251915e+14
3.361516e+14
2.519706e+14
1.586743e+14
8.577791e+13
4.081081e+13
4.220818e+13
8.764434e+13
1.618099e+14
2.578739e+14
3.427058e+14
4.321542e+14
5.261074e+14
6.158951e+14
6.999256e+14
7.776512e+14
8.489573e+14
9.113378e+14
9.632487e+14
1.004293e+15
1.034688e+15
1.054732e+15
1.064669e+15
1.064609e+15
1.054552e+15
1.034373e+15
1.003823e+15
9.626039e+14
9.105183e+14
8.479989e+14
7.766131e+14
6.988601e+14
6.148249e+14
5.25044e+14
4.311118e+14
3.417133e+14
2.569881e+14
1.611835e+14
8.729318e+13
4.204961e+13
4.221091e+13
8.765847e+13
1.618561e+14
2.579065e+14
3.427466e+14
4.322033e+14
5.261591e+14
6.159431e+14
6.999698e+14
7.776958e+14
8.490144e+14
9.114183e+14
9.633561e+14
1.004421e+15
1.034826e+15
1.054873e+15
1.06481e+15
1.064749e+15
1.054693e+15
1.034518e+15
1.00397e+15
9.627485e+14
9.106549e+14
8.481225e+14
7.7672e+14
6.989503e+14
6.149042e+14
5.25112e+14
4.31171e+14
3.417759e+14
2.570519e+14
1.612424e+14
8.732459e+13
4.206419e+13
4.100747e+13
8.619531e+13
1.594244e+14
2.529632e+14
3.372657e+14
4.263727e+14
5.192959e+14
6.08156e+14
6.915781e+14
7.680743e+14
8.38498e+14
9.007944e+14
9.529198e+14
9.942234e+14
1.024819e+15
1.044997e+15
1.054996e+15
1.054928e+15
1.044795e+15
1.024488e+15
9.937643e+14
9.523304e+14
9.000758e+14
8.376674e+14
7.671591e+14
6.906059e+14
6.071542e+14
5.18274e+14
4.253584e+14
3.363325e+14
2.521538e+14
1.588423e+14
8.587276e+13
4.085905e+13
3.476298e+13
8.213165e+13
1.542889e+14
2.403902e+14
3.253057e+14
4.142813e+14
5.051211e+14
5.921429e+14
6.738066e+14
7.491855e+14
8.180405e+14
8.79797e+14
9.320377e+14
9.736557e+14
1.00456e+15
1.024968e+15
1.035084e+15
1.035002e+15
1.024731e+15
1.004186e+15
9.731635e+14
9.314407e+14
8.791e+14
8.172517e+14
7.483192e+14
6.728812e+14
5.911824e+14
5.041338e+14
4.132937e+14
3.244303e+14
2.396548e+14
1.53773e+14
8.184221e+13
3.463433e+13
5.920379e+13
1.402047e+14
2.068655e+14
3.056349e+14
3.954742e+14
4.828523e+14
5.676193e+14
6.471737e+14
7.212168e+14
7.882357e+14
8.488101e+14
9.008129e+14
9.425942e+14
9.738118e+14
9.945058e+14
1.004779e+15
1.004685e+15
9.942369e+14
9.733952e+14
9.420642e+14
9.001965e+14
8.481197e+14
7.874773e+14
7.204013e+14
6.463108e+14
5.667123e+14
4.819225e+14
3.945325e+14
3.048422e+14
2.062565e+14
1.398015e+14
5.898827e+13
5.015845e+13
1.073503e+14
1.862629e+14
2.820297e+14
3.70193e+14
4.52336e+14
5.344771e+14
6.120303e+14
6.841712e+14
7.498672e+14
8.08561e+14
8.595022e+14
9.009419e+14
9.32303e+14
9.532758e+14
9.637475e+14
9.636523e+14
9.530029e+14
9.318827e+14
9.004135e+14
8.588975e+14
8.078971e+14
7.491525e+14
6.834187e+14
6.112361e+14
5.336372e+14
4.514933e+14
3.693249e+14
2.813355e+14
1.857215e+14
1.069925e+14
4.996471e+13
4.386196e+13
9.139381e+13
1.644748e+14
2.509253e+14
3.330554e+14
4.156806e+14
4.940521e+14
5.689055e+14
6.387142e+14
7.028622e+14
7.595208e+14
8.08628e+14
8.489964e+14
8.800972e+14
9.011585e+14
9.117916e+14
9.117097e+14
9.009222e+14
8.797333e+14
8.485405e+14
8.081087e+14
7.589502e+14
7.022427e+14
6.380562e+14
5.681996e+14
4.933012e+14
4.149452e+14
3.323311e+14
2.503521e+14
1.639647e+14
9.106756e+13
4.367133e+13
3.307364e+13
7.529872e+13
1.424715e+14
2.029777e+14
2.877644e+14
3.714591e+14
4.46177e+14
5.177027e+14
5.852715e+14
6.474658e+14
7.02877e+14
7.499479e+14
7.884239e+14
8.183288e+14
8.388423e+14
8.493647e+14
8.493056e+14
8.386693e+14
8.180597e+14
7.880871e+14
7.49565e+14
7.024496e+14
6.469899e+14
5.847494e+14
5.171278e+14
4.455611e+14
3.708775e+14
2.872264e+14
2.025715e+14
1.419592e+14
7.504876e+13
3.293828e+13
4.652766e+13
9.60603e+13
1.668816e+14
2.243625e+14
3.170849e+14
3.94269e+14
4.610914e+14
5.252897e+14
5.852739e+14
6.387302e+14
6.842464e+14
7.213831e+14
7.494433e+14
7.683938e+14
7.780354e+14
7.780021e+14
7.682925e+14
7.492807e+14
7.21176e+14
6.840054e+14
6.384492e+14
5.849448e+14
5.249147e+14
4.606722e+14
3.93825e+14
3.166545e+14
2.240342e+14
1.665116e+14
9.580607e+13
4.638043e+13
3.328664e+13
7.033147e+13
1.144293e+14
1.86069e+14
2.642923e+14
3.345376e+14
4.020246e+14
4.610999e+14
5.177065e+14
5.689172e+14
6.120935e+14
6.473113e+14
6.740306e+14
6.918761e+14
7.003164e+14
7.00305e+14
6.918414e+14
6.739719e+14
6.472314e+14
6.119849e+14
5.687741e+14
5.175156e+14
4.608601e+14
4.017328e+14
3.342012e+14
2.639313e+14
1.857309e+14
1.1418e+14
7.015591e+13
3.322012e+13
3.775795e+13
8.149036e+13
1.48257e+14
2.013117e+14
2.719186e+14
3.345265e+14
3.942861e+14
4.461731e+14
4.940334e+14
5.345091e+14
5.677262e+14
5.923356e+14
6.084258e+14
6.16273e+14
6.162794e+14
6.084519e+14
5.9237e+14
5.677589e+14
5.345323e+14
4.940349e+14
4.461137e+14
3.941645e+14
3.343654e+14
2.717193e+14
2.011097e+14
1.479755e+14
8.131787e+13
3.769261e+13
4.110022e+13
9.172899e+13
1.565057e+14
2.012742e+14
2.642702e+14
3.170901e+14
3.714441e+14
4.156377e+14
4.523434e+14
4.829183e+14
5.0526e+14
5.195132e+14
5.264452e+14
5.264605e+14
5.195863e+14
5.053775e+14
4.830548e+14
4.524776e+14
4.157534e+14
3.714835e+14
3.170537e+14
2.642055e+14
2.011792e+14
1.563562e+14
9.16138e+13
4.10366e+13
4.310269e+13
9.171628e+13
1.482659e+14
1.860592e+14
2.244447e+14
2.877892e+14
3.330285e+14
3.701693e+14
3.954942e+14
4.143677e+14
4.26546e+14
4.324801e+14
4.324876e+14
4.266355e+14
4.145177e+14
3.956781e+14
3.703687e+14
3.331814e+14
2.878498e+14
2.244061e+14
1.860492e+14
1.482219e+14
9.166912e+13
4.306556e+13
4.107213e+13
8.14409e+13
1.144405e+14
1.668829e+14
2.029537e+14
2.509151e+14
2.820421e+14
3.056903e+14
3.254165e+14
3.374382e+14
3.429641e+14
3.429594e+14
3.374859e+14
3.255039e+14
3.058079e+14