/*--------------------------------*- C++ -*----------------------------------*\
  =========                 |
  \\      /  F ield         | OpenFOAM: The Open Source CFD Toolbox
   \\    /   O peration     | Website:  https://openfoam.org
    \\  /    A nd           | Version:  6
     \\/     M anipulation  |
\*---------------------------------------------------------------------------*/
FoamFile
{
    version     2.0;
    format      ascii;
    class       volScalarField;
    location    "49.8/region0/neutronTransport";
    object      flux2;
}
// * * * * * * * * * * * * * * * * * * * * * * * * * * * * * * * * * * * * * //

dimensions      [0 -2 -1 0 0 0 0];

internalField   nonuniform List<scalar> 
203709
(
1.201377e+16
1.367256e+16
1.366964e+16
1.201465e+16
1.261474e+16
1.461664e+16
1.952682e+16
1.915659e+16
1.915234e+16
1.9521e+16
1.460941e+16
1.260745e+16
1.230535e+16
1.468621e+16
1.974822e+16
1.947768e+16
2.007702e+16
2.021512e+16
2.021257e+16
2.007029e+16
1.946655e+16
1.973325e+16
1.467178e+16
1.229069e+16
1.230803e+16
1.920202e+16
1.941338e+16
2.019177e+16
2.058148e+16
2.094198e+16
2.109758e+16
2.109627e+16
2.093438e+16
2.056901e+16
2.017596e+16
1.939412e+16
1.917996e+16
1.229099e+16
1.468917e+16
1.941468e+16
2.030944e+16
2.093656e+16
2.141795e+16
2.176837e+16
2.19411e+16
2.193949e+16
2.176026e+16
2.140557e+16
2.092091e+16
2.028972e+16
1.939193e+16
1.466846e+16
1.262044e+16
1.975302e+16
2.019526e+16
2.093757e+16
2.159418e+16
2.211363e+16
2.247405e+16
2.265055e+16
2.264826e+16
2.246722e+16
2.210375e+16
2.157967e+16
2.091946e+16
2.017431e+16
1.972899e+16
1.260144e+16
1.46221e+16
1.948264e+16
2.058486e+16
2.141814e+16
2.211376e+16
2.265432e+16
2.301201e+16
2.317723e+16
2.317514e+16
2.300697e+16
2.264494e+16
2.210086e+16
2.140371e+16
2.056674e+16
1.946043e+16
1.460262e+16
1.202509e+16
1.953866e+16
2.008706e+16
2.094966e+16
2.177381e+16
2.247707e+16
2.301405e+16
2.334007e+16
2.350148e+16
2.350008e+16
2.333613e+16
2.300542e+16
2.24659e+16
2.175954e+16
2.093131e+16
2.006496e+16
1.951476e+16
1.200311e+16
1.368085e+16
1.916726e+16
2.022643e+16
2.110997e+16
2.195127e+16
2.265776e+16
2.318342e+16
2.350539e+16
2.368509e+16
2.367731e+16
2.350094e+16
2.317711e+16
2.264903e+16
2.193779e+16
2.10918e+16
2.020627e+16
1.914369e+16
1.365961e+16
1.368353e+16
1.917309e+16
2.022966e+16
2.111116e+16
2.195319e+16
2.266075e+16
2.318568e+16
2.350814e+16
2.369338e+16
2.368521e+16
2.350442e+16
2.318007e+16
2.265155e+16
2.194135e+16
2.109524e+16
2.020935e+16
1.91492e+16
1.366442e+16
1.202324e+16
1.95457e+16
2.009265e+16
2.095589e+16
2.178141e+16
2.248575e+16
2.302293e+16
2.334984e+16
2.351243e+16
2.350912e+16
2.334547e+16
2.301657e+16
2.247623e+16
2.176924e+16
2.094023e+16
2.007304e+16
1.95203e+16
1.200876e+16
1.462582e+16
1.949052e+16
2.059575e+16
2.143227e+16
2.212775e+16
2.266855e+16
2.302636e+16
2.319364e+16
2.318954e+16
2.302219e+16
2.266048e+16
2.211693e+16
2.141828e+16
2.057904e+16
1.947259e+16
1.461129e+16
1.262553e+16
1.976397e+16
2.020716e+16
2.095236e+16
2.160995e+16
2.21314e+16
2.249106e+16
2.267063e+16
2.266721e+16
2.248724e+16
2.212303e+16
2.159928e+16
2.093917e+16
2.019216e+16
1.97466e+16
1.261229e+16
1.469849e+16
1.942829e+16
2.032597e+16
2.095533e+16
2.143799e+16
2.179002e+16
2.197507e+16
2.197237e+16
2.178416e+16
2.142938e+16
2.094427e+16
2.031339e+16
1.941634e+16
1.468719e+16
1.231805e+16
1.922046e+16
1.943096e+16
2.021197e+16
2.06017e+16
2.096391e+16
2.113066e+16
2.112899e+16
2.095918e+16
2.059461e+16
2.020185e+16
1.94186e+16
1.920709e+16
1.230575e+16
1.23178e+16
1.470024e+16
1.976865e+16
1.949526e+16
2.00987e+16
2.024304e+16
2.024412e+16
2.009615e+16
1.94925e+16
1.976167e+16
1.469094e+16
1.230876e+16
1.262697e+16
1.462963e+16
1.955014e+16
1.918832e+16
1.919157e+16
1.954933e+16
1.462823e+16
1.262415e+16
1.202813e+16
1.368721e+16
1.368879e+16
1.202887e+16
1.001799e+16
1.179409e+16
1.23114e+16
1.266314e+16
1.288427e+16
1.288319e+16
1.26601e+16
1.230633e+16
1.178762e+16
1.001232e+16
1.02567e+16
1.240009e+16
1.706867e+16
1.752035e+16
1.818797e+16
1.90189e+16
1.96845e+16
1.968302e+16
1.901596e+16
1.817871e+16
1.750331e+16
1.704528e+16
1.237997e+16
1.023875e+16
1.048156e+16
1.674285e+16
1.757006e+16
1.903304e+16
2.053059e+16
2.180844e+16
2.386335e+16
2.544827e+16
2.544595e+16
2.385796e+16
2.179364e+16
2.050896e+16
1.90107e+16
1.754514e+16
1.671785e+16
1.046519e+16
1.05855e+16
1.704235e+16
1.855993e+16
2.043168e+16
2.244104e+16
2.587636e+16
3.035344e+16
3.655421e+16
3.832311e+16
3.831878e+16
3.653766e+16
3.033436e+16
2.585645e+16
2.242032e+16
2.040741e+16
1.853291e+16
1.701031e+16
1.056676e+16
1.048235e+16
1.704122e+16
1.875985e+16
2.096644e+16
2.530847e+16
3.082594e+16
3.862999e+16
4.332322e+16
4.683867e+16
5.236336e+16
5.235682e+16
4.682346e+16
4.329913e+16
3.859723e+16
3.079765e+16
2.527735e+16
2.093811e+16
1.872693e+16
1.700527e+16
1.04605e+16
1.026022e+16
1.675044e+16
1.856349e+16
2.097035e+16
2.721697e+16
3.731924e+16
4.328575e+16
4.82235e+16
5.60806e+16
5.955498e+16
6.161084e+16
6.160333e+16
5.953362e+16
5.604741e+16
4.818403e+16
4.324002e+16
3.726725e+16
2.717399e+16
2.093016e+16
1.852393e+16
1.671092e+16
1.023579e+16
1.240038e+16
1.757376e+16
2.043641e+16
2.531389e+16
3.732189e+16
4.582007e+16
5.517298e+16
6.026313e+16
6.423513e+16
6.666772e+16
6.790453e+16
6.789655e+16
6.664407e+16
6.419864e+16
6.021504e+16
5.511449e+16
4.575871e+16
3.726252e+16
2.526605e+16
2.039537e+16
1.753502e+16
1.237087e+16
1.002605e+16
1.707299e+16
1.903704e+16
2.244867e+16
3.083302e+16
4.329887e+16
5.51796e+16
6.211206e+16
6.651292e+16
6.953329e+16
7.143833e+16
7.237375e+16
7.236605e+16
7.141495e+16
6.949671e+16
6.646378e+16
6.205168e+16
5.511332e+16
4.323745e+16
3.078527e+16
2.240926e+16
1.899599e+16
1.702958e+16
9.996594e+15
1.180331e+16
1.753264e+16
2.053776e+16
2.589106e+16
3.865309e+16
4.8246e+16
6.02788e+16
6.652095e+16
7.047808e+16
7.311933e+16
7.477692e+16
7.557958e+16
7.557243e+16
7.475562e+16
7.308507e+16
7.043057e+16
6.646146e+16
6.021095e+16
4.817989e+16
3.85923e+16
2.584052e+16
2.049523e+16
1.748887e+16
1.176955e+16
1.232159e+16
1.820505e+16
2.181948e+16
3.036678e+16
4.335544e+16
5.611168e+16
6.425985e+16
6.95505e+16
7.312915e+16
7.556086e+16
7.709378e+16
7.783901e+16
7.783233e+16
7.707434e+16
7.552823e+16
7.308395e+16
6.94941e+16
6.419312e+16
5.603763e+16
4.328021e+16
3.031808e+16
2.178041e+16
1.816035e+16
1.228796e+16
1.267384e+16
1.903953e+16
2.388686e+16
3.658692e+16
4.688035e+16
5.959817e+16
6.670481e+16
7.14688e+16
7.480034e+16
7.710769e+16
7.856552e+16
7.927613e+16
7.926882e+16
7.85459e+16
7.707551e+16
7.475745e+16
7.14161e+16
6.664195e+16
5.952672e+16
4.680909e+16
3.652865e+16
2.383958e+16
1.899541e+16
1.264279e+16
1.289455e+16
1.970268e+16
2.547123e+16
3.836359e+16
5.241599e+16
6.166556e+16
6.795612e+16
7.242012e+16
7.561908e+16
7.786937e+16
7.929341e+16
7.999144e+16
7.998069e+16
7.927239e+16
7.783835e+16
7.557883e+16
7.237073e+16
6.789764e+16
6.159972e+16
5.234762e+16
3.830658e+16
2.542835e+16
1.966409e+16
1.286593e+16
1.289278e+16
1.969871e+16
2.546661e+16
3.836092e+16
5.241866e+16
6.167123e+16
6.796334e+16
7.242855e+16
7.562836e+16
7.787886e+16
7.930427e+16
8.000573e+16
7.999502e+16
7.928467e+16
7.785023e+16
7.559076e+16
7.238294e+16
6.79101e+16
6.161237e+16
5.235852e+16
3.830929e+16
2.542756e+16
1.966342e+16
1.28656e+16
1.266967e+16
1.903559e+16
2.388861e+16
3.6594e+16
4.688485e+16
5.961255e+16
6.672569e+16
7.149383e+16
7.482802e+16
7.713705e+16
7.859746e+16
7.931149e+16
7.930386e+16
7.858065e+16
7.711151e+16
7.479427e+16
7.145321e+16
6.667907e+16
5.95629e+16
4.683973e+16
3.654899e+16
2.385389e+16
1.900408e+16
1.264446e+16
1.231968e+16
1.820641e+16
2.182924e+16
3.038001e+16
4.336711e+16
5.613498e+16
6.429229e+16
6.958978e+16
7.317291e+16
7.560837e+16
7.714497e+16
7.789469e+16
7.788843e+16
7.713166e+16
7.558683e+16
7.314396e+16
6.955492e+16
6.425288e+16
5.609337e+16
4.333036e+16
3.03408e+16
2.179489e+16
1.817789e+16
1.22966e+16
1.180437e+16
1.753861e+16
2.054996e+16
2.590103e+16
3.867666e+16
4.827704e+16
6.03204e+16
6.657026e+16
7.05337e+16
7.318155e+16
7.484462e+16
7.565257e+16
7.56478e+16
7.48349e+16
7.316548e+16
7.051149e+16
6.654274e+16
6.028818e+16
4.824076e+16
3.86394e+16
2.587337e+16
2.051867e+16
1.751121e+16
1.178295e+16
1.002813e+16
1.708315e+16
1.905026e+16
2.246182e+16
3.085926e+16
4.333439e+16
5.522778e+16
6.216937e+16
6.657891e+16
6.96075e+16
7.152042e+16
7.245924e+16
7.245604e+16
7.151298e+16
6.959586e+16
6.656248e+16
6.214851e+16
5.520194e+16
4.330316e+16
3.082818e+16
2.243803e+16
1.902249e+16
1.705564e+16
1.001124e+16
1.241161e+16
1.75858e+16
2.045008e+16
2.533424e+16
3.735914e+16
4.586772e+16
5.523443e+16
6.033606e+16
6.43177e+16
6.675987e+16
6.799803e+16
6.799638e+16
6.675488e+16
6.430971e+16
6.032415e+16
5.521971e+16
4.584947e+16
3.733453e+16
2.53113e+16
2.043094e+16
1.756236e+16
1.238786e+16
1.026941e+16
1.675963e+16
1.857679e+16
2.098718e+16
2.724397e+16
3.736194e+16
4.334417e+16
4.82958e+16
5.616548e+16
5.965222e+16
6.171196e+16
6.171282e+16
5.965001e+16
5.616056e+16
4.828628e+16
4.333516e+16
3.735087e+16
2.72279e+16
2.097047e+16
1.856114e+16
1.67408e+16
1.024841e+16
1.049243e+16
1.706089e+16
1.87795e+16
2.098582e+16
2.533303e+16
3.086363e+16
3.869424e+16
4.339771e+16
4.692241e+16
5.245645e+16
5.245932e+16
4.692319e+16
4.33938e+16
3.868509e+16
3.085794e+16
2.532664e+16
2.097647e+16
1.876705e+16
1.704663e+16
1.047831e+16
1.059682e+16
1.705959e+16
1.857787e+16
2.045449e+16
2.246818e+16
2.59048e+16
3.03934e+16
3.662222e+16
3.839581e+16
3.839694e+16
3.661886e+16
3.039124e+16
2.590655e+16
2.246344e+16
2.044774e+16
1.857032e+16
1.705087e+16
1.058861e+16
1.048815e+16
1.676168e+16
1.758791e+16
1.905077e+16
2.055018e+16
2.183784e+16
2.390358e+16
2.549012e+16
2.549039e+16
2.390334e+16
2.183477e+16
2.055234e+16
1.905376e+16
1.758698e+16
1.675708e+16
1.048399e+16
1.026832e+16
1.241076e+16
1.708665e+16
1.754527e+16
1.821801e+16
1.90519e+16
1.97204e+16
1.972151e+16
1.905374e+16
1.821851e+16
1.75455e+16
1.709248e+16
1.241383e+16
1.026806e+16
1.002857e+16
1.180715e+16
1.232533e+16
1.267845e+16
1.290256e+16
1.290332e+16
1.268367e+16
1.233198e+16
1.181325e+16
1.003188e+16
8.45518e+15
9.942981e+15
1.025827e+16
1.037266e+16
1.036911e+16
1.024764e+16
9.923881e+15
8.439302e+15
8.45231e+15
1.058183e+16
1.172823e+16
1.599902e+16
1.656035e+16
1.690856e+16
1.706404e+16
1.705941e+16
1.689418e+16
1.653702e+16
1.597903e+16
1.171444e+16
1.056893e+16
8.446423e+15
9.38593e+15
1.544675e+16
1.701025e+16
1.931242e+16
2.169197e+16
2.271197e+16
2.332934e+16
2.36119e+16
2.360651e+16
2.331337e+16
2.268637e+16
2.166059e+16
1.928391e+16
1.69826e+16
1.542009e+16
9.376408e+15
8.772905e+15
1.138688e+16
1.666154e+16
2.067694e+16
2.53365e+16
3.211628e+16
3.487026e+16
3.633187e+16
3.728027e+16
3.776365e+16
3.775479e+16
3.72543e+16
3.629042e+16
3.481626e+16
3.205665e+16
2.52886e+16
2.063965e+16
1.662313e+16
1.136229e+16
8.751074e+15
8.848447e+15
1.504189e+16
1.772358e+16
2.358568e+16
3.277859e+16
3.840847e+16
4.312189e+16
5.045111e+16
5.379647e+16
5.575086e+16
5.670621e+16
5.669467e+16
5.571796e+16
5.374562e+16
5.038828e+16
4.306034e+16
3.834375e+16
3.271061e+16
2.352871e+16
1.768265e+16
1.499734e+16
8.822272e+15
8.773851e+15
1.504653e+16
1.838478e+16
2.466254e+16
3.553102e+16
4.267744e+16
5.210072e+16
5.810825e+16
6.333212e+16
6.722479e+16
6.993581e+16
7.126072e+16
7.124747e+16
6.98989e+16
6.716378e+16
6.325187e+16
5.801728e+16
5.200167e+16
4.258247e+16
3.544379e+16
2.460244e+16
1.833057e+16
1.499538e+16
8.745217e+15
1.139304e+16
1.772897e+16
2.466657e+16
3.614131e+16
4.424395e+16
5.534969e+16
6.340166e+16
6.995481e+16
7.564746e+16
8.030813e+16
8.389834e+16
8.531725e+16
8.530214e+16
8.385345e+16
8.023818e+16
7.555933e+16
6.98542e+16
6.329009e+16
5.523524e+16
4.413671e+16
3.603841e+16
2.459518e+16
1.767488e+16
1.135584e+16
9.398806e+15
1.666486e+16
2.358701e+16
3.554264e+16
4.424532e+16
5.632628e+16
6.589917e+16
7.434954e+16
8.168179e+16
8.814185e+16
9.285013e+16
9.622336e+16
9.814589e+16
9.813035e+16
9.617764e+16
9.277779e+16
8.804753e+16
8.157135e+16
7.422673e+16
6.577355e+16
5.620056e+16
4.413349e+16
3.54409e+16
2.351746e+16
1.661089e+16
9.36388e+15
8.457857e+15
1.545522e+16
2.06838e+16
3.278691e+16
4.269882e+16
5.536868e+16
6.591011e+16
7.598586e+16
8.537325e+16
9.285926e+16
9.903824e+16
1.041592e+17
1.077544e+17
1.096921e+17
1.096764e+17
1.077084e+17
1.040862e+17
9.894177e+16
9.274202e+16
8.52407e+16
7.584814e+16
6.57697e+16
5.523332e+16
4.25802e+16
3.268206e+16
2.062204e+16
1.54017e+16
8.424033e+15
1.059123e+16
1.702011e+16
2.534295e+16
3.843415e+16
5.212779e+16
6.343e+16
7.436784e+16
8.538168e+16
9.46249e+16
1.026659e+17
1.091338e+17
1.141445e+17
1.175021e+17
1.192105e+17
1.191949e+17
1.174568e+17
1.140726e+17
1.090377e+17
1.025481e+17
9.449056e+16
8.52373e+16
7.421991e+16
6.328595e+16
5.199316e+16
3.831409e+16
2.526984e+16
1.696665e+16
1.055118e+16
1.173578e+16
1.931888e+16
3.212007e+16
4.316117e+16
5.814622e+16
6.9993e+16
8.170978e+16
9.288129e+16
1.026783e+17
1.109782e+17
1.173828e+17
1.220896e+17
1.25179e+17
1.267134e+17
1.266988e+17
1.251363e+17
1.220211e+17
1.172905e+17
1.108646e+17
1.025478e+17
9.273959e+16
8.156386e+16
6.984782e+16
5.800847e+16
4.303823e+16
3.204054e+16
1.926497e+16
1.16956e+16
8.46164e+15
1.601147e+16
2.169653e+16
3.488392e+16
5.049749e+16
6.338311e+16
7.569837e+16
8.818984e+16
9.907932e+16
1.091629e+17
1.173983e+17
1.236207e+17
1.280904e+17
1.309872e+17
1.324104e+17
1.323971e+17
1.309478e+17
1.280265e+17
1.235336e+17
1.172898e+17
1.09036e+17
9.893919e+16
8.804257e+16
7.555001e+16
6.324157e+16
5.036792e+16
3.480079e+16
2.164023e+16
1.595436e+16
8.428997e+15
9.943942e+15
1.656843e+16
2.272595e+16
3.636102e+16
5.38538e+16
6.72909e+16
8.037201e+16
9.291589e+16
1.042189e+17
1.141924e+17
1.221241e+17
1.281098e+17
1.323969e+17
1.351676e+17
1.365269e+17
1.365142e+17
1.351305e+17
1.323365e+17
1.280279e+17
1.220219e+17
1.140714e+17
1.040824e+17
9.277036e+16
8.022965e+16
6.715029e+16
5.372499e+16
3.627209e+16
2.266399e+16
1.651703e+16
9.910625e+15
1.026541e+16
1.692251e+16
2.335076e+16
3.732434e+16
5.582303e+16
7.002137e+16
8.398605e+16
9.631072e+16
1.078363e+17
1.175732e+17
1.252375e+17
1.310313e+17
1.351929e+17
1.378835e+17
1.392024e+17
1.391895e+17
1.378467e+17
1.351343e+17
1.309537e+17
1.251421e+17
1.174603e+17
1.07708e+17
9.617288e+16
8.384678e+16
6.988267e+16
5.569722e+16
3.723228e+16
2.328798e+16
1.687063e+16
1.022927e+16
1.038641e+16
1.708747e+16
2.364297e+16
3.782193e+16
5.679363e+16
7.136174e+16
8.542576e+16
9.825607e+16
1.097988e+17
1.193085e+17
1.268003e+17
1.324836e+17
1.365816e+17
1.392327e+17
1.405321e+17
1.405181e+17
1.391954e+17
1.365243e+17
1.324094e+17
1.267107e+17
1.192039e+17
1.096807e+17
9.812846e+16
8.529478e+16
7.123212e+16
5.667321e+16
3.772979e+16
2.357846e+16
1.703286e+16
1.034903e+16
1.038743e+16
1.708915e+16
2.364506e+16
3.782594e+16
5.679699e+16
7.136491e+16
8.543086e+16
9.826374e+16
1.098096e+17
1.19322e+17
1.268159e+17
1.325007e+17
1.365996e+17
1.392519e+17
1.40553e+17
1.405395e+17
1.392166e+17
1.365457e+17
1.324313e+17
1.267331e+17
1.192266e+17
1.097031e+17
9.814854e+16
8.531047e+16
7.124519e+16
5.668378e+16
3.773572e+16
2.358119e+16
1.703478e+16
1.03506e+16
1.027025e+16
1.692992e+16
2.335844e+16
3.733655e+16
5.583339e+16
7.003568e+16
8.400774e+16
9.633526e+16
1.078679e+17
1.176125e+17
1.252832e+17
1.310815e+17
1.352463e+17
1.379402e+17
1.392625e+17
1.39251e+17
1.379093e+17
1.351986e+17
1.310199e+17
1.252098e+17
1.175286e+17
1.077747e+17
9.623389e+16
8.38986e+16
6.992695e+16
5.572825e+16
3.724665e+16
2.32956e+16
1.687657e+16
1.023411e+16
9.954066e+15
1.658072e+16
2.27384e+16
3.638248e+16
5.38716e+16
6.731679e+16
8.04094e+16
9.295889e+16
1.042704e+17
1.142545e+17
1.221958e+17
1.281893e+17
1.324828e+17
1.352593e+17
1.366238e+17
1.366147e+17
1.352345e+17
1.324439e+17
1.281384e+17
1.221348e+17
1.141842e+17
1.041911e+17
9.287064e+16
8.031231e+16
6.721907e+16
5.377488e+16
3.629096e+16
2.267646e+16
1.652891e+16
9.919183e+15
8.472599e+15
1.60225e+16
2.171814e+16
3.491832e+16
5.05216e+16
6.341912e+16
7.574231e+16
8.824751e+16
9.914838e+16
1.092441e+17
1.174912e+17
1.237246e+17
1.282045e+17
1.311101e+17
1.325406e+17
1.325339e+17
1.310921e+17
1.28176e+17
1.236866e+17
1.174444e+17
1.091881e+17
9.908271e+16
8.817412e+16
7.56646e+16
6.333407e+16
5.043711e+16
3.48267e+16
2.165886e+16
1.597622e+16
8.443075e+15
1.174619e+16
1.934031e+16
3.216188e+16
4.318401e+16
5.818963e+16
7.004194e+16
8.177678e+16
9.296331e+16
1.027742e+17
1.110883e+17
1.175073e+17
1.222277e+17
1.253288e+17
1.268706e+17
1.268662e+17
1.253167e+17
1.222085e+17
1.174814e+17
1.110552e+17
1.027324e+17
9.291162e+16
8.171984e+16
6.99798e+16
5.811593e+16
4.312102e+16
3.207626e+16
1.928686e+16
1.171203e+16
1.059591e+16
1.703596e+16
2.537315e+16
3.846564e+16
5.217652e+16
6.348207e+16
7.443608e+16
8.547023e+16
9.472988e+16
1.027889e+17
1.092756e+17
1.143027e+17
1.176744e+17
1.193907e+17
1.193882e+17
1.176669e+17
1.142905e+17
1.09259e+17
1.027681e+17
9.470213e+16
8.543314e+16
7.439391e+16
6.343088e+16
5.21119e+16
3.841336e+16
2.531363e+16
1.699363e+16
1.057057e+16
8.458078e+15
1.547337e+16
2.07095e+16
3.282136e+16
4.274292e+16
5.542134e+16
6.59784e+16
7.607502e+16
8.548227e+16
9.299036e+16
9.919247e+16
1.043317e+17
1.079432e+17
1.098917e+17
1.098912e+17
1.079396e+17
1.043244e+17
9.918231e+16
9.297924e+16
8.54664e+16
7.605147e+16
6.594795e+16
5.538061e+16
4.268847e+16
3.277989e+16
2.066344e+16
1.543271e+16
8.443964e+15
9.399282e+15
1.668304e+16
2.361342e+16
3.557478e+16
4.429726e+16
5.639422e+16
6.598741e+16
7.44565e+16
8.181114e+16
8.829775e+16
9.30259e+16
9.641635e+16
9.835146e+16
9.83526e+16
9.641642e+16
9.302288e+16
8.829298e+16
8.180718e+16
7.444875e+16
6.597334e+16
5.637441e+16
4.4272e+16
3.554602e+16
2.358222e+16
1.665141e+16
9.381978e+15
1.140089e+16
1.774772e+16
2.469367e+16
3.618509e+16
4.429924e+16
5.543618e+16
6.350919e+16
7.008161e+16
7.579147e+16
8.047324e+16
8.408726e+16
8.552199e+16
8.552306e+16
8.408881e+16
8.047524e+16
7.579481e+16
7.008117e+16
6.350531e+16
5.542829e+16
4.428854e+16
3.616726e+16
2.467075e+16
1.772359e+16
1.13818e+16
8.784856e+15
1.506383e+16
1.840619e+16
2.469404e+16
3.559039e+16
4.275682e+16
5.21948e+16
5.822217e+16
6.346492e+16
6.737685e+16
7.010756e+16
7.144605e+16
7.144745e+16
7.011351e+16
6.738319e+16
6.34716e+16
5.822943e+16
5.220311e+16
4.275787e+16
3.5584e+16
2.468319e+16
1.839116e+16
1.504518e+16
8.770456e+15
8.856886e+15
1.506554e+16
1.775231e+16
2.361444e+16
3.282335e+16
3.847034e+16
4.320967e+16
5.055748e+16
5.391642e+16
5.58871e+16
5.685522e+16
5.685652e+16
5.589821e+16
5.393347e+16
5.05746e+16
4.322145e+16
3.84887e+16
3.2838e+16
2.361741e+16
1.774616e+16
1.505529e+16
8.848495e+15
8.785368e+15
1.140607e+16
1.668196e+16
2.070816e+16
2.536856e+16
3.216445e+16
3.492385e+16
3.639311e+16
3.735698e+16
3.787191e+16
3.786908e+16
3.737484e+16
3.642013e+16
3.495236e+16
3.219031e+16
2.538665e+16
2.071622e+16
1.668635e+16
1.140173e+16
8.781836e+15
9.400844e+15
1.546939e+16
1.703571e+16
1.933987e+16
2.171883e+16
2.274191e+16
2.336727e+16
2.36643e+16
2.366015e+16
2.337667e+16
2.275496e+16
2.173294e+16
1.935044e+16
1.704152e+16
1.547951e+16
9.402144e+15
8.458762e+15
1.059852e+16
1.174548e+16
1.60258e+16
1.658248e+16
1.693527e+16
1.710982e+16
1.710919e+16
1.693934e+16
1.658762e+16
1.603486e+16
1.175058e+16
1.060013e+16
8.46624e+15
8.471621e+15
9.953667e+15
1.027172e+16
1.039608e+16
1.039605e+16
1.027306e+16
9.95451e+15
8.468221e+15
7.532111e+15
8.797826e+15
9.047992e+15
9.044305e+15
8.785771e+15
7.52309e+15
7.180946e+15
9.393194e+15
1.069556e+16
1.245708e+16
1.681465e+16
1.760993e+16
1.78997e+16
1.789031e+16
1.758495e+16
1.678186e+16
1.244566e+16
1.068797e+16
9.383379e+15
7.177511e+15
7.238395e+15
9.944081e+15
1.548507e+16
1.863714e+16
2.166604e+16
2.736397e+16
2.995295e+16
3.092146e+16
3.138125e+16
3.136617e+16
3.08815e+16
2.990716e+16
2.733045e+16
2.163414e+16
1.860043e+16
1.545841e+16
9.933114e+15
7.235653e+15
8.194259e+15
1.459765e+16
1.949619e+16
2.778068e+16
3.191745e+16
3.600697e+16
3.981458e+16
4.606296e+16
4.841525e+16
4.93372e+16
4.931975e+16
4.836692e+16
4.599602e+16
3.974441e+16
3.592848e+16
3.184123e+16
2.769723e+16
1.945793e+16
1.456559e+16
8.185686e+15
8.89211e+15
1.672789e+16
2.305699e+16
3.242875e+16
3.911659e+16
4.806505e+16
5.386834e+16
5.828232e+16
6.196457e+16
6.42041e+16
6.522552e+16
6.520617e+16
6.414876e+16
6.188124e+16
5.818265e+16
5.376177e+16
4.795916e+16
3.901921e+16
3.232999e+16
2.299857e+16
1.667837e+16
8.870813e+15
9.306584e+15
1.864157e+16
2.887369e+16
3.598362e+16
4.315253e+16
5.496502e+16
6.341215e+16
7.027151e+16
7.498507e+16
7.85062e+16
8.076956e+16
8.185547e+16
8.183408e+16
8.070753e+16
7.840955e+16
7.486225e+16
7.013124e+16
6.326803e+16
5.483149e+16
4.303551e+16
3.586461e+16
2.876868e+16
1.857206e+16
9.273961e+15
8.896789e+15
1.864599e+16
3.041831e+16
3.880484e+16
5.059203e+16
6.045573e+16
7.053005e+16
7.877284e+16
8.561079e+16
9.131955e+16
9.549054e+16
9.814157e+16
9.941873e+16
9.939563e+16
9.807468e+16
9.538611e+16
9.118608e+16
8.545657e+16
7.860448e+16
7.035681e+16
6.028315e+16
5.042896e+16
3.866289e+16
3.028331e+16
1.856895e+16
8.862465e+15
8.20272e+15
1.673411e+16
2.889047e+16
3.880858e+16
5.203832e+16
6.373122e+16
7.481379e+16
8.447772e+16
9.342475e+16
1.009915e+17
1.071996e+17
1.117924e+17
1.147814e+17
1.162287e+17
1.162042e+17
1.147106e+17
1.1168e+17
1.07053e+17
1.008191e+17
9.323277e+16
8.427468e+16
7.460637e+16
6.353189e+16
5.185451e+16
3.865737e+16
2.876541e+16
1.666566e+16
8.169198e+15
7.247772e+15
1.460667e+16
2.307921e+16
3.599784e+16
5.06076e+16
6.374262e+16
7.62813e+16
8.729417e+16
9.787208e+16
1.074521e+17
1.155281e+17
1.221067e+17
1.270874e+17
1.303913e+17
1.319451e+17
1.319194e+17
1.303163e+17
1.269686e+17
1.219523e+17
1.153453e+17
1.072464e+17
9.765111e+16
8.706409e+16
7.604951e+16
6.352635e+16
5.041781e+16
3.585182e+16
2.298639e+16
1.454535e+16
7.215187e+15
9.956056e+15
1.951957e+16
3.243849e+16
4.319092e+16
6.048462e+16
7.48396e+16
8.73091e+16
9.931344e+16
1.105341e+17
1.205312e+17
1.290377e+17
1.359604e+17
1.411915e+17
1.447168e+17
1.465036e+17
1.464778e+17
1.446411e+17
1.410714e+17
1.358032e+17
1.288496e+17
1.203182e+17
1.103042e+17
9.907218e+16
8.706431e+16
7.46008e+16
6.026985e+16
4.302064e+16
3.231016e+16
1.943851e+16
9.915209e+15
7.194023e+15
1.549603e+16
2.779009e+16
3.914684e+16
5.501645e+16
7.057515e+16
8.452064e+16
9.790518e+16
1.105515e+17
1.221791e+17
1.325265e+17
1.413209e+17
1.485059e+17
1.540916e+17
1.579211e+17
1.598817e+17
1.598566e+17
1.578476e+17
1.539744e+17
1.483511e+17
1.411334e+17
1.323123e+17
1.219455e+17
1.103037e+17
9.765132e+16
8.426939e+16
7.033714e+16
5.481103e+16
3.897768e+16
2.767964e+16
1.542994e+16
7.167432e+15
9.397524e+15
1.864846e+16
3.193486e+16
4.811823e+16
6.347025e+16
7.883376e+16
9.348247e+16
1.075015e+17
1.205644e+17
1.325426e+17
1.431276e+17
1.523086e+17
1.598576e+17
1.65675e+17
1.696149e+17
1.716031e+17
1.715793e+17
1.695453e+17
1.655639e+17
1.597096e+17
1.521278e+17
1.429188e+17
1.323119e+17
1.203175e+17
1.072463e+17
9.322651e+16
7.858455e+16
6.324773e+16
4.792073e+16
3.179835e+16
1.856887e+16
9.360005e+15
1.070829e+16
2.168939e+16
3.604864e+16
5.394053e+16
7.034028e+16
8.56903e+16
1.010676e+17
1.155952e+17
1.290887e+17
1.413559e+17
1.523271e+17
1.618568e+17
1.696117e+17
1.754818e+17
1.794085e+17
1.813696e+17
1.813478e+17
1.793445e+17
1.753788e+17
1.694736e+17
1.61687e+17
1.521293e+17
1.411349e+17
1.288501e+17
1.153456e+17
1.008142e+17
8.543963e+16
7.011029e+16
5.372787e+16
3.588752e+16
2.15873e+16
1.065522e+16
1.247632e+16
2.742039e+16
3.988918e+16
5.837243e+16
7.507447e+16
9.141814e+16
1.07297e+17
1.221951e+17
1.360353e+17
1.485653e+17
1.598994e+17
1.696341e+17
1.774565e+17
1.833013e+17
1.87176e+17
1.890994e+17
1.890796e+17
1.871176e+17
1.832068e+17
1.773288e+17
1.694755e+17
1.597125e+17
1.483543e+17
1.358054e+17
1.219522e+17
1.070479e+17
9.117052e+16
7.484145e+16
5.815195e+16
3.970514e+16
2.726776e+16
1.240824e+16
7.546489e+15
1.683609e+16
3.002036e+16
4.615852e+16
6.207265e+16
7.861945e+16
9.561206e+16
1.11915e+17
1.272012e+17
1.412939e+17
1.541794e+17
1.65745e+17
1.755322e+17
1.833295e+17
1.891184e+17
1.929392e+17
1.948311e+17
1.948124e+17
1.928844e+17
1.8903e+17
1.832106e+17
1.753845e+17
1.6557e+17
1.539798e+17
1.41075e+17
1.269691e+17
1.116733e+17
9.536957e+16
7.838492e+16
6.184604e+16
4.595152e+16
2.985749e+16
1.674624e+16
7.502791e+15
8.805869e+15
1.763909e+16
3.099138e+16
4.852226e+16
6.432979e+16
8.090855e+16
9.829082e+16
1.149342e+17
1.30538e+17
1.448528e+17
1.580431e+17
1.697194e+17
1.794937e+17
1.872394e+17
1.92975e+17
1.967536e+17
1.98622e+17
1.986034e+17
1.966998e+17
1.928897e+17
1.87127e+17
1.793559e+17
1.695566e+17
1.578569e+17
1.44647e+17
1.303173e+17
1.147022e+17
9.805597e+16
8.067773e+16
6.410746e+16
4.831825e+16
3.083551e+16
1.754835e+16
8.764646e+15
9.063598e+15
1.793839e+16
3.145701e+16
4.94595e+16
6.53739e+16
8.202267e+16
9.95989e+16
1.164141e+17
1.321276e+17
1.466775e+17
1.60043e+17
1.717481e+17
1.814961e+17
1.892046e+17
1.949089e+17
1.986646e+17
2.005205e+17
2.005016e+17
1.986108e+17
1.948253e+17
1.890964e+17
1.813663e+17
1.715968e+17
1.598705e+17
1.46486e+17
1.319203e+17
1.161949e+17
9.937437e+16
8.180006e+16
6.516076e+16
4.926801e+16
3.131836e+16
1.785475e+16
9.022649e+15
9.064079e+15
1.794116e+16
3.146545e+16
4.946503e+16
6.538037e+16
8.203021e+16
9.960736e+16
1.164238e+17
1.321396e+17
1.46692e+17
1.600603e+17
1.717686e+17
1.815193e+17
1.892297e+17
1.949353e+17
1.986921e+17
2.00549e+17
2.005307e+17
1.986404e+17
1.948555e+17
1.891275e+17
1.813981e+17
1.716291e+17
1.599024e+17
1.465161e+17
1.319474e+17
1.162193e+17
9.939571e+16
8.181876e+16
6.51791e+16
4.928528e+16
3.133277e+16
1.78628e+16
9.026364e+15
8.813088e+15
1.764559e+16
3.099873e+16
4.853232e+16
6.434667e+16
8.093016e+16
9.831519e+16
1.149637e+17
1.305752e+17
1.448966e+17
1.580946e+17
1.697794e+17
1.795616e+17
1.873134e+17
1.930531e+17
1.968351e+17
1.987065e+17
1.986901e+17
1.967886e+17
1.929811e+17
1.872213e+17
1.794528e+17
1.696547e+17
1.579532e+17
1.447378e+17
1.303996e+17
1.147756e+17
9.811801e+16
8.073088e+16
6.415984e+16
4.83671e+16
3.087624e+16
1.757218e+16
8.776507e+15
7.556357e+15
1.683445e+16
3.001828e+16
4.616866e+16
6.209565e+16
7.865371e+16
9.565074e+16
1.119631e+17
1.272619e+17
1.413657e+17
1.542625e+17
1.658408e+17
1.7564e+17
1.834476e+17
1.892446e+17
1.930721e+17
1.949698e+17
1.949563e+17
1.930336e+17
1.891845e+17
1.833704e+17
1.755483e+17
1.657345e+17
1.541404e+17
1.412262e+17
1.271054e+17
1.11793e+17
9.54696e+16
7.846738e+16
6.192607e+16
4.602266e+16
2.991233e+16
1.67706e+16
7.525654e+15
1.24807e+16
2.740925e+16
3.990184e+16
5.840093e+16
7.512102e+16
9.146941e+16
1.073617e+17
1.222739e+17
1.361301e+17
1.486758e+17
1.60026e+17
1.697763e+17
1.776133e+17
1.83471e+17
1.873567e+17
1.892897e+17
1.892795e+17
1.873276e+17
1.834255e+17
1.775542e+17
1.697049e+17
1.599409e+17
1.485754e+17
1.360133e+17
1.221406e+17
1.07212e+17
9.130769e+16
7.495012e+16
5.825221e+16
3.978374e+16
2.732774e+16
1.243368e+16
1.071143e+16
2.169906e+16
3.606775e+16
5.396859e+16
7.039429e+16
8.575019e+16
1.011453e+17
1.156876e+17
1.292006e+17
1.414878e+17
1.524784e+17
1.620277e+17
1.698018e+17
1.756898e+17
1.796322e+17
1.816066e+17
1.815995e+17
1.796118e+17
1.75658e+17
1.697604e+17
1.619765e+17
1.52415e+17
1.414095e+17
1.291071e+17
1.155768e+17
1.010161e+17
8.561112e+16
7.024226e+16
5.384227e+16
3.596487e+16
2.16271e+16
1.066973e+16
9.409387e+15
1.866692e+16
3.196582e+16
4.814581e+16
6.352137e+16
7.890128e+16
9.356926e+16
1.076033e+17
1.20687e+17
1.326891e+17
1.432974e+17
1.525029e+17
1.600764e+17
1.659163e+17
1.698761e+17
1.718814e+17
1.718767e+17
1.698625e+17
1.658951e+17
1.600489e+17
1.524688e+17
1.432534e+17
1.326314e+17
1.206143e+17
1.07512e+17
9.34594e+16
7.878463e+16
6.339813e+16
4.804404e+16
3.187034e+16
1.86015e+16
9.369308e+15
7.203236e+15
1.551098e+16
2.783176e+16
3.917033e+16
5.505528e+16
7.064116e+16
8.460834e+16
9.801167e+16
1.106812e+17
1.223356e+17
1.327102e+17
1.415331e+17
1.48747e+17
1.543588e+17
1.582119e+17
1.601932e+17
1.601904e+17
1.582034e+17
1.543452e+17
1.487297e+17
1.415119e+17
1.326812e+17
1.222947e+17
1.106259e+17
9.793893e+16
8.451973e+16
7.055097e+16
5.496558e+16
3.909891e+16
2.773678e+16
1.546139e+16
7.174535e+15
9.963235e+15
1.953181e+16
3.247652e+16
4.321235e+16
6.05464e+16
7.492331e+16
8.741661e+16
9.944741e+16
1.106972e+17
1.207233e+17
1.292601e+17
1.362138e+17
1.414733e+17
1.450247e+17
1.468351e+17
1.468341e+17
1.450208e+17
1.414664e+17
1.36205e+17
1.29249e+17
1.20706e+17
1.106697e+17
9.940772e+16
8.736345e+16
7.485987e+16
6.047938e+16
4.315791e+16
3.241042e+16
1.948299e+16
9.93298e+15
7.249188e+15
1.462169e+16
2.310079e+16
3.604951e+16
5.06744e+16
6.382521e+16
7.63884e+16
8.742933e+16
9.803828e+16
1.076479e+17
1.157537e+17
1.223615e+17
1.273714e+17
1.307042e+17
1.322838e+17
1.32284e+17
1.307045e+17
1.273715e+17
1.223614e+17
1.157513e+17
1.076405e+17
9.802187e+16
8.740197e+16
7.634855e+16
6.37736e+16
5.061456e+16
3.599003e+16
2.30537e+16
1.458717e+16
7.234826e+15
8.206208e+15
1.675848e+16
2.893419e+16
3.885872e+16
5.210852e+16
6.383073e+16
7.494463e+16
8.463883e+16
9.361126e+16
1.012077e+17
1.074452e+17
1.120665e+17
1.150838e+17
1.165566e+17
1.165579e+17
1.150891e+17
1.120741e+17
1.074538e+17
1.012162e+17
9.361692e+16
8.463355e+16
7.492757e+16
6.380542e+16
5.207504e+16
3.882325e+16
2.888253e+16
1.672463e+16
8.192357e+15
8.903654e+15
1.866749e+16
3.047318e+16
3.885605e+16
5.068189e+16
6.056794e+16
7.067009e+16
7.893643e+16
8.580387e+16
9.153986e+16
9.573722e+16
9.841626e+16
9.971971e+16
9.972143e+16
9.842652e+16
9.57542e+16
9.155972e+16
8.58236e+16
7.895362e+16
7.067399e+16
6.055865e+16
5.066798e+16
3.883718e+16
3.04444e+16
1.864409e+16
8.889879e+15
9.314104e+15
1.866704e+16
2.894182e+16
3.605923e+16
4.324545e+16
5.508738e+16
6.35527e+16
7.043351e+16
7.517241e+16
7.871869e+16
8.101046e+16
8.212746e+16
8.212729e+16
8.102243e+16
7.873936e+16
7.519778e+16
7.046145e+16
6.357282e+16
5.509157e+16
4.323285e+16
3.605307e+16
2.893055e+16
1.865548e+16
9.305207e+15
8.899746e+15
1.675344e+16
2.311202e+16
3.249161e+16
3.918603e+16
4.817131e+16
5.400321e+16
5.844623e+16
6.215212e+16
6.441395e+16
6.545439e+16
6.545207e+16