/*--------------------------------*- C++ -*----------------------------------*\
  =========                 |
  \\      /  F ield         | OpenFOAM: The Open Source CFD Toolbox
   \\    /   O peration     | Website:  https://openfoam.org
    \\  /    A nd           | Version:  6
     \\/     M anipulation  |
\*---------------------------------------------------------------------------*/
FoamFile
{
    version     2.0;
    format      ascii;
    class       volScalarField;
    location    "49.8/region0/neutronTransport";
    object      flux3;
}
// * * * * * * * * * * * * * * * * * * * * * * * * * * * * * * * * * * * * * //

dimensions      [0 -2 -1 0 0 0 0];

internalField   nonuniform List<scalar> 
203709
(
5.6959e+13
6.555294e+13
6.554807e+13
5.698925e+13
5.987674e+13
7.015085e+13
9.612772e+13
9.403485e+13
9.402604e+13
9.613951e+13
7.016314e+13
5.989767e+13
5.837335e+13
7.049522e+13
9.71487e+13
9.54716e+13
9.846581e+13
9.916187e+13
9.9161e+13
9.846739e+13
9.547173e+13
9.715351e+13
7.049783e+13
5.837648e+13
5.838216e+13
9.446961e+13
9.516563e+13
9.900238e+13
1.009342e+14
1.027407e+14
1.035243e+14
1.035289e+14
1.027334e+14
1.009213e+14
9.899199e+13
9.515463e+13
9.446464e+13
5.837646e+13
7.04987e+13
9.516542e+13
9.958565e+13
1.026956e+14
1.050999e+14
1.068551e+14
1.077243e+14
1.077254e+14
1.068405e+14
1.050816e+14
1.026778e+14
9.956351e+13
9.514356e+13
7.047987e+13
5.988417e+13
9.71495e+13
9.900692e+13
1.026954e+14
1.05973e+14
1.085666e+14
1.103688e+14
1.112538e+14
1.112497e+14
1.103568e+14
1.085548e+14
1.059526e+14
1.026733e+14
9.898865e+13
9.713604e+13
5.987013e+13
7.014418e+13
9.546253e+13
1.009277e+14
1.050872e+14
1.085591e+14
1.112555e+14
1.13041e+14
1.138661e+14
1.138622e+14
1.13036e+14
1.112415e+14
1.085387e+14
1.050731e+14
1.009132e+14
9.544369e+13
7.013177e+13
5.696556e+13
9.612613e+13
9.846617e+13
1.027389e+14
1.068499e+14
1.103562e+14
1.130332e+14
1.146539e+14
1.154627e+14
1.154641e+14
1.146582e+14
1.130265e+14
1.103471e+14
1.068349e+14
1.027162e+14
9.843983e+13
9.611021e+13
5.693353e+13
6.552312e+13
9.400722e+13
9.91487e+13
1.03526e+14
1.07722e+14
1.112418e+14
1.138592e+14
1.154605e+14
1.163671e+14
1.163362e+14
1.154669e+14
1.138699e+14
1.112494e+14
1.077117e+14
1.035e+14
9.91248e+13
9.398025e+13
6.549858e+13
6.553159e+13
9.402895e+13
9.915524e+13
1.035208e+14
1.077202e+14
1.112463e+14
1.138604e+14
1.154645e+14
1.164004e+14
1.163672e+14
1.15474e+14
1.138739e+14
1.112502e+14
1.077164e+14
1.035024e+14
9.912384e+13
9.39916e+13
6.551063e+13
5.694348e+13
9.613674e+13
9.846646e+13
1.02739e+14
1.068547e+14
1.10368e+14
1.130482e+14
1.146744e+14
1.15489e+14
1.154796e+14
1.146743e+14
1.130498e+14
1.103621e+14
1.068416e+14
1.027141e+14
9.842968e+13
9.608371e+13
5.692952e+13
7.013536e+13
9.546302e+13
1.009372e+14
1.051085e+14
1.085807e+14
1.112824e+14
1.130697e+14
1.139046e+14
1.13887e+14
1.1306e+14
1.112598e+14
1.085513e+14
1.050697e+14
1.008916e+14
9.54191e+13
7.01084e+13
5.988252e+13
9.71605e+13
9.901814e+13
1.027184e+14
1.06e+14
1.086043e+14
1.103995e+14
1.112944e+14
1.112755e+14
1.103781e+14
1.085602e+14
1.059479e+14
1.026597e+14
9.89584e+13
9.709871e+13
5.984371e+13
7.051148e+13
9.51885e+13
9.962013e+13
1.027372e+14
1.051419e+14
1.068958e+14
1.078162e+14
1.07797e+14
1.068513e+14
1.050775e+14
1.02659e+14
9.953793e+13
9.51181e+13
7.04572e+13
5.840399e+13
9.451558e+13
9.520129e+13
9.90415e+13
1.009611e+14
1.027608e+14
1.035841e+14
1.035679e+14
1.027148e+14
1.008926e+14
9.895158e+13
9.510034e+13
9.441357e+13
5.832871e+13
5.839683e+13
7.051175e+13
9.716697e+13
9.54623e+13
9.845672e+13
9.916358e+13
9.916141e+13
9.842033e+13
9.541338e+13
9.708628e+13
7.042934e+13
5.83236e+13
5.986655e+13
7.012021e+13
9.609711e+13
9.40304e+13
9.404018e+13
9.60695e+13
7.008724e+13
5.982483e+13
5.691919e+13
6.548318e+13
6.548621e+13
5.691051e+13
4.731743e+13
5.635342e+13
5.888681e+13
6.06084e+13
6.169518e+13
6.170176e+13
6.062883e+13
5.891982e+13
5.639954e+13
4.737373e+13
4.848246e+13
5.930334e+13
8.377828e+13
8.581538e+13
8.91527e+13
9.344584e+13
9.68946e+13
9.690474e+13
9.348313e+13
8.918837e+13
8.584025e+13
8.3801e+13
5.932593e+13
4.85126e+13
4.950096e+13
8.20954e+13
8.594001e+13
9.324535e+13
1.009171e+14
1.074916e+14
1.188045e+14
1.273577e+14
1.273674e+14
1.188391e+14
1.075098e+14
1.009323e+14
9.328253e+13
8.598361e+13
8.216112e+13
4.955407e+13
4.998531e+13
8.352646e+13
9.087622e+13
1.003624e+14
1.106216e+14
1.291999e+14
1.537853e+14
1.914505e+14
2.015614e+14
2.015701e+14
1.91452e+14
1.538106e+14
1.292451e+14
1.10679e+14
1.004219e+14
9.093759e+13
8.3577e+13
5.003795e+13
4.949049e+13
8.351082e+13
9.186366e+13
1.030401e+14
1.262302e+14
1.562059e+14
2.025539e+14
2.287886e+14
2.484757e+14
2.791322e+14
2.791374e+14
2.485075e+14
2.288252e+14
2.025805e+14
1.562638e+14
1.262729e+14
1.030974e+14
9.191016e+13
8.355229e+13
4.953348e+13
4.847166e+13
8.21011e+13
9.087407e+13
1.030524e+14
1.36917e+14
1.95491e+14
2.28525e+14
2.559333e+14
2.993818e+14
3.185559e+14
3.299332e+14
3.299345e+14
3.185621e+14
2.993894e+14
2.559475e+14
2.285329e+14
1.954749e+14
1.369219e+14
1.030531e+14
9.088987e+13
8.21282e+13
4.850405e+13
5.92614e+13
8.591593e+13
1.003555e+14
1.262394e+14
1.954912e+14
2.427685e+14
2.943586e+14
3.223516e+14
3.442108e+14
3.575906e+14
3.644147e+14
3.6441e+14
3.575745e+14
3.44191e+14
3.223252e+14
2.943165e+14
2.427196e+14
1.954428e+14
1.262048e+14
1.003538e+14
8.593093e+13
5.928622e+13
4.730772e+13
8.372785e+13
9.320836e+13
1.106168e+14
1.562047e+14
2.28563e+14
2.943747e+14
3.325199e+14
3.566761e+14
3.732462e+14
3.836974e+14
3.888442e+14
3.888341e+14
3.83665e+14
3.732037e+14
3.566217e+14
3.324514e+14
2.943037e+14
2.285092e+14
1.561887e+14
1.106199e+14
9.321108e+13
8.373772e+13
4.73115e+13
5.633098e+13
8.579075e+13
1.008772e+14
1.292112e+14
2.02612e+14
2.559977e+14
3.223913e+14
3.566946e+14
3.783878e+14
3.928502e+14
4.01927e+14
4.063343e+14
4.063218e+14
4.018914e+14
3.927999e+14
3.783205e+14
3.566144e+14
3.223065e+14
2.559272e+14
2.025613e+14
1.291677e+14
1.008742e+14
8.579162e+13
5.633401e+13
5.885546e+13
8.913404e+13
1.074474e+14
1.537501e+14
2.288558e+14
2.994464e+14
3.442587e+14
3.732739e+14
3.928618e+14
4.061588e+14
4.145477e+14
4.186405e+14
4.186296e+14
4.145188e+14
4.061098e+14
3.92793e+14
3.73192e+14
3.441643e+14
2.993397e+14
2.287318e+14
1.537338e+14
1.074577e+14
8.912168e+13
5.885655e+13
6.056614e+13
9.342352e+13
1.18794e+14
1.914663e+14
2.485433e+14
3.186296e+14
3.576483e+14
3.837368e+14
4.019474e+14
4.145562e+14
4.225368e+14
4.264468e+14
4.264384e+14
4.225209e+14
4.145228e+14
4.018963e+14
3.836663e+14
3.575568e+14
3.185209e+14
2.484363e+14
1.914198e+14
1.187596e+14
9.340437e+13
6.057235e+13
6.163783e+13
9.683552e+13
1.273062e+14
2.015657e+14
2.791782e+14
3.29999e+14
3.644829e+14
3.889034e+14
4.063766e+14
4.18669e+14
4.26464e+14
4.303065e+14
4.302843e+14
4.264528e+14
4.186545e+14
4.063461e+14
3.888473e+14
3.644013e+14
3.299034e+14
2.790853e+14
2.015161e+14
1.2729e+14
9.683341e+13
6.164542e+13
6.162932e+13
9.681287e+13
1.272751e+14
2.015363e+14
2.791691e+14
3.3e+14
3.644886e+14
3.889148e+14
4.063939e+14
4.186885e+14
4.264901e+14
4.303492e+14
4.30325e+14
4.264806e+14
4.186786e+14
4.063677e+14
3.888664e+14
3.644174e+14
3.299187e+14
2.790951e+14
2.014921e+14
1.272597e+14
9.680949e+13
6.163071e+13
6.054637e+13
9.339894e+13
1.18786e+14
1.91466e+14
2.485059e+14
3.186266e+14
3.576683e+14
3.837744e+14
4.020016e+14
4.14621e+14
4.226128e+14
4.265356e+14
4.265195e+14
4.225945e+14
4.14595e+14
4.019611e+14
3.837185e+14
3.575981e+14
3.185562e+14
2.484599e+14
1.914189e+14
1.187613e+14
9.339087e+13
6.05422e+13
5.884817e+13
8.913641e+13
1.074763e+14
1.537734e+14
2.288403e+14
2.994636e+14
3.443035e+14
3.733438e+14
3.929528e+14
4.062704e+14
4.146739e+14
4.187809e+14
4.18758e+14
4.146355e+14
4.0621e+14
3.928749e+14
3.732561e+14
3.442127e+14
2.9938e+14
2.287892e+14
1.536992e+14
1.074197e+14
8.911839e+13
5.883848e+13
5.633958e+13
8.581825e+13
1.00918e+14
1.292178e+14
2.026611e+14
2.5606e+14
3.224779e+14
3.568054e+14
3.785217e+14
3.930092e+14
4.020987e+14
4.065097e+14
4.064788e+14
4.020338e+14
3.9291e+14
3.783991e+14
3.566734e+14
3.223457e+14
2.559275e+14
2.025458e+14
1.291564e+14
1.008487e+14
8.578137e+13
5.632101e+13
4.732145e+13
8.378009e+13
9.325787e+13
1.106486e+14
1.562803e+14
2.286595e+14
2.945059e+14
3.326752e+14
3.568537e+14
3.734386e+14
3.838953e+14
3.890141e+14
3.889786e+14
3.838046e+14
3.733042e+14
3.566882e+14
3.324984e+14
2.943307e+14
2.284925e+14
1.561438e+14
1.105679e+14
9.317816e+13
8.371995e+13
4.730151e+13
5.931662e+13
8.596223e+13
1.003966e+14
1.262939e+14
1.956054e+14
2.429049e+14
2.945259e+14
3.225395e+14
3.443993e+14
3.577741e+14
3.645411e+14
3.645078e+14
3.57678e+14
3.442551e+14
3.223597e+14
2.943371e+14
2.427242e+14
1.954279e+14
1.261635e+14
1.003119e+14
8.588072e+13
5.924255e+13
4.851485e+13
8.21322e+13
9.091353e+13
1.030917e+14
1.369818e+14
1.955926e+14
2.286656e+14
2.560991e+14
2.995349e+14
3.187039e+14
3.300237e+14
3.300041e+14
3.186229e+14
2.994087e+14
2.559377e+14
2.285126e+14
1.954472e+14
1.36844e+14
1.02979e+14
9.083001e+13
8.20587e+13
4.843843e+13
4.952668e+13
8.357469e+13
9.191017e+13
1.03064e+14
1.262467e+14
1.562419e+14
2.026661e+14
2.288835e+14
2.485468e+14
2.791466e+14
2.791419e+14
2.484941e+14
2.28784e+14
2.025276e+14
1.561338e+14
1.261498e+14
1.02969e+14
9.181661e+13
8.349174e+13
4.946333e+13
5.001179e+13
8.355046e+13
9.088093e+13
1.003651e+14
1.106153e+14
1.291521e+14
1.537285e+14
1.914552e+14
2.01523e+14
2.015144e+14
1.913949e+14
1.536639e+14
1.291034e+14
1.105336e+14
1.002786e+14
9.079963e+13
8.347679e+13
4.996264e+13
4.948476e+13
8.209248e+13
8.590984e+13
9.318316e+13
1.00829e+14
1.074184e+14
1.187398e+14
1.272482e+14
1.272405e+14
1.187132e+14
1.073663e+14
1.007972e+14
9.315282e+13
8.586188e+13
8.203168e+13
4.944673e+13
4.847168e+13
5.925824e+13
8.3711e+13
8.575879e+13
8.909391e+13
9.337017e+13
9.680164e+13
9.680073e+13
9.336069e+13
8.906796e+13
8.572425e+13
8.3702e+13
5.924559e+13
4.844972e+13
4.72691e+13
5.628452e+13
5.880146e+13
6.051025e+13
6.159282e+13
6.159251e+13
6.05248e+13
5.881722e+13
5.629368e+13
4.726516e+13
3.981339e+13
4.737329e+13
4.89104e+13
4.946889e+13
4.946235e+13
4.889043e+13
4.73302e+13
3.979646e+13
3.978531e+13
5.048421e+13
5.613679e+13
7.866823e+13
8.135231e+13
8.308245e+13
8.386285e+13
8.385704e+13
8.306202e+13
8.131975e+13
7.86825e+13
5.617664e+13
5.053826e+13
3.986524e+13
4.42315e+13
7.58196e+13
8.356037e+13
9.589802e+13
1.083796e+14
1.136424e+14
1.168339e+14
1.182992e+14
1.182951e+14
1.168222e+14
1.136262e+14
1.083733e+14
9.592924e+13
8.360654e+13
7.588421e+13
4.431779e+13
4.134105e+13
5.435537e+13
8.179317e+13
1.029761e+14
1.281894e+14
1.68226e+14
1.834708e+14
1.913682e+14
1.964713e+14
1.990809e+14
1.990702e+14
1.964419e+14
1.913263e+14
1.834251e+14
1.681963e+14
1.282165e+14
1.030473e+14
8.183634e+13
5.441075e+13
4.138043e+13
4.166388e+13
7.365219e+13
8.710183e+13
1.186832e+14
1.717392e+14
2.027966e+14
2.288375e+14
2.691354e+14
2.874617e+14
2.981704e+14
3.034099e+14
3.03402e+14
2.981543e+14
2.874489e+14
2.691416e+14
2.288924e+14
2.02863e+14
1.717873e+14
1.187223e+14
8.717046e+13
7.368311e+13
4.169228e+13
4.133774e+13
7.366828e+13
9.044011e+13
1.242805e+14
1.866849e+14
2.263063e+14
2.780695e+14
3.109802e+14
3.396325e+14
3.61026e+14
3.760616e+14
3.834042e+14
3.833998e+14
3.76061e+14
3.610153e+14
3.396189e+14
3.109837e+14
2.780731e+14
2.263173e+14
1.867117e+14
1.243498e+14
9.047397e+13
7.368344e+13
4.136329e+13
5.436798e+13
8.710654e+13
1.242867e+14
1.899294e+14
2.3478e+14
2.957797e+14
3.399125e+14
3.758434e+14
4.072192e+14
4.33014e+14
4.533989e+14
4.61421e+14
4.614173e+14
4.533857e+14
4.329999e+14
4.072191e+14
3.758618e+14
3.399276e+14
2.957978e+14
2.347933e+14
1.899155e+14
1.243192e+14
8.714656e+13
5.439809e+13
4.427054e+13
8.176908e+13
1.186447e+14
1.867037e+14
2.347609e+14
3.010788e+14
3.535801e+14
4.000233e+14
4.404116e+14
4.765146e+14
5.026552e+14
5.214566e+14
5.321839e+14
5.32183e+14
5.214543e+14
5.026519e+14
4.765134e+14
4.404146e+14
4.000221e+14
3.535965e+14
3.010894e+14
2.347817e+14
1.867136e+14
1.186867e+14
8.180355e+13
4.427897e+13
3.978139e+13
7.580818e+13
1.029436e+14
1.716958e+14
2.263397e+14
2.958186e+14
3.536064e+14
4.090945e+14
4.612404e+14
5.025837e+14
5.367592e+14
5.650567e+14
5.849418e+14
5.956968e+14
5.956924e+14
5.849299e+14
5.650398e+14
5.367377e+14
5.025459e+14
4.611904e+14
4.090573e+14
3.535666e+14
2.957868e+14
2.26322e+14
1.716624e+14
1.029874e+14
7.583244e+13
3.97817e+13
5.048185e+13
8.353192e+13
1.281166e+14
2.02802e+14
2.780808e+14
3.399588e+14
4.000514e+14
4.612497e+14
5.123959e+14
5.567378e+14
5.923834e+14
6.200038e+14
6.385314e+14
6.479941e+14
6.47982e+14
6.384983e+14
6.199557e+14
5.923194e+14
5.566522e+14
5.122961e+14
4.611471e+14
3.999536e+14
3.39887e+14
2.780325e+14
2.027325e+14
1.281545e+14
8.356657e+13
5.048655e+13
5.61065e+13
9.582357e+13
1.680815e+14
2.288654e+14
3.109952e+14
3.758925e+14
4.404455e+14
5.02623e+14
5.567624e+14
6.024931e+14
6.377561e+14
6.636767e+14
6.80707e+14
6.891945e+14
6.891747e+14
6.806515e+14
6.635957e+14
6.376527e+14
6.023676e+14
5.566239e+14
5.024852e+14
4.403268e+14
3.758021e+14
3.109439e+14
2.288151e+14
1.681726e+14
9.588329e+13
5.612773e+13
3.978583e+13
7.861878e+13
1.082597e+14
1.833312e+14
2.691215e+14
3.396474e+14
4.072706e+14
4.765951e+14
5.368447e+14
5.92445e+14
6.377883e+14
6.720343e+14
6.966403e+14
7.126035e+14
7.204722e+14
7.204487e+14
7.125375e+14
6.965424e+14
6.719107e+14
6.37644e+14
5.922881e+14
5.366891e+14
4.764587e+14
4.071639e+14
3.395936e+14
2.690988e+14
1.834305e+14
1.083412e+14
7.863485e+13
3.979663e+13
4.729719e+13
8.12633e+13
1.135449e+14
1.912695e+14
2.874371e+14
3.610415e+14
4.330489e+14
5.027485e+14
5.651633e+14
6.200914e+14
6.63735e+14
6.96666e+14
7.202632e+14
7.355376e+14
7.430592e+14
7.430384e+14
7.354794e+14
7.201726e+14
6.965464e+14
6.635904e+14
6.199267e+14
5.649901e+14
5.025925e+14
4.329602e+14
3.60986e+14
2.874206e+14
1.913328e+14
1.135973e+14
8.130714e+13
4.7334e+13
4.885423e+13
8.300633e+13
1.167486e+14
1.964119e+14
2.981577e+14
3.76093e+14
4.534592e+14
5.215616e+14
5.85066e+14
6.386428e+14
6.807895e+14
7.126481e+14
7.355544e+14
7.503978e+14
7.57711e+14
7.576987e+14
7.503655e+14
7.354977e+14
7.125612e+14
6.806641e+14
6.384829e+14
5.848898e+14
5.214038e+14
4.533542e+14
3.760176e+14
2.981294e+14
1.964349e+14
1.167852e+14
8.303958e+13
4.887665e+13
4.943545e+13
8.381858e+13
1.182404e+14
1.9906e+14
3.034152e+14
3.834294e+14
4.614831e+14
5.322891e+14
5.958312e+14
6.481324e+14
6.893174e+14
7.205619e+14
7.431141e+14
7.577395e+14
7.649501e+14
7.649404e+14
7.577248e+14
7.43084e+14
7.205005e+14
6.892129e+14
6.479882e+14
5.956678e+14
5.321384e+14
4.613748e+14
3.833567e+14
3.033709e+14
1.990474e+14
1.182464e+14
8.382274e+13
4.944434e+13
4.944083e+13
8.382807e+13
1.18253e+14
1.99084e+14
3.034308e+14
3.834327e+14
4.614816e+14
5.322882e+14
5.958383e+14
6.481497e+14
6.893458e+14
7.206005e+14
7.431583e+14
7.577878e+14
7.650028e+14
7.649913e+14
7.577713e+14
7.431288e+14
7.205433e+14
6.892514e+14
6.480208e+14
5.956938e+14
5.321526e+14
4.613726e+14
3.833532e+14
3.033688e+14
1.990393e+14
1.182355e+14
8.381426e+13
4.94414e+13
4.888018e+13
8.304729e+13
1.167935e+14
1.964845e+14
2.982068e+14
3.761326e+14
4.534979e+14
5.215792e+14
5.850965e+14
6.387e+14
6.808762e+14
7.127627e+14
7.35685e+14
7.505381e+14
7.578576e+14
7.578414e+14
7.505023e+14
7.356291e+14
7.126826e+14
6.807697e+14
6.385706e+14
5.849587e+14
5.21448e+14
4.533751e+14
3.760374e+14
2.981212e+14
1.963938e+14
1.167516e+14
8.301718e+13
4.88701e+13
4.735163e+13
8.133148e+13
1.136165e+14
1.913954e+14
2.875248e+14
3.611309e+14
4.331454e+14
5.028241e+14
5.652479e+14
6.202054e+14
6.638845e+14
6.968513e+14
7.204789e+14
7.35772e+14
7.433017e+14
7.432729e+14
7.356996e+14
7.203704e+14
6.967167e+14
6.637333e+14
6.200445e+14
5.650853e+14
5.026677e+14
4.329902e+14
3.610053e+14
2.874086e+14
1.912445e+14
1.135472e+14
8.128649e+13
4.733082e+13
3.984397e+13
7.868351e+13
1.083816e+14
1.835295e+14
2.692448e+14
3.397909e+14
4.073979e+14
4.767407e+14
5.370085e+14
5.926396e+14
6.380212e+14
6.723071e+14
6.969465e+14
7.129249e+14
7.207871e+14
7.207426e+14
7.128073e+14
6.967724e+14
6.720986e+14
6.377993e+14
5.924167e+14
5.367915e+14
4.765464e+14
4.07238e+14
3.396357e+14
2.691119e+14
1.833238e+14
1.082914e+14
7.864373e+13
3.981736e+13
5.616446e+13
9.594321e+13
1.683187e+14
2.289841e+14
3.111846e+14
3.760575e+14
4.406533e+14
5.028639e+14
5.57037e+14
6.02805e+14
6.381032e+14
6.64044e+14
6.810703e+14
6.895171e+14
6.894619e+14
6.809178e+14
6.638171e+14
6.378309e+14
6.025166e+14
5.567513e+14
5.025935e+14
4.404288e+14
3.758732e+14
3.109931e+14
2.288711e+14
1.680836e+14
9.583696e+13
5.612145e+13
5.050841e+13
8.361995e+13
1.282789e+14
2.02963e+14
2.783019e+14
3.40149e+14
4.002734e+14
4.615238e+14
5.126996e+14
5.570747e+14
5.927486e+14
6.203712e+14
6.388744e+14
6.482694e+14
6.482143e+14
6.387165e+14
6.201327e+14
5.924605e+14
5.567716e+14
5.123993e+14
4.612374e+14
4.000365e+14
3.399374e+14
2.780816e+14
2.028458e+14
1.28119e+14
8.353633e+13
5.048849e+13
3.978269e+13
7.59024e+13
1.030738e+14
1.718621e+14
2.265292e+14
2.960025e+14
3.538122e+14
4.093415e+14
4.615133e+14
5.028888e+14
5.370928e+14
5.653775e+14
5.85229e+14
5.959144e+14
5.958706e+14
5.85093e+14
5.651656e+14
5.368352e+14
5.026275e+14
4.612565e+14
4.09097e+14
3.53597e+14
2.957988e+14
2.263075e+14
1.717511e+14
1.029399e+14
7.580539e+13
3.979068e+13
4.426903e+13
8.185401e+13
1.187559e+14
1.868133e+14
2.349322e+14
3.012631e+14
3.537911e+14
4.002403e+14
4.40645e+14
4.767752e+14
5.028974e+14
5.216606e+14
5.323236e+14
5.322943e+14
5.215597e+14
5.027306e+14
4.765708e+14
4.404444e+14
4.000412e+14
3.53599e+14
3.010943e+14
2.347908e+14
1.867012e+14
1.186575e+14
8.176564e+13
4.424312e+13
5.439259e+13
8.717314e+13
1.2437e+14
1.900496e+14
2.348968e+14
2.959666e+14
3.401086e+14
3.76032e+14
4.073771e+14
4.331545e+14
4.535336e+14
4.615184e+14
4.614958e+14
4.534605e+14
4.330441e+14
4.072503e+14
3.758803e+14
3.399533e+14
2.958215e+14
2.34782e+14
1.89939e+14
1.242696e+14
8.709149e+13
5.434357e+13
4.137547e+13
7.372093e+13
9.04928e+13
1.243481e+14
1.868277e+14
2.264734e+14
2.781968e+14
3.111036e+14
3.397351e+14
3.611108e+14
3.761347e+14
3.83443e+14
3.834289e+14
3.761053e+14
3.61052e+14
3.396581e+14
3.110249e+14
2.78135e+14
2.263999e+14
1.867448e+14
1.242795e+14
9.042897e+13
7.365953e+13
4.133724e+13
4.167819e+13
7.371607e+13
8.716321e+13
1.186929e+14
1.717435e+14
2.02804e+14
2.288928e+14
2.691523e+14
2.874469e+14
2.981498e+14
3.033736e+14
3.03364e+14
2.981634e+14
2.874693e+14
2.691602e+14
2.288706e+14
2.028268e+14
1.717643e+14
1.186789e+14
8.712422e+13
7.367626e+13
4.165501e+13
4.136276e+13
5.438794e+13
8.178526e+13
1.029733e+14
1.28119e+14
1.681413e+14
1.833371e+14
1.912116e+14
1.963389e+14
1.990653e+14
1.990378e+14
1.964034e+14
1.913096e+14
1.834327e+14
1.682191e+14
1.281672e+14
1.029806e+14
8.179107e+13
5.436316e+13
4.135252e+13
4.423729e+13
7.58054e+13
8.352181e+13
9.582223e+13
1.082442e+14
1.134821e+14
1.166776e+14
1.181814e+14
1.181509e+14
1.167062e+14
1.135194e+14
1.082812e+14
9.584139e+13
8.352017e+13
7.583034e+13
4.423374e+13
3.974251e+13
5.046097e+13
5.608831e+13
7.859436e+13
8.122765e+13
8.295614e+13
8.381215e+13
8.380293e+13
8.296182e+13
8.123054e+13
7.86116e+13
5.609071e+13
5.044732e+13
3.976527e+13
3.978534e+13
4.728338e+13
4.881724e+13
4.941076e+13
4.940714e+13
4.881378e+13
4.727223e+13
3.975208e+13
3.544186e+13
4.188262e+13
4.311999e+13
4.311168e+13
4.185023e+13
3.543739e+13
3.369463e+13
4.476518e+13
5.122462e+13
6.046003e+13
8.396249e+13
8.806758e+13
8.955824e+13
8.952937e+13
8.799621e+13
8.388335e+13
6.049853e+13
5.129275e+13
4.482664e+13
3.377376e+13
3.396524e+13
4.747034e+13
7.687215e+13
9.335204e+13
1.097013e+14
1.433078e+14
1.576632e+14
1.629028e+14
1.653963e+14
1.653483e+14
1.627868e+14
1.575793e+14
1.433398e+14
1.09749e+14
9.338476e+13
7.694704e+13
4.756447e+13
3.406979e+13
3.853856e+13
7.179006e+13
9.807877e+13
1.455157e+14
1.681122e+14
1.904245e+14
2.114539e+14
2.458065e+14
2.587093e+14
2.637835e+14
2.637404e+14
2.586005e+14
2.456906e+14
2.113824e+14
1.90355e+14
1.680815e+14
1.454483e+14
9.817809e+13
7.186763e+13
3.863742e+13
4.196319e+13
8.317991e+13
1.168463e+14
1.705496e+14
2.075369e+14
2.566113e+14
2.884868e+14
3.126965e+14
3.329108e+14
3.452158e+14
3.508581e+14
3.508204e+14
3.451158e+14
3.327865e+14
3.125957e+14
2.884341e+14
2.566046e+14
2.075493e+14
1.705139e+14
1.169237e+14
8.322014e+13
4.201791e+13
4.403368e+13
9.368381e+13
1.513709e+14
1.901125e+14
2.294335e+14
2.943454e+14
3.407881e+14
3.789275e+14
4.049316e+14
4.243063e+14
4.367721e+14
4.427903e+14
4.427576e+14
4.366841e+14
4.241897e+14
4.048169e+14
3.788343e+14
3.407371e+14
2.94359e+14
2.294579e+14
1.900669e+14
1.513224e+14
9.366968e+13
4.404802e+13
4.197942e+13
9.369876e+13
1.598521e+14
2.057944e+14
2.702592e+14
3.244278e+14
3.801882e+14
4.255911e+14
4.632979e+14
4.947366e+14
5.177132e+14
5.323511e+14
5.394506e+14
5.39426e+14
5.322877e+14
5.176349e+14
4.946689e+14
4.632534e+14
4.255587e+14
3.801673e+14
3.243824e+14
2.701963e+14
2.057144e+14
1.596977e+14
9.36656e+13
4.198808e+13
3.856776e+13
8.319065e+13
1.514348e+14
2.057941e+14
2.781497e+14
3.423207e+14
4.036166e+14
4.568952e+14
5.061099e+14
5.477367e+14
5.819181e+14
6.072519e+14
6.238122e+14
6.318882e+14
6.318725e+14
6.237743e+14
6.072025e+14
5.818719e+14
5.477015e+14
5.060736e+14
4.568557e+14
4.035575e+14
3.422473e+14
2.780525e+14
2.057053e+14
1.513411e+14
8.318627e+13
3.857699e+13
3.399482e+13
7.180457e+13
1.169188e+14
1.901315e+14
2.702857e+14
3.42344e+14
4.115963e+14
4.722641e+14
5.304362e+14
5.83109e+14
6.275432e+14
6.638106e+14
6.913385e+14
7.097304e+14
7.18443e+14
7.184327e+14
7.097038e+14
6.913068e+14
6.637871e+14
6.275281e+14
5.830871e+14
5.304037e+14
4.722053e+14
4.115009e+14
3.422411e+14
2.701835e+14
1.900597e+14
1.16914e+14
7.181375e+13
3.399864e+13
4.749986e+13
9.814384e+13
1.705136e+14
2.295438e+14
3.244737e+14
4.036604e+14
4.722887e+14
5.382737e+14
5.999604e+14
6.549692e+14
7.018254e+14
7.400708e+14
7.68999e+14
7.885623e+14
7.985455e+14
7.985385e+14
7.885437e+14
7.689769e+14
7.400531e+14
7.018076e+14
6.549431e+14
5.999292e+14
5.382235e+14
4.722156e+14
4.035635e+14
3.243753e+14
2.2946e+14
1.704961e+14
9.814472e+13
4.75191e+13
3.373008e+13
7.686528e+13
1.454595e+14
2.075641e+14
2.944517e+14
3.802442e+14
4.56955e+14
5.304881e+14
5.999898e+14
6.639856e+14
7.210294e+14
7.695024e+14
8.091423e+14
8.399853e+14
8.611766e+14
8.720896e+14
8.720793e+14
8.611493e+14
8.399485e+14
8.091002e+14
7.694481e+14
7.209617e+14
6.639122e+14
5.999051e+14
5.303955e+14
4.568525e+14
3.801262e+14
2.943451e+14
2.074341e+14
1.454643e+14
7.687347e+13
3.376529e+13
4.473741e+13
9.331837e+13
1.680512e+14
2.566821e+14
3.40839e+14
4.256352e+14
5.061552e+14
5.831676e+14
6.550149e+14
7.21052e+14
7.794077e+14
8.299994e+14
8.716062e+14
9.036912e+14
9.254569e+14
9.364974e+14
9.364795e+14
9.254071e+14
9.036172e+14
8.715136e+14
8.298855e+14
7.792743e+14
7.209082e+14
6.548686e+14
5.830346e+14
5.060339e+14
4.255022e+14
3.407279e+14
2.565259e+14
1.679798e+14
9.331227e+13
4.476616e+13
5.122111e+13
1.096889e+14
1.904355e+14
2.885754e+14
3.789304e+14
4.633318e+14
5.477741e+14
6.276045e+14
7.018871e+14
7.695549e+14
8.300298e+14
8.825286e+14
9.252522e+14
9.576103e+14
9.79285e+14
9.901558e+14
9.901278e+14
9.792065e+14
9.574934e+14
9.251068e+14
8.823573e+14
8.298367e+14
7.69352e+14
7.01695e+14
6.274454e+14
5.476527e+14
4.632143e+14
3.788393e+14
2.88408e+14
1.902963e+14
1.096259e+14
5.11983e+13
6.046413e+13
1.434125e+14
2.115777e+14
3.127888e+14
4.049342e+14
4.947477e+14
5.819443e+14
6.638703e+14
7.401588e+14
8.092334e+14
8.716759e+14
9.252908e+14
9.683807e+14
1.000596e+15
1.02198e+15
1.032635e+15
1.032602e+15
1.021887e+15
1.000456e+15
9.682079e+14
9.250937e+14
8.714609e+14
8.090146e+14
7.399606e+14
6.637184e+14
5.818442e+14
4.946675e+14
4.048629e+14
3.126343e+14
2.1138e+14
1.431887e+14
6.040515e+13
3.544748e+13
8.392503e+13
1.577757e+14
2.459469e+14
3.330043e+14
4.243265e+14
5.17718e+14
6.072727e+14
6.913924e+14
7.691013e+14
8.401066e+14
9.037976e+14
9.576864e+14
1.000631e+15
1.03254e+15
1.053638e+15
1.064128e+15
1.064099e+15
1.053557e+15
1.032414e+15
1.000468e+15
9.574925e+14
9.035793e+14
8.398812e+14
7.689029e+14
6.912545e+14
6.071834e+14
5.176519e+14
4.242492e+14
3.328467e+14
2.457222e+14
1.575515e+14
8.385936e+13
3.541663e+13
4.183675e+13
8.80486e+13
1.629894e+14
2.588432e+14
3.4532e+14
4.368291e+14
5.323799e+14
6.238479e+14
7.097974e+14
7.886808e+14
8.613261e+14
9.25602e+14
9.793993e+14
1.022044e+15
1.053662e+15
1.074542e+15
1.084921e+15
1.084907e+15
1.074499e+15
1.053586e+15
1.021928e+15
9.792305e+14
9.253888e+14
8.610969e+14
7.884783e+14
7.09653e+14
6.23748e+14
5.323006e+14
4.367323e+14
3.451704e+14
2.586455e+14
1.628103e+14
8.798815e+13
4.185006e+13
4.310306e+13
8.957019e+13
1.654792e+14
2.639435e+14
3.510127e+14
4.429096e+14
5.395305e+14
6.319539e+14
7.185297e+14
7.986805e+14
8.722667e+14
9.366885e+14
9.903321e+14
1.032766e+15
1.064206e+15
1.084959e+15
1.095277e+15
1.095272e+15
1.084943e+15
1.064165e+15
1.03268e+15
9.901874e+14
9.364913e+14
8.720471e+14
7.984806e+14
7.183775e+14
6.318391e+14
5.394255e+14
4.427874e+14
3.508625e+14
2.63784e+14
1.653779e+14
8.953993e+13
4.31193e+13
4.310641e+13
8.958535e+13
1.655268e+14
2.639756e+14
3.510509e+14
4.429533e+14
5.39573e+14
6.319881e+14
7.185541e+14
7.986979e+14
8.722876e+14
9.367216e+14
9.903809e+14
1.032828e+15
1.064276e+15
1.08503e+15
1.095346e+15
1.095338e+15
1.085007e+15
1.064227e+15
1.03274e+15
9.902428e+14
9.365382e+14
8.720831e+14
7.985045e+14
7.183922e+14
6.318524e+14
5.394388e+14
4.428034e+14
3.508931e+14
2.638255e+14
1.654238e+14
8.956472e+13
4.313112e+13
4.18771e+13
8.80871e+13
1.630344e+14
2.589035e+14
3.4542e+14
4.369541e+14
5.32503e+14
6.239571e+14
7.098872e+14
7.887498e+14
8.614027e+14
9.257088e+14
9.795454e+14
1.022227e+15
1.053863e+15
1.074749e+15
1.085126e+15
1.085106e+15
1.074692e+15
1.053771e+15
1.0221e+15
9.793833e+14
9.255159e+14
8.611955e+14
7.885482e+14
7.097025e+14
6.237912e+14
5.323332e+14
4.3677e+14
3.452558e+14
2.587625e+14
1.6294e+14
8.806411e+13
4.189093e+13
3.550169e+13
8.392662e+13
1.57773e+14
2.460111e+14
3.331411e+14
4.245236e+14
5.17916e+14
6.074633e+14
6.915657e+14
7.692553e+14
8.402708e+14
9.039991e+14
9.579345e+14
1.000926e+15
1.03287e+15
1.053985e+15
1.064476e+15
1.064435e+15
1.053873e+15
1.032702e+15
1.000721e+15
9.577083e+14
9.037591e+14
8.400273e+14
7.69019e+14
6.913423e+14
6.072563e+14
5.177051e+14
4.24299e+14
3.329744e+14
2.458883e+14
1.577133e+14
8.391577e+13
3.550628e+13
6.049524e+13
1.433614e+14
2.116583e+14
3.129569e+14
4.051988e+14
4.950129e+14
5.822196e+14
6.641283e+14
7.404153e+14
8.095125e+14
8.719983e+14
9.256672e+14
9.688095e+14
1.001063e+15
1.02246e+15
1.033101e+15
1.033036e+15
1.022282e+15
1.0008e+15
9.685012e+14
9.253447e+14
8.716788e+14
8.092057e+14
7.401314e+14
6.63868e+14
5.819701e+14
4.9477e+14
4.049386e+14
3.127939e+14
2.115548e+14
1.433539e+14
6.047085e+13
5.124389e+13
1.097516e+14
1.905511e+14
2.887383e+14
3.792308e+14
4.636398e+14
5.481207e+14
6.279421e+14
7.022421e+14
7.699457e+14
8.304678e+14
8.830194e+14
9.257872e+14
9.581665e+14
9.798301e+14
9.906567e+14
9.905766e+14
9.79605e+14
9.578334e+14
9.253948e+14
8.826108e+14
8.300704e+14
7.695745e+14
7.019109e+14
6.276409e+14
5.478321e+14
4.63385e+14
3.789536e+14
2.885905e+14
1.904414e+14
1.096832e+14
5.120611e+13
4.48028e+13
9.341992e+13
1.682261e+14
2.568345e+14
3.411097e+14
4.259705e+14
5.06543e+14
5.835556e+14
6.554244e+14
7.215014e+14
7.79895e+14
8.305264e+14
8.721605e+14
9.042433e+14
9.259732e+14
9.369459e+14
9.368653e+14
9.25744e+14
9.039012e+14
8.717547e+14
8.301022e+14
7.794803e+14
7.211106e+14
6.55073e+14
5.832304e+14
5.062356e+14
4.25721e+14
3.408756e+14
2.56717e+14
1.680744e+14
9.332649e+13
4.474238e+13
3.37781e+13
7.694604e+13
1.456863e+14
2.076826e+14
2.946357e+14
3.805437e+14
4.573176e+14
5.308705e+14
6.003967e+14
6.644249e+14
7.21494e+14
7.699916e+14
8.09644e+14
8.404671e+14
8.616094e+14
8.724504e+14
8.72382e+14
8.61412e+14
8.401692e+14
8.0929e+14
7.696234e+14
7.21132e+14
6.640805e+14
6.000803e+14
5.305742e+14
4.570441e+14
3.803471e+14
2.944844e+14
2.076193e+14
1.454602e+14
7.687858e+13
3.373622e+13
4.753321e+13
9.819926e+13
1.70701e+14
2.296184e+14
3.247241e+14
4.039677e+14
4.726385e+14
5.386557e+14
6.003679e+14
6.553851e+14
7.022442e+14
7.404834e+14
7.69379e+14
7.888906e+14
7.988101e+14
7.987596e+14
7.887417e+14
7.691506e+14
7.402104e+14
7.019592e+14
6.551017e+14
6.000949e+14
5.384049e+14
4.724121e+14
4.037772e+14
3.245806e+14
2.295631e+14
1.705858e+14
9.81269e+13
4.749221e+13
3.399612e+13
7.186919e+13
1.170048e+14
1.903587e+14
2.705459e+14
3.426214e+14
4.119135e+14
4.726166e+14
5.308124e+14
5.834787e+14
6.278942e+14
6.641274e+14
6.916157e+14
7.099687e+14
7.186383e+14
7.186041e+14
7.098703e+14
6.914654e+14
6.639467e+14
6.276982e+14
5.832815e+14
5.306185e+14
4.724353e+14
4.117429e+14
3.424595e+14
2.703899e+14
1.902203e+14
1.169154e+14
7.181823e+13
3.400215e+13
3.857279e+13
8.328771e+13
1.51609e+14
2.059592e+14
2.783496e+14
3.42585e+14
4.039301e+14
4.572269e+14
5.064071e+14
5.480094e+14
5.821549e+14
6.074499e+14
6.239809e+14
6.320289e+14
6.320091e+14
6.239332e+14
6.073761e+14
5.820637e+14
5.479155e+14
5.06318e+14
4.571203e+14
4.038159e+14
3.424872e+14
2.782599e+14
2.058891e+14
1.514645e+14
8.321666e+13
3.856907e+13
4.199185e+13
9.375641e+13
1.600429e+14
2.059048e+14
2.704823e+14
3.246605e+14
3.804263e+14
4.257924e+14
4.634837e+14
4.948859e+14
5.178284e+14
5.324569e+14
5.39556e+14
5.395436e+14
5.324518e+14
5.178304e+14
4.948869e+14
4.634843e+14
4.257959e+14
3.803902e+14
3.245968e+14
2.704377e+14
2.058672e+14
1.599752e+14
9.371598e+13
4.197413e+13
4.40372e+13
9.373626e+13
1.515938e+14
1.903027e+14
2.296334e+14
2.945579e+14
3.409459e+14
3.790385e+14
4.050214e+14
4.243808e+14
4.368649e+14
4.42933e+14
4.429129e+14
4.368773e+14
4.244161e+14
4.050695e+14
3.791016e+14
3.40981e+14
2.945317e+14
2.295486e+14
1.902843e+14
1.515738e+14
9.372728e+13
4.402966e+13
4.195675e+13
8.321761e+13
1.169793e+14
1.706377e+14
2.075674e+14
2.567e+14
2.885984e+14
3.12833e+14
3.330418e+14
3.453521e+14
3.509969e+14
3.509666e+14
3.453281e+14
3.330229e+14
3.128255e+14
2.886347e+14
2.567649e+14