/*--------------------------------*- C++ -*----------------------------------*\
  =========                 |
  \\      /  F ield         | OpenFOAM: The Open Source CFD Toolbox
   \\    /   O peration     | Website:  https://openfoam.org
    \\  /    A nd           | Version:  6
     \\/     M anipulation  |
\*---------------------------------------------------------------------------*/
FoamFile
{
    version     2.0;
    format      ascii;
    class       volScalarField;
    location    "49.8/region0/neutronTransport";
    object      flux4;
}
// * * * * * * * * * * * * * * * * * * * * * * * * * * * * * * * * * * * * * //

dimensions      [0 -2 -1 0 0 0 0];

internalField   nonuniform List<scalar> 
203709
(
4.816767e+10
5.48914e+10
5.488621e+10
4.818968e+10
5.058887e+10
5.870833e+10
7.927243e+10
7.748968e+10
7.748368e+10
7.928552e+10
5.872462e+10
5.061531e+10
4.930931e+10
5.897426e+10
8.009146e+10
7.864358e+10
8.102245e+10
8.155646e+10
8.15603e+10
8.103771e+10
7.866627e+10
8.012649e+10
5.900786e+10
4.934165e+10
4.930819e+10
7.790078e+10
7.837943e+10
8.143233e+10
8.296117e+10
8.441288e+10
8.504596e+10
8.505693e+10
8.442802e+10
8.298359e+10
8.146698e+10
7.841994e+10
7.795037e+10
4.934139e+10
5.895745e+10
7.836773e+10
8.186354e+10
8.435404e+10
8.629775e+10
8.772595e+10
8.843788e+10
8.844676e+10
8.773673e+10
8.631729e+10
8.438356e+10
8.189575e+10
7.840293e+10
5.898452e+10
5.055453e+10
8.005065e+10
8.141104e+10
8.43423e+10
8.69902e+10
8.910118e+10
9.057415e+10
9.130205e+10
9.130604e+10
9.058459e+10
8.912115e+10
8.701028e+10
8.436637e+10
8.144185e+10
8.008894e+10
5.057369e+10
5.864773e+10
7.858255e+10
8.291937e+10
8.626788e+10
8.908918e+10
9.128879e+10
9.274649e+10
9.342094e+10
9.342329e+10
9.275768e+10
9.13002e+10
8.910316e+10
8.629622e+10
8.2957e+10
7.862363e+10
5.868513e+10
4.811822e+10
7.919018e+10
8.095308e+10
8.436077e+10
8.769281e+10
9.055413e+10
9.274033e+10
9.405947e+10
9.47151e+10
9.471814e+10
9.406971e+10
9.274974e+10
9.057448e+10
8.772546e+10
8.440361e+10
8.100426e+10
7.925513e+10
4.81437e+10
5.480367e+10
7.737916e+10
8.146126e+10
8.49798e+10
8.839072e+10
9.126889e+10
9.340672e+10
9.470881e+10
9.544304e+10
9.541578e+10
9.470974e+10
9.341746e+10
9.129316e+10
8.842296e+10
8.502114e+10
8.151919e+10
7.743816e+10
5.484406e+10
5.480813e+10
7.739325e+10
8.146093e+10
8.49672e+10
8.838023e+10
9.126401e+10
9.339963e+10
9.470329e+10
9.545937e+10
9.542775e+10
9.469973e+10
9.340279e+10
9.127538e+10
8.841025e+10
8.500976e+10
8.150875e+10
7.744112e+10
5.485079e+10
4.809329e+10
7.918731e+10
8.093762e+10
8.434079e+10
8.767361e+10
9.053923e+10
9.272909e+10
9.405297e+10
9.47098e+10
9.469707e+10
9.404132e+10
9.27223e+10
9.054074e+10
8.769082e+10
8.437044e+10
8.097376e+10
7.921822e+10
4.813318e+10
5.862529e+10
7.855966e+10
8.289988e+10
8.625513e+10
8.907512e+10
9.127872e+10
9.273741e+10
9.341601e+10
9.34005e+10
9.272772e+10
9.126379e+10
8.906601e+10
8.62543e+10
8.291058e+10
7.858538e+10
5.865933e+10
5.053498e+10
8.002784e+10
8.138596e+10
8.432407e+10
8.697269e+10
8.909009e+10
9.055576e+10
9.128931e+10
9.127803e+10
9.055015e+10
8.90749e+10
8.696107e+10
8.431828e+10
8.139129e+10
8.004415e+10
5.055347e+10
5.893957e+10
7.834543e+10
8.18469e+10
8.43409e+10
8.628338e+10
8.770955e+10
8.846449e+10
8.845598e+10
8.769386e+10
8.626373e+10
8.432088e+10
8.183311e+10
7.834872e+10
5.894852e+10
4.930209e+10
7.789506e+10
7.836445e+10
8.141746e+10
8.293501e+10
8.437947e+10
8.50465e+10
8.504056e+10
8.436323e+10
8.291285e+10
8.13888e+10
7.833594e+10
7.787518e+10
4.928559e+10
4.930977e+10
5.896135e+10
8.006162e+10
7.859074e+10
8.096691e+10
8.151166e+10
8.151523e+10
8.095356e+10
7.857722e+10
8.003234e+10
5.892781e+10
4.928287e+10
5.055519e+10
5.86499e+10
7.919871e+10
7.744184e+10
7.745314e+10
7.918814e+10
5.863767e+10
5.053742e+10
4.810948e+10
5.480683e+10
5.481101e+10
4.810698e+10
4.004149e+10
4.718138e+10
4.92318e+10
5.064135e+10
5.153495e+10
5.153732e+10
5.064864e+10
4.924237e+10
4.719546e+10
4.00595e+10
4.101377e+10
4.963956e+10
6.904881e+10
7.061817e+10
7.32926e+10
7.676074e+10
7.955263e+10
7.955716e+10
7.677971e+10
7.330256e+10
7.061199e+10
6.903543e+10
4.962287e+10
4.100523e+10
4.187068e+10
6.770619e+10
7.072628e+10
7.658146e+10
8.274838e+10
8.806781e+10
9.714684e+10
1.040358e+11
1.040399e+11
9.716332e+10
8.806351e+10
8.2735e+10
7.658142e+10
7.072876e+10
6.772822e+10
4.18852e+10
4.226771e+10
6.885524e+10
7.467643e+10
8.228999e+10
9.058497e+10
1.055292e+11
1.252564e+11
1.543411e+11
1.624461e+11
1.624511e+11
1.543364e+11
1.252641e+11
1.055509e+11
9.061483e+10
8.231959e+10
7.470642e+10
6.887652e+10
4.229192e+10
4.185217e+10
6.883148e+10
7.544669e+10
8.443792e+10
1.031039e+11
1.271896e+11
1.632662e+11
1.843727e+11
2.001811e+11
2.249316e+11
2.249374e+11
2.00211e+11
1.844096e+11
1.632995e+11
1.272468e+11
1.03149e+11
8.449088e+10
7.5487e+10
6.88662e+10
4.188311e+10
4.098773e+10
6.768618e+10
7.464691e+10
8.442785e+10
1.11602e+11
1.575375e+11
1.841241e+11
2.061568e+11
2.412443e+11
2.567428e+11
2.659485e+11
2.659575e+11
2.567707e+11
2.412873e+11
2.062145e+11
1.841841e+11
1.575831e+11
1.116544e+11
8.446564e+10
7.468841e+10
6.772856e+10
4.101983e+10
4.957773e+10
7.066558e+10
8.223686e+10
1.030671e+11
1.575081e+11
1.954902e+11
2.371345e+11
2.597468e+11
2.774213e+11
2.882471e+11
2.937771e+11
2.937878e+11
2.882765e+11
2.774743e+11
2.598171e+11
2.372073e+11
1.955582e+11
1.575701e+11
1.031126e+11
8.229125e+10
7.071925e+10
4.961901e+10
4.001256e+10
6.896802e+10
7.649695e+10
9.051535e+10
1.271174e+11
1.840921e+11
2.371107e+11
2.679201e+11
2.874397e+11
3.008382e+11
3.092971e+11
3.134734e+11
3.134849e+11
3.093284e+11
3.008957e+11
2.875167e+11
2.680067e+11
2.372032e+11
1.841816e+11
1.272014e+11
9.058342e+10
7.654794e+10
6.900945e+10
4.002661e+10
4.713795e+10
7.055384e+10
8.265175e+10
1.054535e+11
1.632135e+11
2.061141e+11
2.597037e+11
2.87415e+11
3.049432e+11
3.166341e+11
3.239783e+11
3.275553e+11
3.275664e+11
3.240114e+11
3.166914e+11
3.050174e+11
2.875018e+11
2.597975e+11
2.062035e+11
1.632946e+11
1.054908e+11
8.269819e+10
7.058536e+10
4.715261e+10
4.917745e+10
7.3229e+10
8.796082e+10
1.251228e+11
1.842973e+11
2.41158e+11
2.773434e+11
3.007815e+11
3.166067e+11
3.273506e+11
3.34131e+11
3.374466e+11
3.374563e+11
3.341625e+11
3.274001e+11
3.166726e+11
3.008654e+11
2.774361e+11
2.41242e+11
1.843399e+11
1.252081e+11
8.80316e+10
7.326142e+10
4.920047e+10
5.057297e+10
7.668792e+10
9.705938e+10
1.542325e+11
2.000824e+11
2.566286e+11
2.881373e+11
3.092118e+11
3.239254e+11
3.341088e+11
3.405508e+11
3.437086e+11
3.437119e+11
3.405706e+11
3.341431e+11
3.239814e+11
3.092929e+11
2.882343e+11
2.567243e+11
2.001566e+11
1.543228e+11
9.711456e+10
7.673422e+10
5.061713e+10
5.144915e+10
7.944291e+10
1.039068e+11
1.623182e+11
2.24786e+11
2.657973e+11
2.936372e+11
3.133601e+11
3.274764e+11
3.37405e+11
3.436963e+11
3.467959e+11
3.467814e+11
3.437028e+11
3.374344e+11
3.275328e+11
3.134421e+11
2.937382e+11
2.659066e+11
2.248889e+11
1.624154e+11
1.039918e+11
7.951873e+10
5.150916e+10
5.143576e+10
7.94159e+10
1.038734e+11
1.622872e+11
2.247702e+11
2.657862e+11
2.93625e+11
3.133466e+11
3.274638e+11
3.373933e+11
3.436914e+11
3.468055e+11
3.467884e+11
3.436966e+11
3.374222e+11
3.275172e+11
3.134259e+11
2.937239e+11
2.658979e+11
2.248825e+11
1.623875e+11
1.039623e+11
7.949653e+10
5.149718e+10
5.053883e+10
7.664417e+10
9.703091e+10
1.542108e+11
2.000267e+11
2.565893e+11
2.881027e+11
3.091776e+11
3.238942e+11
3.340836e+11
3.405363e+11
3.437055e+11
3.436995e+11
3.405456e+11
3.341114e+11
3.23943e+11
3.09251e+11
2.881967e+11
2.566991e+11
2.001423e+11
1.543021e+11
9.710712e+10
7.671925e+10
5.059417e+10
4.91454e+10
7.319706e+10
8.795392e+10
1.251101e+11
1.84243e+11
2.411107e+11
2.772982e+11
3.007393e+11
3.165679e+11
3.273198e+11
3.34108e+11
3.374317e+11
3.374276e+11
3.341203e+11
3.273444e+11
3.166087e+11
3.008011e+11
2.7738e+11
2.412059e+11
1.843475e+11
1.25169e+11
8.800031e+10
7.326205e+10
4.919269e+10
4.711573e+10
7.05377e+10
8.264928e+10
1.054206e+11
1.631967e+11
2.060857e+11
2.596646e+11
2.873726e+11
3.049017e+11
3.166003e+11
3.239478e+11
3.275249e+11
3.275215e+11
3.239587e+11
3.166211e+11
3.049346e+11
2.874207e+11
2.597235e+11
2.061339e+11
1.632431e+11
1.054808e+11
8.268509e+10
7.058742e+10
4.7153e+10
3.999776e+10
6.896996e+10
7.649988e+10
9.050004e+10
1.271215e+11
1.840787e+11
2.370872e+11
2.678883e+11
2.874062e+11
3.008038e+11
3.092614e+11
3.13416e+11
3.134128e+11
3.092624e+11
3.008118e+11
2.874218e+11
2.679144e+11
2.371181e+11
1.840964e+11
1.271373e+11
9.053797e+10
7.652411e+10
6.900053e+10
4.00263e+10
4.959469e+10
7.066596e+10
8.222818e+10
1.030596e+11
1.57509e+11
1.954766e+11
2.371115e+11
2.597204e+11
2.773813e+11
2.881981e+11
2.936854e+11
2.936826e+11
2.881907e+11
2.773742e+11
2.597136e+11
2.371131e+11
1.954799e+11
1.575016e+11
1.03061e+11
8.225384e+10
7.067978e+10
4.959038e+10
4.100201e+10
6.767503e+10
7.464146e+10
8.442023e+10
1.115961e+11
1.575185e+11
1.841126e+11
2.061459e+11
2.411967e+11
2.56684e+11
2.658454e+11
2.658485e+11
2.566734e+11
2.411776e+11
2.061124e+11
1.840943e+11
1.575085e+11
1.11575e+11
8.440739e+10
7.464895e+10
6.768178e+10
4.097965e+10
4.186228e+10
6.885024e+10
7.544926e+10
8.441604e+10
1.030616e+11
1.27143e+11
1.632452e+11
1.843215e+11
2.001027e+11
2.24799e+11
2.248074e+11
2.00094e+11
1.842899e+11
1.631931e+11
1.271135e+11
1.030407e+11
8.439466e+10
7.542868e+10
6.883713e+10
4.184583e+10
4.227097e+10
6.883921e+10
7.464129e+10
8.224746e+10
9.052845e+10
1.054274e+11
1.251344e+11
1.542472e+11
1.623185e+11
1.623173e+11
1.542154e+11
1.251044e+11
1.054152e+11
9.049289e+10
8.221152e+10
7.461247e+10
6.881749e+10
4.225698e+10
4.183756e+10
6.766999e+10
7.066507e+10
7.649104e+10
8.263338e+10
8.796321e+10
9.704575e+10
1.039003e+11
1.038956e+11
9.702846e+10
8.792769e+10
8.261804e+10
7.648146e+10
7.064499e+10
6.764204e+10
4.18234e+10
4.098606e+10
4.957951e+10
6.896136e+10
7.054e+10
7.321198e+10
7.666473e+10
7.944332e+10
7.944209e+10
7.665565e+10
7.3189e+10
7.051139e+10
6.895641e+10
4.957394e+10
4.097359e+10
3.998634e+10
4.7107e+10
4.914293e+10
5.054028e+10
5.143003e+10
5.142829e+10
5.054757e+10
4.914878e+10
4.710664e+10
3.997749e+10
3.371777e+10
3.968251e+10
4.091482e+10
4.136627e+10
4.135846e+10
4.089022e+10
3.963302e+10
3.368515e+10
3.369321e+10
4.223229e+10
4.685016e+10
6.471524e+10
6.682344e+10
6.820772e+10
6.883524e+10
6.882731e+10
6.818058e+10
6.677766e+10
6.470161e+10
4.685167e+10
4.224276e+10
3.372637e+10
3.738495e+10
6.243011e+10
6.863568e+10
7.854391e+10
8.859135e+10
9.282483e+10
9.539496e+10
9.657647e+10
9.656922e+10
9.537286e+10
9.278911e+10
8.855413e+10
7.853147e+10
6.863356e+10
6.244752e+10
3.742685e+10
3.498912e+10
4.544155e+10
6.727535e+10
8.426657e+10
1.044915e+11
1.356329e+11
1.478652e+11
1.542189e+11
1.583226e+11
1.604201e+11
1.604083e+11
1.582894e+11
1.541698e+11
1.478094e+11
1.355873e+11
1.044724e+11
8.428491e+10
6.727943e+10
4.546454e+10
3.50097e+10
3.525891e+10
6.068591e+10
7.151576e+10
9.686491e+10
1.384673e+11
1.634462e+11
1.843733e+11
2.168977e+11
2.316911e+11
2.403334e+11
2.445588e+11
2.445484e+11
2.403091e+11
2.316647e+11
2.168862e+11
1.844027e+11
1.634872e+11
1.384949e+11
9.686472e+10
7.154438e+10
6.069928e+10
3.527372e+10
3.497919e+10
6.069383e+10
7.419494e+10
1.01371e+11
1.504916e+11
1.823223e+11
2.24103e+11
2.506784e+11
2.738299e+11
2.911238e+11
3.032808e+11
3.092169e+11
3.092092e+11
3.032692e+11
2.911005e+11
2.738064e+11
2.506756e+11
2.241085e+11
1.823355e+11
1.505162e+11
1.01403e+11
7.420086e+10
6.070155e+10
3.499668e+10
4.543862e+10
7.150853e+10
1.013678e+11
1.530911e+11
1.891372e+11
2.383764e+11
2.740305e+11
3.030743e+11
3.284513e+11
3.493238e+11
3.657641e+11
3.722631e+11
3.722581e+11
3.657488e+11
3.493088e+11
3.284542e+11
3.031025e+11
2.74067e+11
2.384207e+11
1.891734e+11
1.530981e+11
1.013838e+11
7.153208e+10
4.545931e+10
3.739634e+10
6.72326e+10
9.681037e+10
1.504846e+11
1.89106e+11
2.426297e+11
2.850491e+11
3.225933e+11
3.552606e+11
3.844224e+11
4.055991e+11
4.208329e+11
4.295285e+11
4.29531e+11
4.208418e+11
4.056176e+11
3.844576e+11
3.553152e+11
3.226576e+11
2.851333e+11
2.427066e+11
1.89175e+11
1.505313e+11
9.685204e+10
6.726746e+10
3.740821e+10
3.366442e+10
6.238815e+10
8.420763e+10
1.383918e+11
1.823065e+11
2.383622e+11
2.850365e+11
3.29887e+11
3.720049e+11
4.054716e+11
4.331469e+11
4.560746e+11
4.721925e+11
4.809166e+11
4.809254e+11
4.722199e+11
4.561232e+11
4.332179e+11
4.055532e+11
3.720952e+11
3.299935e+11
2.851335e+11
2.38447e+11
1.823721e+11
1.384228e+11
8.426609e+10
6.243263e+10
3.368365e+10
4.220229e+10
6.857784e+10
1.043866e+11
1.633915e+11
2.240368e+11
2.739803e+11
3.225312e+11
3.719564e+11
4.133467e+11
4.492479e+11
4.781168e+11
5.004959e+11
5.155172e+11
5.232016e+11
5.232148e+11
5.155586e+11
5.00569e+11
4.782172e+11
4.49364e+11
4.134748e+11
3.720915e+11
3.226569e+11
2.740984e+11
2.241361e+11
1.634297e+11
1.044675e+11
6.864019e+10
4.223526e+10
4.679669e+10
7.844165e+10
1.354513e+11
1.843143e+11
2.505784e+11
3.029755e+11
3.551425e+11
4.053809e+11
4.491987e+11
4.862206e+11
5.147749e+11
5.357744e+11
5.495841e+11
5.564838e+11
5.565003e+11
5.496345e+11
5.358623e+11
5.148958e+11
4.863654e+11
4.493614e+11
4.055547e+11
3.553155e+11
3.031332e+11
2.507167e+11
1.84397e+11
1.356135e+11
7.853445e+10
4.684524e+10
3.367212e+10
6.463563e+10
8.844275e+10
1.476742e+11
2.167751e+11
2.736945e+11
3.28307e+11
3.842835e+11
4.330288e+11
4.780271e+11
5.147278e+11
5.424515e+11
5.623796e+11
5.753194e+11
5.817165e+11
5.81734e+11
5.75373e+11
5.624712e+11
5.42578e+11
5.148827e+11
4.782025e+11
4.33216e+11
3.844727e+11
3.284782e+11
2.738536e+11
2.169085e+11
1.478544e+11
8.855898e+10
6.469058e+10
3.37038e+10
3.959133e+10
6.670461e+10
9.268678e+10
1.540507e+11
2.315399e+11
2.909608e+11
3.491277e+11
4.054198e+11
4.559107e+11
5.003577e+11
5.356777e+11
5.623318e+11
5.814342e+11
5.938043e+11
5.999102e+11
5.999264e+11
5.938548e+11
5.815206e+11
5.624541e+11
5.358327e+11
5.005355e+11
4.560985e+11
4.056108e+11
3.49333e+11
2.911385e+11
2.316976e+11
1.542136e+11
9.279003e+10
6.678667e+10
3.964829e+10
4.083609e+10
6.809398e+10
9.526016e+10
1.581766e+11
2.401769e+11
3.031102e+11
3.655605e+11
4.206224e+11
4.719862e+11
5.15331e+11
5.494391e+11
5.752263e+11
5.937619e+11
6.057706e+11
6.116929e+11
6.117033e+11
6.05809e+11
5.938337e+11
5.753375e+11
5.4959e+11
5.155119e+11
4.721825e+11
4.208268e+11
3.657714e+11
3.032925e+11
2.403457e+11
1.583248e+11
9.536958e+10
6.817968e+10
4.088694e+10
4.130506e+10
6.87443e+10
9.645711e+10
1.602954e+11
2.444033e+11
3.090258e+11
3.72042e+11
4.292876e+11
4.806718e+11
5.229737e+11
5.562963e+11
5.815829e+11
5.99833e+11
6.116645e+11
6.174978e+11
6.175005e+11
6.116921e+11
5.998965e+11
5.816898e+11
5.564464e+11
5.231579e+11
4.808758e+11
4.294997e+11
3.722558e+11
3.092214e+11
2.445739e+11
1.604307e+11
9.656155e+10
6.882077e+10
4.135304e+10
4.130899e+10
6.874888e+10
9.646026e+10
1.603032e+11
2.443997e+11
3.090117e+11
3.720253e+11
4.292703e+11
4.806561e+11
5.229591e+11
5.562812e+11
5.815681e+11
5.998203e+11
6.116566e+11
6.174954e+11
6.174963e+11
6.116813e+11
5.998804e+11
5.816702e+11
5.564255e+11
5.231385e+11
4.808601e+11
4.294835e+11
3.722335e+11
3.09203e+11
2.445607e+11
1.604189e+11
9.655521e+10
6.881916e+10
4.135681e+10
4.085512e+10
6.811824e+10
9.527673e+10
1.582022e+11
2.401698e+11
3.030928e+11
3.655439e+11
4.205849e+11
4.719453e+11
5.152903e+11
5.493985e+11
5.75189e+11
5.937308e+11
6.057475e+11
6.116758e+11
6.1168e+11
6.057738e+11
5.937879e+11
5.752839e+11
5.495339e+11
5.154607e+11
4.721408e+11
4.207893e+11
3.657346e+11
3.032691e+11
2.403115e+11
1.582794e+11
9.534808e+10
6.817198e+10
4.089233e+10
3.963045e+10
6.674536e+10
9.271574e+10
1.541022e+11
2.315382e+11
2.909525e+11
3.491242e+11
4.053903e+11
4.55866e+11
5.003069e+11
5.356259e+11
5.622838e+11
5.813932e+11
5.937689e+11
5.998753e+11
5.998798e+11
5.937938e+11
5.814443e+11
5.62368e+11
5.357467e+11
5.004596e+11
4.560393e+11
4.055694e+11
3.492841e+11
2.911022e+11
2.316534e+11
1.541273e+11
9.275585e+10
6.677912e+10
3.965412e+10
3.371225e+10
6.46678e+10
8.85064e+10
1.477724e+11
2.167828e+11
2.737029e+11
3.282953e+11
3.842689e+11
4.329991e+11
4.779856e+11
5.1468e+11
5.424038e+11
5.623352e+11
5.752737e+11
5.816603e+11
5.816633e+11
5.752925e+11
5.623755e+11
5.424719e+11
5.147784e+11
4.781088e+11
4.331364e+11
3.844175e+11
3.28447e+11
2.738237e+11
2.168777e+11
1.477485e+11
8.85216e+10
6.470026e+10
3.37237e+10
4.682772e+10
7.850294e+10
1.355752e+11
1.843135e+11
2.506048e+11
3.029652e+11
3.551415e+11
4.053699e+11
4.491723e+11
4.861831e+11
5.147326e+11
5.357261e+11
5.495228e+11
5.563917e+11
5.563921e+11
5.495306e+11
5.357485e+11
5.147759e+11
4.86251e+11
4.492594e+11
4.054682e+11
3.552595e+11
3.030865e+11
2.506819e+11
1.843979e+11
1.355165e+11
7.849429e+10
4.68384e+10
4.221014e+10
6.861647e+10
1.044618e+11
1.634256e+11
2.240825e+11
2.739738e+11
3.225194e+11
3.719464e+11
4.133202e+11
4.492109e+11
4.780738e+11
5.00437e+11
5.154343e+11
5.230724e+11
5.230706e+11
5.15431e+11
5.004387e+11
4.780895e+11
4.492491e+11
4.133758e+11
3.72011e+11
3.226028e+11
2.740471e+11
2.241096e+11
1.634828e+11
1.044328e+11
6.861523e+10
4.223317e+10
3.365706e+10
6.243755e+10
8.426948e+10
1.384436e+11
1.823459e+11
2.383601e+11
2.850191e+11
3.298661e+11
3.719657e+11
4.054254e+11
4.330983e+11
4.560005e+11
4.720896e+11
4.807684e+11
4.807673e+11
4.720794e+11
4.559847e+11
4.330886e+11
4.054409e+11
3.719987e+11
3.299061e+11
2.850664e+11
2.383896e+11
1.823193e+11
1.384719e+11
8.42347e+10
6.241327e+10
3.369137e+10
3.738172e+10
6.726817e+10
9.684809e+10
1.504808e+11
1.891251e+11
2.426203e+11
2.850267e+11
3.225436e+11
3.55194e+11
3.843522e+11
4.055014e+11
4.207038e+11
4.293588e+11
4.293592e+11
4.206924e+11
4.054758e+11
3.843277e+11
3.551927e+11
3.225539e+11
2.85042e+11
2.42641e+11
1.891391e+11
1.504961e+11
9.683965e+10
6.724716e+10
3.738886e+10
4.543861e+10
7.152501e+10
1.013773e+11
1.530925e+11
1.891101e+11
2.383684e+11
2.740019e+11
3.030142e+11
3.283464e+11
3.491928e+11
3.656259e+11
3.721043e+11
3.721002e+11
3.656088e+11
3.491697e+11
3.283301e+11
3.029924e+11
2.73985e+11
2.383587e+11
1.891092e+11
1.530829e+11
1.013523e+11
7.149733e+10
4.542298e+10
3.499334e+10
6.070464e+10
7.419631e+10
1.013661e+11
1.505131e+11
1.823405e+11
2.240585e+11
2.506087e+11
2.737256e+11
2.909953e+11
3.031407e+11
3.09054e+11
3.090489e+11
3.031357e+11
2.909783e+11
2.737047e+11
2.505949e+11
2.240627e+11
1.82331e+11
1.504921e+11
1.013437e+11
7.416964e+10
6.067559e+10
3.497444e+10
3.525245e+10
6.07058e+10
7.152776e+10
9.681925e+10
1.383855e+11
1.633493e+11
1.842981e+11
2.167665e+11
2.315243e+11
2.40158e+11
2.443715e+11
2.443649e+11
2.401722e+11
2.315479e+11
2.167813e+11
1.842895e+11
1.633792e+11
1.384152e+11
9.681561e+10
7.150257e+10
6.068e+10
3.523828e+10
3.499084e+10
4.544703e+10
6.723541e+10
8.42208e+10
1.043776e+11
1.354776e+11
1.476596e+11
1.539883e+11
1.58107e+11
1.602967e+11
1.602727e+11
1.581532e+11
1.540582e+11
1.477257e+11
1.355294e+11
1.044017e+11
8.421325e+10
6.72279e+10
4.541919e+10
3.497812e+10
3.73703e+10
6.238342e+10
6.856928e+10
7.844065e+10
8.843059e+10
9.26374e+10
9.520505e+10
9.641679e+10
9.63889e+10
9.521726e+10
9.265003e+10
8.843829e+10
7.843242e+10
6.854555e+10
6.238625e+10
3.735398e+10
3.363742e+10
4.218911e+10
4.678536e+10
6.46145e+10
6.667508e+10
6.805179e+10
6.873758e+10
6.872674e+10
6.804621e+10
6.666169e+10
6.461029e+10
4.676835e+10
4.216131e+10
3.364324e+10
3.367079e+10
3.957694e+10
4.080129e+10
4.127853e+10
4.12734e+10
4.079211e+10
3.955858e+10
3.363419e+10
3.000484e+10
3.505953e+10
3.605216e+10
3.604296e+10
3.502696e+10
2.999074e+10
2.855751e+10
3.74434e+10
4.271079e+10
5.020354e+10
6.879711e+10
7.206236e+10
7.326004e+10
7.32337e+10
7.199565e+10
6.87184e+10
5.02096e+10
4.273163e+10
3.745477e+10
2.858616e+10
2.879276e+10
3.968034e+10
6.30998e+10
7.636657e+10
8.949787e+10
1.15619e+11
1.271081e+11
1.313186e+11
1.333225e+11
1.332824e+11
1.312199e+11
1.270302e+11
1.156265e+11
8.949766e+10
7.634698e+10
6.31169e+10
3.972035e+10
2.884917e+10
3.259614e+10
5.908046e+10
8.015723e+10
1.173823e+11
1.355513e+11
1.535333e+11
1.704234e+11
1.981494e+11
2.085638e+11
2.126578e+11
2.126221e+11
2.084727e+11
1.980487e+11
1.70353e+11
1.534594e+11
1.355085e+11
1.173127e+11
8.020792e+10
5.912005e+10
3.265923e+10
3.543053e+10
6.825907e+10
9.530288e+10
1.375553e+11
1.672823e+11
2.069138e+11
2.326657e+11
2.522126e+11
2.685348e+11
2.784684e+11
2.830226e+11
2.829912e+11
2.783851e+11
2.684302e+11
2.521262e+11
2.326205e+11
2.069123e+11
1.673007e+11
1.375387e+11
9.536075e+10
6.829439e+10
3.547447e+10
3.714501e+10
7.668036e+10
1.221054e+11
1.532847e+11
1.849472e+11
2.373963e+11
2.74943e+11
3.05724e+11
3.267418e+11
3.423947e+11
3.524612e+11
3.573197e+11
3.572917e+11
3.523864e+11
3.422971e+11
3.266506e+11
3.056602e+11
2.749255e+11
2.374435e+11
1.850081e+11
1.532951e+11
1.221158e+11
7.669554e+10
3.716499e+10
3.543251e+10
7.668394e+10
1.289312e+11
1.65864e+11
2.179193e+11
2.616975e+11
3.067348e+11
3.434621e+11
3.739611e+11
3.993846e+11
4.179583e+11
4.29787e+11
4.355209e+11
4.354975e+11
4.29727e+11
4.178868e+11
3.993305e+11
3.739436e+11
3.434769e+11
3.067787e+11
2.61734e+11
2.179509e+11
1.658776e+11
1.288774e+11
7.669129e+10
3.545068e+10
3.259921e+10
6.824397e+10
1.221334e+11
1.658495e+11
2.242736e+11
2.761418e+11
3.256582e+11
3.68758e+11
4.085735e+11
4.422516e+11
4.699053e+11
4.90399e+11
5.03795e+11
5.103245e+11
5.103068e+11
5.037522e+11
4.903475e+11
4.698689e+11
4.422481e+11
4.085976e+11
3.68804e+11
3.257078e+11
2.761885e+11
2.243023e+11
1.658718e+11
1.221345e+11
6.827504e+10
3.262068e+10
2.879232e+10
5.905719e+10
9.532089e+10
1.532589e+11
2.17905e+11
2.761386e+11
3.320827e+11
3.811554e+11
4.282173e+11
4.708331e+11
5.067918e+11
5.361503e+11
5.584386e+11
5.733316e+11
5.803864e+11
5.803743e+11
5.733022e+11
5.584105e+11
5.361475e+11
5.068255e+11
4.708938e+11
4.282951e+11
3.812305e+11
3.321383e+11
2.761863e+11
2.179433e+11
1.532965e+11
9.537263e+10
5.909932e+10
2.881234e+10
3.967082e+10
8.016029e+10
1.374656e+11
1.849748e+11
2.616722e+11
3.256422e+11
3.811433e+11
4.345156e+11
4.8442e+11
5.289341e+11
5.668667e+11
5.978421e+11
6.212805e+11
6.371349e+11
6.452268e+11
6.452244e+11
6.371325e+11
6.212927e+11
5.978864e+11
5.669471e+11
5.290429e+11
4.845497e+11
4.346429e+11
3.812536e+11
3.257264e+11
2.617388e+11
1.85024e+11
1.375487e+11
8.022018e+10
3.971805e+10
2.855725e+10
6.30441e+10
1.172671e+11
1.67223e+11
2.373892e+11
3.06686e+11
3.687187e+11
4.281822e+11
4.843916e+11
5.361675e+11
5.823372e+11
6.215889e+11
6.537022e+11
6.786982e+11
6.958791e+11
7.047351e+11
7.047434e+11
6.95908e+11
6.787576e+11
6.53801e+11
6.217223e+11
5.824983e+11
5.363474e+11
4.845672e+11
4.283391e+11
3.688464e+11
3.067799e+11
2.374644e+11
1.672456e+11
1.173715e+11
6.311062e+10
2.86157e+10
3.738612e+10
7.627895e+10
1.354198e+11
2.068648e+11
2.748641e+11
3.433718e+11
4.084791e+11
4.707429e+11
5.288442e+11
5.822745e+11
6.295129e+11
6.704803e+11
7.041857e+11
7.301906e+11
7.478452e+11
7.568175e+11
7.568351e+11
7.479013e+11
7.302915e+11
7.043335e+11
6.706666e+11
6.297272e+11
5.825047e+11
5.290707e+11
4.709532e+11
4.086579e+11
3.435044e+11
2.749791e+11
2.069075e+11
1.354857e+11
7.635322e+10
3.745349e+10
4.267195e+10
8.94236e+10
1.534494e+11
2.326128e+11
3.055811e+11
3.738285e+11
4.421002e+11
5.066314e+11
5.667007e+11
6.214524e+11
6.704039e+11
7.129109e+11
7.475165e+11
7.737418e+11
7.913269e+11
8.001714e+11
8.001953e+11
7.914007e+11
7.738697e+11
7.476981e+11
7.131376e+11
6.70663e+11
6.217303e+11
5.669806e+11
5.068968e+11
4.423351e+11
3.740141e+11
3.057467e+11
2.326717e+11
1.53477e+11
8.946122e+10
4.270185e+10
5.017077e+10
1.156292e+11
1.704221e+11
2.521494e+11
3.265795e+11
3.992024e+11
4.696968e+11
5.359207e+11
5.976105e+11
6.534987e+11
7.040358e+11
7.474392e+11
7.823337e+11
8.084357e+11
8.257795e+11
8.34448e+11
8.344742e+11
8.258597e+11
8.08573e+11
7.825287e+11
7.476849e+11
7.043196e+11
6.538064e+11
5.979269e+11
5.362271e+11
4.699772e+11
3.994399e+11
3.267767e+11
2.522305e+11
1.704112e+11
1.155554e+11
5.016998e+10
2.998944e+10
6.872103e+10
1.271162e+11
1.981428e+11
2.684588e+11
3.422297e+11
4.177451e+11
4.901474e+11
5.581505e+11
6.209875e+11
6.78428e+11
7.299688e+11
7.735896e+11
8.08361e+11
8.342042e+11
8.513006e+11
8.598223e+11
8.598471e+11
8.513777e+11
8.343381e+11
8.085553e+11
7.738398e+11
7.302618e+11
6.787489e+11
6.213243e+11
5.584892e+11
4.904593e+11
4.180159e+11
3.424403e+11
2.685535e+11
1.981317e+11
1.270477e+11
6.872282e+10
2.998503e+10
3.499706e+10
7.199529e+10
1.312981e+11
2.085386e+11
2.783855e+11
3.523078e+11
4.295703e+11
5.035255e+11
5.730147e+11
6.367981e+11
6.955518e+11
7.475574e+11
7.911051e+11
8.256362e+11
8.512341e+11
8.681375e+11
8.765501e+11
8.765699e+11
8.682023e+11
8.513528e+11
8.258179e+11
7.913492e+11
7.478518e+11
6.958798e+11
6.37146e+11
5.733664e+11
5.038523e+11
4.298556e+11
3.525264e+11
2.785078e+11
2.085655e+11
1.312715e+11
7.200243e+10
3.503029e+10
3.600932e+10
7.321324e+10
1.332914e+11
2.126408e+11
2.829634e+11
3.57196e+11
4.353222e+11
5.100542e+11
5.800562e+11
6.448608e+11
7.043643e+11
7.564758e+11
7.99891e+11
8.342469e+11
8.597026e+11
8.76502e+11
8.848565e+11
8.848709e+11
8.76555e+11
8.598082e+11
8.344181e+11
8.001286e+11
7.567682e+11
7.046932e+11
6.452097e+11
5.804075e+11
5.103823e+11
4.356049e+11
3.574131e+11
2.831035e+11
2.127128e+11
1.333356e+11
7.325202e+10
3.604884e+10
3.601085e+10
7.322334e+10
1.333232e+11
2.126554e+11
2.82978e+11
3.572091e+11
4.353293e+11
5.100536e+11
5.800492e+11
6.448474e+11
7.043475e+11
7.564591e+11
7.998743e+11
8.342307e+11
8.596881e+11
8.7649e+11
8.848458e+11
8.848576e+11
8.76536e+11
8.597837e+11
8.343896e+11
8.000987e+11
7.567396e+11
7.046676e+11
6.451865e+11
5.803864e+11
5.103667e+11
4.355946e+11
3.574105e+11
2.831178e+11
2.12739e+11
1.333682e+11
7.327392e+10
3.605809e+10
3.502368e+10
7.201693e+10
1.313144e+11
2.085544e+11
2.78419e+11
3.523443e+11
4.295897e+11
5.035291e+11
5.730056e+11
6.367698e+11
6.955118e+11
7.475129e+11
7.910605e+11
8.255952e+11
8.51198e+11
8.681047e+11
8.765161e+11
8.76527e+11
8.68146e+11
8.512832e+11
8.25739e+11
7.912676e+11
7.477749e+11
6.958121e+11
6.370869e+11
5.733167e+11
5.038166e+11
4.29827e+11
3.525171e+11
2.785512e+11
2.086436e+11
1.313669e+11
7.206639e+10
3.506252e+10
3.002295e+10
6.870299e+10
1.270816e+11
1.981436e+11
2.684956e+11
3.42288e+11
4.17778e+11
4.901619e+11
5.581516e+11
6.209659e+11
6.783865e+11
7.29917e+11
7.735351e+11
8.083091e+11
8.341557e+11
8.512512e+11
8.597645e+11
8.597732e+11
8.512852e+11
8.342279e+11
8.084343e+11
7.73719e+11
7.301517e+11
6.786559e+11
6.212497e+11
5.584281e+11
4.904152e+11
4.179802e+11
3.424233e+11
2.686185e+11
1.982403e+11
1.27161e+11
6.876281e+10
3.005336e+10
5.017927e+10
1.155492e+11
1.704282e+11
2.521928e+11
3.26665e+11
3.992518e+11
4.697306e+11
5.359325e+11
5.976044e+11
6.534737e+11
7.039968e+11
7.473926e+11
7.822844e+11
8.083833e+11
8.257173e+11
8.343673e+11
8.343726e+11
8.257406e+11
8.084376e+11
7.823848e+11
7.475452e+11
7.041948e+11
6.537037e+11
5.97852e+11
5.361767e+11
4.69944e+11
3.994194e+11
3.267607e+11
2.523044e+11
1.705144e+11
1.156608e+11
5.021052e+10
4.267736e+10
8.944337e+10
1.534814e+11
2.326434e+11
3.056801e+11
3.738893e+11
4.421553e+11
5.066563e+11
5.667095e+11
6.214452e+11
6.703795e+11
7.128738e+11
7.474692e+11
7.736808e+11
7.912435e+11
8.000561e+11
8.000571e+11
7.912528e+11
7.737118e+11
7.475379e+11
7.129878e+11
6.70534e+11
6.216291e+11
5.669137e+11
5.068544e+11
4.423188e+11
3.740257e+11
3.057413e+11
2.327462e+11
1.535435e+11
8.947757e+10
4.268963e+10
3.742879e+10
7.633765e+10
1.355035e+11
2.068903e+11
2.749409e+11
3.434508e+11
4.085534e+11
4.707787e+11
5.288565e+11
5.822703e+11
6.294872e+11
6.704374e+11
7.041261e+11
7.301067e+11
7.477286e+11
7.566606e+11
7.566574e+11
7.477237e+11
7.301133e+11
7.041618e+11
6.705128e+11
6.295992e+11
5.824073e+11
5.290091e+11
4.709189e+11
4.086616e+11
3.435528e+11
2.749986e+11
2.069847e+11
1.355079e+11
7.633348e+10
3.741656e+10
2.858838e+10
6.308922e+10
1.174003e+11
1.672398e+11
2.374139e+11
3.067528e+11
3.68787e+11
4.282207e+11
4.844043e+11
5.361587e+11
5.823009e+11
6.215286e+11
6.53619e+11
6.785822e+11
6.957261e+11
7.045437e+11
7.04538e+11
6.957112e+11
6.785692e+11
6.536269e+11
6.215713e+11
5.823745e+11
5.362524e+11
4.845074e+11
4.283106e+11
3.688553e+11
3.068385e+11
2.374839e+11
1.673264e+11
1.173179e+11
6.309093e+10
2.858208e+10
3.968744e+10
8.017681e+10
1.37554e+11
1.849416e+11
2.617281e+11
3.25693e+11
3.811822e+11
4.345348e+11
4.844148e+11
5.28893e+11
5.667891e+11
5.97731e+11
6.211311e+11
6.369495e+11
6.450106e+11
6.450046e+11
6.36931e+11
6.21108e+11
5.977212e+11
5.668059e+11
5.289324e+11
4.844693e+11
4.345982e+11
3.812434e+11
3.257535e+11
2.617876e+11
1.850221e+11
1.375573e+11
8.017651e+10
3.968626e+10
2.878736e+10
5.909017e+10
9.535271e+10
1.533683e+11
2.179981e+11
2.762013e+11
3.321314e+11
3.811898e+11
4.282295e+11
4.708023e+11
5.067122e+11
5.360193e+11
5.582661e+11
5.731326e+11
5.801693e+11
5.801624e+11
5.731142e+11
5.582432e+11
5.360044e+11
5.067105e+11
4.70816e+11
4.282518e+11
3.812177e+11
3.321553e+11
2.762105e+11
2.17986e+11
1.53338e+11
9.533189e+10
5.90839e+10
2.881068e+10
3.259567e+10
6.829666e+10
1.222186e+11
1.658997e+11
2.243113e+11
2.761908e+11
3.257046e+11
3.687807e+11
4.08534e+11
4.421622e+11
4.697656e+11
4.902186e+11
5.035922e+11
5.101078e+11
5.101013e+11
5.035821e+11
4.902057e+11
4.697557e+11
4.421651e+11
4.085518e+11
3.687901e+11
3.257082e+11
2.762006e+11
2.243161e+11
1.659026e+11
1.221479e+11
6.826421e+10
3.260554e+10
3.543093e+10
7.669905e+10
1.290237e+11
1.658672e+11
2.179762e+11
2.617244e+11
3.067254e+11
3.433898e+11
3.738481e+11
3.992221e+11
4.177573e+11
4.295743e+11
4.353088e+11
4.35301e+11
4.295767e+11
4.177701e+11
3.992398e+11
3.738718e+11
3.434231e+11
3.067331e+11
2.617119e+11
2.179777e+11
1.65869e+11
1.289974e+11
7.668009e+10
3.542237e+10
3.713422e+10
7.669129e+10
1.22224e+11
1.533542e+11
1.849963e+11
2.374089e+11
2.74876e+11
3.055898e+11
3.265719e+11
3.421998e+11
3.522725e+11
3.571662e+11
3.571486e+11
3.522782e+11
3.422217e+11
3.266036e+11
3.056356e+11
2.749039e+11
2.373928e+11
1.849336e+11
1.533464e+11
1.222171e+11
7.668495e+10
3.712641e+10
3.541186e+10
6.825867e+10
9.536198e+10
1.375386e+11
1.671885e+11
2.068288e+11
2.325735e+11
2.521218e+11
2.684234e+11
2.78349e+11
2.828977e+11
2.828709e+11
2.783229e+11