/*--------------------------------*- C++ -*----------------------------------*\
  =========                 |
  \\      /  F ield         | OpenFOAM: The Open Source CFD Toolbox
   \\    /   O peration     | Website:  https://openfoam.org
    \\  /    A nd           | Version:  6
     \\/     M anipulation  |
\*---------------------------------------------------------------------------*/
FoamFile
{
    version     2.0;
    format      ascii;
    class       volScalarField;
    location    "49.8/region0/neutronTransport";
    object      flux0;
}
// * * * * * * * * * * * * * * * * * * * * * * * * * * * * * * * * * * * * * //

dimensions      [0 -2 -1 0 0 0 0];

internalField   nonuniform List<scalar> 
203709
(
4.247731e+16
4.604786e+16
4.604072e+16
4.247766e+16
4.428287e+16
4.880879e+16
5.842135e+16
5.799033e+16
5.798022e+16
5.840546e+16
4.878834e+16
4.425915e+16
4.33154e+16
4.896231e+16
5.921013e+16
5.927416e+16
6.08574e+16
6.12632e+16
6.125609e+16
6.083862e+16
5.924442e+16
5.916969e+16
4.891646e+16
4.326444e+16
4.33233e+16
5.759467e+16
5.900645e+16
6.12393e+16
6.242072e+16
6.34375e+16
6.38879e+16
6.3882e+16
6.341517e+16
6.238569e+16
6.119237e+16
5.89469e+16
5.752452e+16
4.325929e+16
4.897112e+16
5.900889e+16
6.158501e+16
6.342877e+16
6.481962e+16
6.581999e+16
6.631504e+16
6.630948e+16
6.579726e+16
6.478365e+16
6.338175e+16
6.152552e+16
5.893749e+16
4.889915e+16
4.42964e+16
5.922068e+16
6.124146e+16
6.342456e+16
6.531707e+16
6.681294e+16
6.784977e+16
6.836209e+16
6.835575e+16
6.783138e+16
6.67861e+16
6.527917e+16
6.337504e+16
6.117866e+16
5.914505e+16
4.422679e+16
4.882032e+16
5.928242e+16
6.241793e+16
6.48051e+16
6.680337e+16
6.836557e+16
6.940936e+16
6.990451e+16
6.989933e+16
6.939696e+16
6.834487e+16
6.677791e+16
6.477376e+16
6.236848e+16
5.921449e+16
4.875208e+16
4.25039e+16
5.844349e+16
6.087646e+16
6.344656e+16
6.582028e+16
6.784798e+16
6.941064e+16
7.039356e+16
7.088006e+16
7.087677e+16
7.038534e+16
6.939437e+16
6.782699e+16
6.578946e+16
6.339847e+16
6.08113e+16
5.836858e+16
4.242745e+16
4.606657e+16
5.80138e+16
6.1288e+16
6.391376e+16
6.633486e+16
6.837787e+16
6.991913e+16
7.089062e+16
7.14141e+16
7.139868e+16
7.088021e+16
6.990474e+16
6.835695e+16
6.630107e+16
6.386453e+16
6.122751e+16
5.794085e+16
4.59945e+16
4.607352e+16
5.802798e+16
6.129871e+16
6.39222e+16
6.634614e+16
6.83912e+16
6.993018e+16
7.090165e+16
7.143455e+16
7.141782e+16
7.089098e+16
6.991455e+16
6.83662e+16
6.631258e+16
6.387576e+16
6.12383e+16
5.795651e+16
4.600879e+16
4.250201e+16
5.846481e+16
6.089887e+16
6.347602e+16
6.585805e+16
6.788803e+16
6.944728e+16
7.042806e+16
7.09144e+16
7.09061e+16
7.041494e+16
6.942791e+16
6.785981e+16
6.58218e+16
6.34293e+16
6.084081e+16
5.839232e+16
4.244997e+16
4.883708e+16
5.931312e+16
6.246306e+16
6.486454e+16
6.686212e+16
6.841845e+16
6.945797e+16
6.995448e+16
6.994475e+16
6.944449e+16
6.839463e+16
6.683037e+16
6.482419e+16
6.241502e+16
5.926095e+16
4.878965e+16
4.431615e+16
5.925582e+16
6.128492e+16
6.347846e+16
6.537416e+16
6.687135e+16
6.790514e+16
6.842381e+16
6.841571e+16
6.789307e+16
6.68481e+16
6.534435e+16
6.344222e+16
6.124411e+16
5.920996e+16
4.427467e+16
4.900199e+16
5.905107e+16
6.163509e+16
6.348475e+16
6.487841e+16
6.588319e+16
6.640708e+16
6.640098e+16
6.586946e+16
6.485798e+16
6.345849e+16
6.16051e+16
5.902116e+16
4.897068e+16
4.33544e+16
5.764377e+16
5.905494e+16
6.129386e+16
6.247645e+16
6.349914e+16
6.397722e+16
6.397447e+16
6.349135e+16
6.246442e+16
6.127581e+16
5.903242e+16
5.761902e+16
4.332509e+16
4.335213e+16
4.900305e+16
5.926389e+16
5.93238e+16
6.0918e+16
6.134258e+16
6.134607e+16
6.091738e+16
5.932546e+16
5.925885e+16
4.899028e+16
4.333729e+16
4.431876e+16
4.884701e+16
5.848085e+16
5.807275e+16
5.808127e+16
5.848734e+16
4.885314e+16
4.432211e+16
4.25204e+16
4.609443e+16
4.610047e+16
4.252858e+16
3.57913e+16
4.004918e+16
4.159974e+16
4.266667e+16
4.332906e+16
4.33248e+16
4.265449e+16
4.157958e+16
4.002246e+16
3.57638e+16
3.643407e+16
4.174336e+16
5.135943e+16
5.311059e+16
5.494195e+16
5.684574e+16
5.834023e+16
5.833547e+16
5.683378e+16
5.491378e+16
5.306283e+16
5.129295e+16
4.16762e+16
3.636766e+16
3.7294e+16
5.057561e+16
5.347784e+16
5.736102e+16
6.091809e+16
6.383095e+16
6.717587e+16
7.00492e+16
7.004321e+16
6.715953e+16
6.379045e+16
6.085742e+16
5.729267e+16
5.339897e+16
5.049296e+16
3.72249e+16
3.765663e+16
5.151834e+16
5.603628e+16
6.073548e+16
6.551592e+16
7.171501e+16
7.917023e+16
8.494571e+16
8.746127e+16
8.745245e+16
8.491411e+16
7.912318e+16
7.166002e+16
6.54543e+16
6.066149e+16
5.594919e+16
5.141272e+16
3.757714e+16
3.729358e+16
5.151275e+16
5.657523e+16
6.204952e+16
7.042649e+16
8.024638e+16
8.906774e+16
9.656542e+16
1.021141e+17
1.113344e+17
1.113218e+17
1.020843e+17
9.651655e+16
8.899938e+16
8.017131e+16
7.033905e+16
6.195801e+16
5.646636e+16
5.139392e+16
3.720265e+16
3.643962e+16
5.058991e+16
5.60412e+16
6.205458e+16
7.320316e+16
8.646641e+16
9.653402e+16
1.047794e+17
1.18159e+17
1.241874e+17
1.277369e+17
1.277224e+17
1.241463e+17
1.180942e+17
1.046996e+17
9.643728e+16
8.635085e+16
7.308409e+16
6.193273e+16
5.591359e+16
5.045846e+16
3.633913e+16
4.173864e+16
5.347981e+16
6.074302e+16
7.043466e+16
8.647129e+16
1.003714e+17
1.165189e+17
1.255397e+17
1.325909e+17
1.369588e+17
1.391774e+17
1.391611e+17
1.369123e+17
1.325191e+17
1.254425e+17
1.163973e+17
1.002368e+17
8.63301e+16
7.029823e+16
6.061171e+16
5.335073e+16
4.162561e+16
3.580411e+16
5.136335e+16
5.736226e+16
6.552829e+16
8.025817e+16
9.655519e+16
1.165275e+17
1.287509e+17
1.367047e+17
1.422256e+17
1.457401e+17
1.474703e+17
1.474555e+17
1.456956e+17
1.421545e+17
1.366075e+17
1.28629e+17
1.163868e+17
9.641266e+16
8.012362e+16
6.540028e+16
5.722936e+16
5.121778e+16
3.569184e+16
4.006264e+16
5.313195e+16
6.092727e+16
7.173849e+16
8.910234e+16
1.048127e+17
1.255564e+17
1.367093e+17
1.439616e+17
1.488834e+17
1.52005e+17
1.535241e+17
1.535111e+17
1.519666e+17
1.488217e+17
1.438749e+17
1.365952e+17
1.254175e+17
1.046657e+17
8.895474e+16
7.159339e+16
6.079257e+16
5.29872e+16
3.994234e+16
4.161611e+16
5.497355e+16
6.385129e+16
7.919233e+16
9.661262e+16
1.182014e+17
1.326142e+17
1.422335e+17
1.488868e+17
1.53485e+17
1.564129e+17
1.578421e+17
1.578308e+17
1.563806e+17
1.53432e+17
1.488143e+17
1.421368e+17
1.324866e+17
1.180469e+17
9.644611e+16
7.90547e+16
6.372415e+16
5.483158e+16
4.149871e+16
4.268517e+16
5.688435e+16
6.722015e+16
8.499674e+16
1.021771e+17
1.242504e+17
1.370041e+17
1.457709e+17
1.520296e+17
1.564305e+17
1.592363e+17
1.606099e+17
1.605986e+17
1.592068e+17
1.563828e+17
1.51965e+17
1.456842e+17
1.368868e+17
1.241045e+17
1.020212e+17
8.48549e+16
6.708318e+16
5.674941e+16
4.257648e+16
4.334764e+16
5.83747e+16
7.009309e+16
8.752436e+16
1.114169e+17
1.278223e+17
1.39255e+17
1.475389e+17
1.535858e+17
1.578926e+17
1.606407e+17
1.619951e+17
1.619776e+17
1.606076e+17
1.578436e+17
1.535203e+17
1.474527e+17
1.391436e+17
1.276877e+17
1.112699e+17
8.738981e+16
6.996938e+16
5.825533e+16
4.324725e+16
4.33434e+16
5.836653e+16
7.008476e+16
8.752152e+16
1.114245e+17
1.278368e+17
1.392749e+17
1.475634e+17
1.536121e+17
1.579178e+17
1.606665e+17
1.620253e+17
1.620069e+17
1.606331e+17
1.578686e+17
1.535457e+17
1.474792e+17
1.391707e+17
1.277152e+17
1.112946e+17
8.740045e+16
6.997339e+16
5.82583e+16
4.324893e+16
4.267566e+16
5.687495e+16
6.722525e+16
8.501266e+16
1.021927e+17
1.242874e+17
1.370606e+17
1.458425e+17
1.521068e+17
1.565056e+17
1.593103e+17
1.606857e+17
1.606717e+17
1.592791e+17
1.56458e+17
1.520429e+17
1.457638e+17
1.369672e+17
1.241836e+17
1.020914e+17
8.49071e+16
6.712685e+16
5.677934e+16
4.258847e+16
4.161261e+16
5.497522e+16
6.387483e+16
7.922459e+16
9.664332e+16
1.182569e+17
1.326957e+17
1.423357e+17
1.489978e+17
1.535962e+17
1.565246e+17
1.579578e+17
1.579457e+17
1.564981e+17
1.535537e+17
1.489409e+17
1.422666e+17
1.326161e+17
1.181703e+17
9.656046e+16
7.912826e+16
6.378148e+16
5.48908e+16
4.153312e+16
4.006672e+16
5.314308e+16
6.095843e+16
7.176729e+16
8.915373e+16
1.048791e+17
1.25647e+17
1.368186e+17
1.44084e+17
1.490151e+17
1.521435e+17
1.53671e+17
1.536618e+17
1.521242e+17
1.489835e+17
1.440411e+17
1.367657e+17
1.255847e+17
1.048072e+17
8.907593e+16
7.169634e+16
6.0875e+16
5.306642e+16
3.999406e+16
3.581045e+16
5.138178e+16
5.739621e+16
6.55615e+16
8.031808e+16
9.66269e+16
1.16622e+17
1.288628e+17
1.368329e+17
1.423681e+17
1.458967e+17
1.476367e+17
1.476314e+17
1.458846e+17
1.423493e+17
1.368064e+17
1.288286e+17
1.165781e+17
9.657015e+16
8.025389e+16
6.550577e+16
5.732353e+16
5.131093e+16
3.575054e+16
4.176653e+16
5.35111e+16
6.077517e+16
7.048489e+16
8.654386e+16
1.004611e+17
1.166307e+17
1.256711e+17
1.327391e+17
1.371258e+17
1.393528e+17
1.39352e+17
1.37123e+17
1.327341e+17
1.256614e+17
1.166169e+17
1.004399e+17
8.650726e+16
7.044242e+16
6.07357e+16
5.345078e+16
4.169974e+16
3.646246e+16
5.061155e+16
5.607112e+16
6.209665e+16
7.326181e+16
8.654588e+16
9.663919e+16
1.049075e+17
1.183086e+17
1.243612e+17
1.279235e+17
1.279284e+17
1.243675e+17
1.183155e+17
1.049105e+17
9.664373e+16
8.654537e+16
7.324713e+16
6.207322e+16
5.604505e+16
5.056695e+16
3.640331e+16
3.731961e+16
5.15566e+16
5.661938e+16
6.209364e+16
7.04817e+16
8.032618e+16
8.918302e+16
9.669817e+16
1.022649e+17
1.11507e+17
1.115163e+17
1.022796e+17
9.671026e+16
8.919058e+16
8.034035e+16
7.049266e+16
6.209509e+16
5.660993e+16
5.153748e+16
3.728615e+16
3.76846e+16
5.155432e+16
5.60759e+16
6.078707e+16
6.557742e+16
7.178012e+16
7.92592e+16
8.507442e+16
8.760221e+16
8.760911e+16
8.508304e+16
7.927501e+16
7.180737e+16
6.559425e+16
6.07983e+16
5.608319e+16
5.155528e+16
3.767458e+16
3.731117e+16
5.062077e+16
5.351944e+16
5.740339e+16
6.096828e+16
6.390499e+16
6.727371e+16
7.015883e+16
7.016404e+16
6.728611e+16
6.39179e+16
6.099581e+16
5.743644e+16
5.354421e+16
5.063534e+16
3.731681e+16
3.646381e+16
4.176902e+16
5.139997e+16
5.316931e+16
5.501486e+16
5.692836e+16
5.843395e+16
5.84411e+16
5.694647e+16
5.503746e+16
5.319718e+16
5.144189e+16
4.180087e+16
3.648372e+16
3.581683e+16
4.008107e+16
4.16362e+16
4.271038e+16
4.338659e+16
4.339275e+16
4.273556e+16
4.167118e+16
4.011878e+16
3.584842e+16
3.046138e+16
3.398076e+16
3.493451e+16
3.530824e+16
3.529619e+16
3.48997e+16
3.392427e+16
3.041092e+16
3.040101e+16
3.575958e+16
3.891504e+16
4.731616e+16
4.907677e+16
5.009182e+16
5.055383e+16
5.053993e+16
5.00499e+16
4.901117e+16
4.726044e+16
3.886694e+16
3.571336e+16
3.037117e+16
3.337317e+16
4.59597e+16
5.015634e+16
5.460843e+16
5.959931e+16
6.201259e+16
6.350606e+16
6.420952e+16
6.419477e+16
6.34626e+16
6.194359e+16
5.951487e+16
5.452625e+16
5.007403e+16
4.58759e+16
3.332248e+16
3.134612e+16
3.815594e+16
4.929552e+16
5.741976e+16
6.588471e+16
7.392306e+16
7.869458e+16
8.161233e+16
8.357372e+16
8.459104e+16
8.457269e+16
8.352002e+16
8.152654e+16
7.858234e+16
7.379492e+16
6.575747e+16
5.730538e+16
4.917076e+16
3.805218e+16
3.124543e+16
3.164174e+16
4.519253e+16
5.199278e+16
6.274388e+16
7.517116e+16
8.486147e+16
9.2952e+16
1.058303e+17
1.119166e+17
1.155064e+17
1.172971e+17
1.172752e+17
1.154434e+17
1.118175e+17
1.057048e+17
9.282101e+16
8.471564e+16
7.501108e+16
6.257499e+16
5.184448e+16
4.502998e+16
3.151947e+16
3.134926e+16
4.520261e+16
5.354859e+16
6.510768e+16
8.021422e+16
9.218767e+16
1.087827e+17
1.195947e+17
1.289549e+17
1.358829e+17
1.405015e+17
1.428169e+17
1.427926e+17
1.404326e+17
1.35767e+17
1.287996e+17
1.194142e+17
1.085802e+17
9.198285e+16
8.000627e+16
6.491698e+16
5.335651e+16
4.501466e+16
3.121556e+16
3.817179e+16
5.200786e+16
6.51134e+16
8.143834e+16
9.513094e+16
1.14663e+17
1.290749e+17
1.408167e+17
1.507429e+17
1.586993e+17
1.641161e+17
1.663845e+17
1.663575e+17
1.640353e+17
1.585701e+17
1.50577e+17
1.406228e+17
1.288542e+17
1.144275e+17
9.489307e+16
8.119395e+16
6.489551e+16
5.181217e+16
3.801403e+16
3.340549e+16
4.930506e+16
6.27444e+16
8.02291e+16
9.512939e+16
1.164395e+17
1.33477e+17
1.483778e+17
1.611883e+17
1.717564e+17
1.797482e+17
1.85401e+17
1.886734e+17
1.886459e+17
1.853196e+17
1.796176e+17
1.715831e+17
1.609793e+17
1.481389e+17
1.332231e+17
1.161735e+17
9.487541e+16
7.998063e+16
6.252755e+16
4.911201e+16
3.325915e+16
3.041513e+16
4.597686e+16
5.743298e+16
7.518043e+16
9.22181e+16
1.146895e+17
1.334924e+17
1.51032e+17
1.667837e+17
1.797812e+17
1.90481e+17
1.994316e+17
2.057273e+17
2.091259e+17
2.09098e+17
2.056448e+17
1.992992e+17
1.903036e+17
1.795614e+17
1.66529e+17
1.507571e+17
1.332029e+17
1.143994e+17
9.19469e+16
7.492382e+16
5.723116e+16
4.5786e+16
3.027633e+16
3.577806e+16
5.017588e+16
6.589017e+16
8.489359e+16
1.088168e+17
1.291144e+17
1.484037e+17
1.667964e+17
1.826566e+17
1.967796e+17
2.082303e+17
2.171363e+17
2.231208e+17
2.261679e+17
2.26139e+17
2.23038e+17
2.170045e+17
2.08051e+17
1.965557e+17
1.823955e+17
1.665084e+17
1.481001e+17
1.288101e+17
1.085224e+17
8.461554e+16
6.567468e+16
4.999011e+16
3.56242e+16
3.892852e+16
5.461519e+16
7.391736e+16
9.300461e+16
1.196438e+17
1.408708e+17
1.612292e+17
1.798147e+17
1.967971e+17
2.114816e+17
2.229218e+17
2.313705e+17
2.369333e+17
2.396999e+17
2.396736e+17
2.368565e+17
2.312458e+17
2.227515e+17
2.11268e+17
1.965449e+17
1.795335e+17
1.609315e+17
1.405672e+17
1.193482e+17
9.272506e+16
7.370656e+16
5.4436e+16
3.87741e+16
3.047447e+16
4.734304e+16
5.960016e+16
7.870269e+16
1.058924e+17
1.290241e+17
1.508163e+17
1.718284e+17
1.905425e+17
2.082686e+17
2.229384e+17
2.341175e+17
2.421939e+17
2.474479e+17
2.500347e+17
2.500119e+17
2.473808e+17
2.420843e+17
2.339648e+17
2.2274e+17
2.080265e+17
1.902665e+17
1.715308e+17
1.505097e+17
1.287254e+17
1.056067e+17
7.849118e+16
5.941864e+16
4.71501e+16
3.033975e+16
3.398177e+16
4.908891e+16
6.203025e+16
8.164658e+16
1.119966e+17
1.359776e+17
1.58793e+17
1.798475e+17
1.995198e+17
2.17198e+17
2.314069e+17
2.422133e+17
2.500007e+17
2.55053e+17
2.57537e+17
2.575164e+17
2.549928e+17
2.499034e+17
2.420804e+17
2.312316e+17
2.169753e+17
1.992556e+17
1.795575e+17
1.585015e+17
1.356848e+17
1.117176e+17
8.142999e+16
6.184286e+16
4.891426e+16
3.384438e+16
3.49493e+16
5.011678e+16
6.35418e+16
8.363478e+16
1.156115e+17
1.406291e+17
1.642488e+17
1.855359e+17
2.058529e+17
2.232211e+17
2.370087e+17
2.475054e+17
2.550889e+17
2.600106e+17
2.624292e+17
2.624093e+17
2.599546e+17
2.550003e+17
2.473862e+17
2.368515e+17
2.230181e+17
2.056081e+17
1.852647e+17
1.639695e+17
1.403451e+17
1.153435e+17
8.34173e+16
6.335519e+16
4.994486e+16
3.48087e+16
3.534046e+16
5.060251e+16
6.426885e+16
8.467848e+16
1.174281e+17
1.429705e+17
1.665519e+17
1.888474e+17
2.092961e+17
2.263211e+17
2.398344e+17
2.50152e+17
2.576285e+17
2.624822e+17
2.648676e+17
2.648455e+17
2.62424e+17
2.575387e+17
2.500328e+17
2.396829e+17
2.261321e+17
2.09072e+17
1.885992e+17
1.662928e+17
1.427079e+17
1.171752e+17
8.446496e+16
6.408122e+16
5.042741e+16
3.52003e+16
3.534423e+16
5.060732e+16
6.427378e+16
8.468514e+16
1.17433e+17
1.429755e+17
1.66561e+17
1.88862e+17
2.093182e+17
2.263517e+17
2.398725e+17
2.501934e+17
2.5767e+17
2.625236e+17
2.6491e+17
2.648877e+17
2.624654e+17
2.575806e+17
2.50076e+17
2.397274e+17
2.261774e+17
2.091169e+17
1.886401e+17
1.663259e+17
1.427358e+17
1.171978e+17
8.447883e+16
6.409002e+16
5.043481e+16
3.520694e+16
3.49623e+16
5.013518e+16
6.355959e+16
8.365555e+16
1.156274e+17
1.406536e+17
1.64287e+17
1.855816e+17
2.059163e+17
2.23308e+17
2.371169e+17
2.476245e+17
2.552086e+17
2.601297e+17
2.625494e+17
2.625295e+17
2.60076e+17
2.551255e+17
2.47516e+17
2.369854e+17
2.23154e+17
2.057416e+17
1.853888e+17
1.640771e+17
1.404385e+17
1.154115e+17
8.345411e+16
6.33808e+16
4.996749e+16
3.482868e+16
3.400527e+16
4.911716e+16
6.205945e+16
8.168405e+16
1.120256e+17
1.36023e+17
1.588586e+17
1.79925e+17
1.996185e+17
2.17326e+17
2.315624e+17
2.42386e+17
2.501795e+17
2.55236e+17
2.577251e+17
2.577087e+17
2.551915e+17
2.501098e+17
2.422949e+17
2.314525e+17
2.171981e+17
1.994725e+17
1.797608e+17
1.586747e+17
1.358322e+17
1.118296e+17
8.148448e+16
6.188574e+16
4.895637e+16
3.387753e+16
3.050114e+16
4.736396e+16
5.964573e+16
7.876228e+16
1.059318e+17
1.290866e+17
1.508918e+17
1.719288e+17
1.906665e+17
2.084207e+17
2.231178e+17
2.3432e+17
2.424135e+17
2.476804e+17
2.502782e+17
2.502664e+17
2.476487e+17
2.423637e+17
2.342541e+17
2.230369e+17
2.083234e+17
1.905511e+17
1.717975e+17
1.50748e+17
1.289233e+17
1.05762e+17
7.856739e+16
5.948143e+16
4.721982e+16
3.038785e+16
3.895122e+16
5.46597e+16
7.398914e+16
9.304104e+16
1.197173e+17
1.409524e+17
1.613427e+17
1.799546e+17
1.969634e+17
2.116753e+17
2.231431e+17
2.316165e+17
2.372005e+17
2.39982e+17
2.399753e+17
2.371827e+17
2.315888e+17
2.231057e+17
2.116272e+17
1.969001e+17
1.798725e+17
1.612478e+17
1.408438e+17
1.195796e+17
9.291249e+16
7.380857e+16
5.45121e+16
3.883475e+16
3.578807e+16
5.020592e+16
6.594854e+16
8.494631e+16
1.088975e+17
1.29199e+17
1.485165e+17
1.66942e+17
1.828302e+17
1.969846e+17
2.084689e+17
2.174051e+17
2.234165e+17
2.264815e+17
2.264799e+17
2.234118e+17
2.173976e+17
2.084583e+17
1.969693e+17
1.828033e+17
1.668966e+17
1.48457e+17
1.29118e+17
1.087812e+17
8.483772e+16
6.580515e+16
5.008584e+16
3.56947e+16
3.041428e+16
4.601077e+16
5.748277e+16
7.523777e+16
9.228959e+16
1.147738e+17
1.33603e+17
1.511761e+17
1.669598e+17
1.799952e+17
1.907357e+17
1.997197e+17
2.060471e+17
2.09469e+17
2.094724e+17
2.060538e+17
1.997279e+17
1.907456e+17
1.800071e+17
1.669642e+17
1.511641e+17
1.335731e+17
1.147184e+17
9.219653e+16
7.515216e+16
5.736823e+16
4.589969e+16
3.035086e+16
3.340475e+16
4.933738e+16
6.27975e+16
8.028418e+16
9.521472e+16
1.165489e+17
1.336187e+17
1.485502e+17
1.61399e+17
1.720121e+17
1.800396e+17
1.857252e+17
1.890244e+17
1.89032e+17
1.85742e+17
1.800605e+17
1.720375e+17
1.614297e+17
1.48575e+17
1.336293e+17
1.165435e+17
9.519009e+16
8.023878e+16
6.272737e+16
4.925822e+16
3.334295e+16
3.819155e+16
5.204772e+16
6.516849e+16
8.151183e+16
9.522024e+16
1.148031e+17
1.29249e+17
1.410231e+17
1.509792e+17
1.589741e+17
1.644341e+17
1.667353e+17
1.667439e+17
1.644562e+17
1.590073e+17
1.510227e+17
1.410639e+17
1.292837e+17
1.148272e+17
9.523297e+16
8.150219e+16
6.513277e+16
5.199133e+16
3.8135e+16
3.137845e+16
4.524103e+16
5.359887e+16
6.517169e+16
8.031536e+16
9.232116e+16
1.089364e+17
1.197806e+17
1.291739e+17
1.361383e+17
1.407955e+17
1.431427e+17
1.431525e+17
1.408268e+17
1.361811e+17
1.292254e+17
1.198373e+17
1.089946e+17
9.236164e+16
8.033704e+16
6.517223e+16
5.357732e+16
4.520197e+16
3.133531e+16
3.166518e+16
4.524518e+16
5.206316e+16
6.280803e+16
7.525155e+16
8.496543e+16
9.309758e+16
1.060077e+17
1.121205e+17
1.157437e+17
1.175655e+17
1.175758e+17
1.157855e+17
1.121838e+17
1.06079e+17
9.316317e+16
8.504144e+16
7.531601e+16
6.284593e+16
5.207216e+16
4.523541e+16
3.164647e+16
3.138095e+16
3.820886e+16
4.934751e+16
5.749139e+16
6.595456e+16
7.400667e+16
7.878764e+16
8.172201e+16
8.371668e+16
8.479854e+16
8.480181e+16
8.37694e+16
8.180153e+16
7.8877e+16
7.409496e+16
6.602971e+16
5.754423e+16
4.93837e+16
3.821786e+16
3.13829e+16
3.341477e+16
4.601004e+16
5.021984e+16
5.467327e+16
5.966398e+16
6.208601e+16
6.360245e+16
6.434927e+16
6.434957e+16
6.363956e+16
6.214021e+16
5.972642e+16
5.472979e+16
5.026654e+16
4.606922e+16
3.344147e+16
3.042176e+16
3.5803e+16
3.896143e+16
4.73884e+16
4.914054e+16
5.017001e+16
5.067776e+16
5.068222e+16
5.01928e+16
4.917442e+16
4.743779e+16
3.900309e+16
3.583728e+16
3.046505e+16
3.0509e+16
3.401919e+16
3.498345e+16
3.538591e+16
3.538917e+16
3.499756e+16
3.403883e+16
3.052197e+16
2.702076e+16
2.996907e+16
3.066749e+16
3.065497e+16
2.993385e+16
2.69896e+16
2.605963e+16
3.165893e+16
3.511728e+16
3.873402e+16
4.634661e+16
4.815964e+16
4.887483e+16
4.885053e+16
4.809602e+16
4.626817e+16
3.869536e+16
3.508829e+16
3.162948e+16
2.604736e+16
2.626887e+16
3.307241e+16
4.366841e+16
5.037334e+16
5.600757e+16
6.280808e+16
6.709438e+16
6.897887e+16
6.990414e+16
6.987272e+16
6.889571e+16
6.699737e+16
6.273201e+16
5.592916e+16
5.028135e+16
4.360134e+16
3.303097e+16
2.62451e+16
2.91859e+16
4.260146e+16
5.175341e+16
6.341078e+16
7.090225e+16
7.832503e+16
8.482686e+16
9.571805e+16
9.996262e+16
1.016612e+17
1.016263e+17
9.986601e+16
9.558378e+16
8.468647e+16
7.816965e+16
7.074864e+16
6.324369e+16
5.164582e+16
4.249831e+16
2.913153e+16
3.108493e+16
4.667425e+16
5.89779e+16
7.22435e+16
8.34855e+16
9.923078e+16
1.094579e+17
1.173513e+17
1.239625e+17
1.280337e+17
1.299072e+17
1.298696e+17
1.27926e+17
1.238e+17
1.171564e+17
1.092478e+17
9.90181e+16
8.32828e+16
7.20275e+16
5.880712e+16
4.651222e+16
3.098035e+16
3.211366e+16
4.981616e+16
6.551704e+16
7.838186e+16
9.095345e+16
1.11434e+17
1.2618e+17
1.376556e+17
1.459576e+17
1.523034e+17
1.564263e+17
1.584177e+17
1.583774e+17
1.563094e+17
1.521205e+17
1.45724e+17
1.373852e+17
1.258936e+17
1.111567e+17
9.069231e+16
7.81046e+16
6.52526e+16
4.959485e+16
3.196763e+16
3.110057e+16
4.982774e+16
6.812233e+16
8.290194e+16
1.038483e+17
1.210746e+17
1.381375e+17
1.525619e+17
1.645633e+17
1.74735e+17
1.822273e+17
1.870056e+17
1.89319e+17
1.892765e+17
1.868823e+17
1.820332e+17
1.744842e+17
1.642683e+17
1.522323e+17
1.37787e+17
1.207079e+17
1.034839e+17
8.256232e+16
6.778605e+16
4.957899e+16
3.094602e+16
2.921268e+16
4.66926e+16
6.5549e+16
8.290973e+16
1.063887e+17
1.268869e+17
1.457442e+17
1.62581e+17
1.784527e+17
1.91949e+17
2.030452e+17
2.112509e+17
2.165475e+17
2.191211e+17
2.190772e+17
2.164196e+17
2.110457e+17
2.027744e+17
1.916248e+17
1.780841e+17
1.621798e+17
1.453185e+17
1.264561e+17
1.0597e+17
8.253852e+16
6.521921e+16
4.645535e+16
2.906092e+16
2.629754e+16
4.262791e+16
5.902767e+16
7.840898e+16
1.038748e+17
1.26904e+17
1.483755e+17
1.676269e+17
1.863857e+17
2.034774e+17
2.179075e+17
2.296076e+17
2.384179e+17
2.441389e+17
2.468475e+17
2.468023e+17
2.440061e+17
2.382053e+17
2.293275e+17
2.175699e+17
2.030897e+17
1.859589e+17
1.671683e+17
1.47897e+17
1.264345e+17
1.034379e+17
7.804072e+16
5.873847e+16
4.240258e+16
2.615191e+16
3.310632e+16
5.180724e+16
7.226637e+16
9.101846e+16
1.211179e+17
1.45781e+17
1.676474e+17
1.889636e+17
2.089579e+17
2.267656e+17
2.419014e+17
2.541066e+17
2.633535e+17
2.695589e+17
2.727118e+17
2.726671e+17
2.694268e+17
2.631415e+17
2.538252e+17
2.415586e+17
2.263699e+17
2.085212e+17
1.884938e+17
1.671571e+17
1.452863e+17
1.206493e+17
9.061651e+16
7.193237e+16
5.154861e+16
3.29349e+16
2.609698e+16
4.370164e+16
6.343151e+16
8.353574e+16
1.115132e+17
1.382013e+17
1.626411e+17
1.864321e+17
2.089826e+17
2.296393e+17
2.479451e+17
2.635824e+17
2.7636e+17
2.863137e+17
2.931399e+17
2.966379e+17
2.965942e+17
2.930111e+17
2.861067e+17
2.76083e+17
2.632414e+17
2.475488e+17
2.291988e+17
2.085071e+17
1.859349e+17
1.621364e+17
1.377072e+17
1.110634e+17
8.314142e+16
6.313755e+16
4.347735e+16
2.597048e+16
3.167542e+16
5.039713e+16
7.092879e+16
9.931053e+16
1.262609e+17
1.526443e+17
1.785309e+17
2.035465e+17
2.268134e+17
2.479694e+17
2.667387e+17
2.831176e+17
2.966259e+17
3.070557e+17
3.14127e+17
3.176981e+17
3.176556e+17
3.140034e+17
3.068572e+17
2.963577e+17
2.827848e+17
2.663485e+17
2.475319e+17
2.263396e+17
2.030506e+17
1.780257e+17
1.521405e+17
1.257919e+17
9.887638e+16
7.059433e+16
5.014839e+16
3.151711e+16
3.514995e+16
5.605504e+16
7.83891e+16
1.095618e+17
1.377465e+17
1.646707e+17
1.920529e+17
2.180026e+17
2.419765e+17
2.63636e+17
2.831454e+17
3.001961e+17
3.14122e+17
3.246865e+17
3.317632e+17
3.353006e+17
3.352619e+17
3.316498e+17
3.245021e+17
3.138718e+17
2.998838e+17
2.827751e+17
2.632165e+17
2.415194e+17
2.175208e+17
1.915588e+17
1.641729e+17
1.372748e+17
1.091092e+17
7.801366e+16
5.575924e+16
3.495355e+16
3.877935e+16
6.290212e+16
8.494293e+16
1.174802e+17
1.460784e+17
1.748699e+17
2.031811e+17
2.297351e+17
2.542187e+17
2.764505e+17
2.96686e+17
3.141507e+17
3.282321e+17
3.387797e+17
3.457842e+17
3.492653e+17
3.492316e+17
3.456848e+17
3.386174e+17
3.280081e+17
3.138632e+17
2.963373e+17
2.760493e+17
2.537776e+17
2.292674e+17
2.026991e+17
1.743839e+17
1.456085e+17
1.1702e+17
8.453285e+16
6.253853e+16
3.854802e+16
2.706055e+16
4.639805e+16
6.720518e+16
9.586353e+16
1.241189e+17
1.52462e+17
1.823982e+17
2.114264e+17
2.385853e+17
2.635088e+17
2.864476e+17
3.071555e+17
3.247513e+17
3.38815e+17
3.492856e+17
3.562095e+17
3.596424e+17
3.596116e+17
3.561194e+17
3.491403e+17
3.38617e+17
3.244944e+17
3.068357e+17
2.860712e+17
2.630906e+17
2.381407e+17
2.109624e+17
1.819269e+17
1.519953e+17
1.236536e+17
9.542014e+16
6.682634e+16
4.611992e+16
2.688737e+16
2.99955e+16
4.822381e+16
6.909432e+16
1.001277e+17
1.282214e+17
1.566289e+17
1.872228e+17
2.167728e+17
2.443596e+17
2.697692e+17
2.933304e+17
3.14284e+17
3.318844e+17
3.458739e+17
3.562629e+17
3.631206e+17
3.665167e+17
3.664875e+17
3.630365e+17
3.5613e+17
3.45696e+17
3.316529e+17
3.139921e+17
2.929827e+17
2.693792e+17
2.439403e+17
2.163306e+17
1.867695e+17
1.561727e+17
1.277666e+17
9.969309e+16
6.873145e+16
4.794868e+16
2.982728e+16
3.071056e+16
4.895952e+16
7.00331e+16
1.018563e+17
1.301372e+17
1.586704e+17
1.895895e+17
2.194018e+17
2.471285e+17
2.729863e+17
2.96897e+17
3.179301e+17
3.355023e+17
3.494368e+17
3.597731e+17
3.665907e+17
3.69965e+17
3.699351e+17
3.665055e+17
3.596398e+17
3.492608e+17
3.352812e+17
3.176585e+17
2.965766e+17
2.72626e+17
2.467375e+17
2.189862e+17
1.891579e+17
1.582313e+17
1.297004e+17
1.014456e+17
6.970411e+16
4.870471e+16
3.05467e+16
3.071286e+16
4.896689e+16
7.004857e+16
1.018666e+17
1.301487e+17
1.586834e+17
1.896042e+17
2.194189e+17
2.471497e+17
2.730123e+17
2.9693e+17
3.179724e+17
3.355537e+17
3.494932e+17
3.598303e+17
3.666473e+17
3.700213e+17
3.69991e+17
3.665615e+17
3.596969e+17
3.493197e+17
3.353421e+17
3.177204e+17
2.966377e+17
2.726836e+17
2.467894e+17
2.190326e+17
1.891982e+17
1.582662e+17
1.297344e+17
1.014782e+17
6.973319e+16
4.872615e+16
3.055944e+16
3.001266e+16
4.823782e+16
6.910812e+16
1.001469e+17
1.282517e+17
1.566663e+17
1.872649e+17
2.168244e+17
2.444247e+17
2.69847e+17
2.934268e+17
3.144053e+17
3.320308e+17
3.460361e+17
3.564275e+17
3.632843e+17
3.666804e+17
3.66652e+17
3.632035e+17
3.563018e+17
3.458741e+17
3.318367e+17
3.141787e+17
2.931665e+17
2.695528e+17
2.44098e+17
2.164706e+17
1.868873e+17
1.562728e+17
1.278642e+17
9.978579e+16
6.88136e+16
4.801096e+16
2.986428e+16
2.708545e+16
4.639055e+16
6.720027e+16
9.588199e+16
1.2416e+17
1.52521e+17
1.824647e+17
2.115097e+17
2.386902e+17
2.636343e+17
2.865986e+17
3.073392e+17
3.249675e+17
3.390545e+17
3.495357e+17
3.564653e+17
3.599035e+17
3.598792e+17
3.563958e+17
3.494275e+17
3.389155e+17
3.24802e+17
3.071466e+17
2.863759e+17
2.633789e+17
2.384015e+17
2.111917e+17
1.821184e+17
1.521528e+17
1.238047e+17
9.555713e+16
6.693805e+16
4.618755e+16
2.695281e+16
3.878551e+16
6.288129e+16
8.496274e+16
1.175293e+17
1.461571e+17
1.749564e+17
2.032911e+17
2.298688e+17
2.543808e+17
2.766433e+17
2.969137e+17
3.144133e+17
3.285252e+17
3.390955e+17
3.461164e+17
3.496116e+17
3.495931e+17
3.460637e+17
3.390134e+17
3.284197e+17
3.142866e+17
2.967633e+17
2.76465e+17
2.541718e+17
2.296268e+17
2.030134e+17
1.74648e+17
1.458193e+17
1.172135e+17
8.469057e+16
6.266316e+16
3.861724e+16
3.515574e+16
5.606653e+16
7.841687e+16
1.096074e+17
1.378355e+17
1.647691e+17
1.921821e+17
2.181561e+17
2.421633e+17
2.638579e+17
2.834035e+17
3.004914e+17
3.144535e+17
3.250502e+17
3.321544e+17
3.357152e+17
3.357032e+17
3.321205e+17
3.24998e+17
3.143866e+17
3.004092e+17
2.833006e+17
2.637281e+17
2.420039e+17
2.179612e+17
1.919462e+17
1.645049e+17
1.375345e+17
1.093348e+17
7.817479e+16
5.585911e+16
3.499915e+16
3.170058e+16
5.043252e+16
7.097716e+16
9.935235e+16
1.263435e+17
1.527535e+17
1.786725e+17
2.037123e+17
2.270137e+17
2.482092e+17
2.670184e+17
2.8344e+17
2.969918e+17
3.074616e+17
3.145686e+17
3.18171e+17
3.181652e+17
3.145523e+17
3.07437e+17
2.969612e+17
2.83401e+17
2.669631e+17
2.481282e+17
2.269017e+17
2.035608e+17
1.784771e+17
1.52533e+17
1.260952e+17
9.912781e+16
7.075219e+16
5.023669e+16
3.155402e+16
2.611913e+16
4.372639e+16
6.349639e+16
8.356879e+16
1.11573e+17
1.383061e+17
1.627817e+17
1.866032e+17
2.091914e+17
2.298912e+17
2.482416e+17
2.639273e+17
2.767547e+17
2.867543e+17
2.936229e+17
2.971593e+17
2.971591e+17
2.936217e+17
2.867526e+17
2.767538e+17
2.639238e+17
2.482259e+17
2.298521e+17
2.091209e+17
1.864933e+17
1.626305e+17
1.381372e+17
1.113885e+17
8.340356e+16
6.328019e+16
4.357239e+16
2.60034e+16
3.312194e+16
5.182768e+16
7.232445e+16
9.104867e+16
1.212171e+17
1.459152e+17
1.678201e+17
1.891783e+17
2.092187e+17
2.270726e+17
2.422581e+17
2.545154e+17
2.638115e+17
2.700638e+17
2.732614e+17
2.732662e+17
2.700764e+17
2.638301e+17
2.545395e+17
2.422829e+17
2.270877e+17
2.092126e+17
1.891437e+17
1.677516e+17
1.45814e+17
1.210927e+17
9.0931e+16
7.217357e+16
5.168728e+16
3.301013e+16
2.63016e+16
4.265638e+16
5.906788e+16
7.849448e+16
1.039845e+17
1.270394e+17
1.485492e+17
1.678441e+17
1.866511e+17
2.037887e+17
2.182666e+17
2.30015e+17
2.38876e+17
2.446492e+17
2.474083e+17
2.474169e+17
2.44674e+17
2.389138e+17
2.300625e+17
2.183151e+17
2.038295e+17
1.866721e+17
1.678379e+17
1.485097e+17
1.269636e+17
1.038771e+17
7.83719e+16
5.894579e+16
4.255016e+16
2.62307e+16
2.922091e+16
4.674112e+16
6.562459e+16
8.299504e+16
1.065072e+17
1.270519e+17
1.459569e+17
1.628396e+17
1.787489e+17
1.92292e+17
2.034367e+17
2.116928e+17
2.170422e+17
2.19668e+17
2.196799e+17
2.170794e+17
2.117488e+17
2.035056e+17
1.923661e+17
1.788191e+17
1.628865e+17
1.459743e+17
1.270415e+17
1.064663e+17
8.293377e+16
6.552126e+16
4.665145e+16
2.916269e+16
3.111846e+16
4.987193e+16
6.821849e+16
8.299188e+16
1.040037e+17
1.212621e+17
1.383644e+17
1.528228e+17
1.648703e+17
1.750869e+17
1.826265e+17
1.874586e+17
1.898274e+17
1.89841e+17
1.875069e+17
1.827024e+17
1.751794e+17
1.649683e+17
1.529172e+17
1.384312e+17
1.212957e+17
1.04015e+17
8.297772e+16
6.817241e+16
4.981737e+16
3.107135e+16
3.213546e+16
4.987122e+16
6.563941e+16
7.85197e+16
9.1116e+16
1.116392e+17
1.264104e+17
1.379166e+17
1.462606e+17
1.526523e+17
1.568312e+17
1.588884e+17
1.58899e+17
1.568831e+17
1.527355e+17
1.463633e+17
1.380291e+17
1.265093e+17
1.117055e+17
9.114024e+16
7.854231e+16
6.563989e+16
4.985321e+16
3.211031e+16
3.110937e+16
4.673111e+16
5.909756e+16
7.236168e+16
8.360785e+16
9.941188e+16
1.096842e+17
1.176262e+17
1.242808e+17
1.283986e+17
1.303198e+17
1.303263e+17
1.284362e+17
1.243424e+17
1.177053e+17
1.097803e+17
9.951228e+16