/*--------------------------------*- C++ -*----------------------------------*\
  =========                 |
  \\      /  F ield         | OpenFOAM: The Open Source CFD Toolbox
   \\    /   O peration     | Website:  https://openfoam.org
    \\  /    A nd           | Version:  6
     \\/     M anipulation  |
\*---------------------------------------------------------------------------*/
FoamFile
{
    version     2.0;
    format      ascii;
    class       volScalarField;
    location    "49.8/region0/neutronTransport";
    object      flux4;
}
// * * * * * * * * * * * * * * * * * * * * * * * * * * * * * * * * * * * * * //

dimensions      [0 -2 -1 0 0 0 0];

internalField   nonuniform List<scalar> 
203709
(
4.765347e+10
5.429962e+10
5.42897e+10
4.766233e+10
5.006336e+10
5.808304e+10
7.841061e+10
7.663413e+10
7.661905e+10
7.83948e+10
5.806288e+10
5.004451e+10
4.8829e+10
5.837842e+10
7.925203e+10
7.779753e+10
8.013155e+10
8.064379e+10
8.063536e+10
8.01103e+10
7.776146e+10
7.920377e+10
5.833137e+10
4.878018e+10
4.883904e+10
7.712696e+10
7.757695e+10
8.057456e+10
8.206422e+10
8.347915e+10
8.408713e+10
8.408342e+10
8.34521e+10
8.201929e+10
8.051842e+10
7.750805e+10
7.704768e+10
4.877805e+10
5.838851e+10
7.75809e+10
8.101662e+10
8.345719e+10
8.535829e+10
8.675124e+10
8.743779e+10
8.743207e+10
8.671999e+10
8.531106e+10
8.339824e+10
8.094196e+10
7.749454e+10
5.831034e+10
5.008134e+10
7.926646e+10
8.058531e+10
8.34591e+10
8.605526e+10
8.812436e+10
8.956493e+10
9.027002e+10
9.026092e+10
8.953798e+10
8.808617e+10
8.599912e+10
8.338921e+10
8.05046e+10
7.917367e+10
5.000914e+10
5.809645e+10
7.780935e+10
8.207087e+10
8.535306e+10
8.812121e+10
9.028207e+10
9.171275e+10
9.236965e+10
9.236137e+10
9.169347e+10
9.024602e+10
8.80716e+10
8.529814e+10
8.200112e+10
7.77229e+10
5.802182e+10
4.76863e+10
7.844397e+10
8.016065e+10
8.35001e+10
8.676412e+10
8.956942e+10
9.171658e+10
9.301303e+10
9.365532e+10
9.365071e+10
9.299987e+10
9.168536e+10
8.95284e+10
8.670995e+10
8.342832e+10
8.007313e+10
7.835001e+10
4.760163e+10
5.431502e+10
7.665782e+10
8.067362e+10
8.412421e+10
8.746732e+10
9.02888e+10
9.238719e+10
9.366735e+10
9.438964e+10
9.435857e+10
9.36537e+10
9.236739e+10
9.025901e+10
8.741634e+10
8.405216e+10
8.05928e+10
7.656336e+10
5.423173e+10
5.432507e+10
7.66806e+10
8.068525e+10
8.412734e+10
8.747399e+10
9.030041e+10
9.239578e+10
9.367783e+10
9.442341e+10
9.439063e+10
9.366698e+10
9.237838e+10
9.026774e+10
8.742895e+10
8.406354e+10
8.060203e+10
7.658277e+10
5.424888e+10
4.767669e+10
7.846846e+10
8.017869e+10
8.352141e+10
8.679217e+10
8.960271e+10
9.175091e+10
9.305081e+10
9.369751e+10
9.368455e+10
9.30348e+10
9.17272e+10
8.956535e+10
8.674259e+10
8.345586e+10
8.009582e+10
7.836102e+10
4.761696e+10
5.810654e+10
7.783509e+10
8.210973e+10
8.540641e+10
8.817452e+10
9.033659e+10
9.176718e+10
9.243177e+10
9.241408e+10
9.174835e+10
9.030033e+10
8.812582e+10
8.53434e+10
8.203457e+10
7.775488e+10
5.80426e+10
5.009721e+10
7.930365e+10
8.062679e+10
8.351345e+10
8.611397e+10
8.819093e+10
8.962664e+10
9.034261e+10
9.032643e+10
8.960539e+10
8.814762e+10
8.605912e+10
8.344694e+10
8.055253e+10
7.921977e+10
5.003627e+10
5.841998e+10
7.762841e+10
8.107614e+10
8.352525e+10
8.542976e+10
8.682639e+10
8.7563e+10
8.75489e+10
8.679378e+10
8.538126e+10
8.34635e+10
8.100652e+10
7.756163e+10
5.836086e+10
4.887356e+10
7.719192e+10
7.763686e+10
8.06427e+10
8.212912e+10
8.354662e+10
8.419848e+10
8.418849e+10
8.351813e+10
8.208587e+10
8.058304e+10
7.756596e+10
7.711577e+10
4.881008e+10
4.886931e+10
5.842132e+10
7.931293e+10
7.784305e+10
8.018837e+10
8.07226e+10
8.072438e+10
8.016971e+10
7.781955e+10
7.926761e+10
5.836876e+10
4.881967e+10
5.009276e+10
5.810816e+10
7.846458e+10
7.672042e+10
7.673186e+10
7.845465e+10
5.809524e+10
5.007264e+10
4.767989e+10
5.43191e+10
5.432446e+10
4.768019e+10
3.969097e+10
4.675949e+10
4.878199e+10
5.016987e+10
5.104823e+10
5.104632e+10
5.0165e+10
4.877379e+10
4.674962e+10
3.968473e+10
4.065973e+10
4.919734e+10
6.841712e+10
6.995258e+10
7.258475e+10
7.600473e+10
7.875784e+10
7.875567e+10
7.600449e+10
7.256457e+10
6.990547e+10
6.834856e+10
4.913834e+10
4.060844e+10
4.150997e+10
6.710252e+10
7.007122e+10
7.584921e+10
8.193227e+10
8.717608e+10
9.614346e+10
1.029465e+11
1.029416e+11
9.613486e+10
8.713501e+10
8.186894e+10
7.578762e+10
7.000123e+10
6.703443e+10
4.146676e+10
4.191029e+10
6.824842e+10
7.399105e+10
8.150269e+10
8.968526e+10
1.044458e+11
1.239361e+11
1.526819e+11
1.606763e+11
1.60664e+11
1.526279e+11
1.238813e+11
1.043929e+11
8.963222e+10
8.143741e+10
7.391543e+10
6.815106e+10
4.185584e+10
4.150971e+10
6.824023e+10
7.477013e+10
8.364568e+10
1.020901e+11
1.258876e+11
1.615359e+11
1.823695e+11
1.97968e+11
2.223934e+11
2.223724e+11
1.979226e+11
1.822953e+11
1.6143e+11
1.258054e+11
1.019954e+11
8.35623e+10
7.466815e+10
6.81248e+10
4.144173e+10
4.06654e+10
6.71244e+10
7.399928e+10
8.36591e+10
1.105287e+11
1.55935e+11
1.821842e+11
2.039256e+11
2.385519e+11
2.538205e+11
2.628741e+11
2.62848e+11
2.537466e+11
2.384364e+11
2.037885e+11
1.820234e+11
1.557476e+11
1.103804e+11
8.352203e+10
7.386614e+10
6.69914e+10
4.058515e+10
4.918429e+10
7.007302e+10
8.151285e+10
1.021075e+11
1.559435e+11
1.93468e+11
2.345823e+11
2.568707e+11
2.742731e+11
2.849117e+11
2.903251e+11
2.90295e+11
2.848223e+11
2.741355e+11
2.566881e+11
2.343579e+11
1.932318e+11
1.557164e+11
1.019319e+11
8.1368e+10
6.993923e+10
4.908451e+10
3.970681e+10
6.841126e+10
7.58473e+10
8.970397e+10
1.259075e+11
1.822347e+11
2.346071e+11
2.649946e+11
2.842134e+11
2.973834e+11
3.056788e+11
3.097517e+11
3.097206e+11
3.055845e+11
2.972367e+11
2.840162e+11
2.647513e+11
2.343399e+11
1.819901e+11
1.257268e+11
8.956106e+10
7.570065e+10
6.825747e+10
3.960362e+10
4.677514e+10
6.997588e+10
8.193774e+10
1.044889e+11
1.616194e+11
2.040111e+11
2.569285e+11
2.842415e+11
3.014864e+11
3.129686e+11
3.20164e+11
3.236467e+11
3.236169e+11
3.200756e+11
3.128269e+11
3.012899e+11
2.839947e+11
2.566466e+11
2.03739e+11
1.613746e+11
1.042953e+11
8.178324e+10
6.981909e+10
4.665574e+10
4.879779e+10
7.262294e+10
8.719132e+10
1.239628e+11
1.824833e+11
2.386643e+11
2.743609e+11
2.974419e+11
3.130009e+11
3.235495e+11
3.301918e+11
3.334209e+11
3.33394e+11
3.301132e+11
3.234164e+11
3.128143e+11
2.972062e+11
2.740797e+11
2.383524e+11
1.821705e+11
1.237753e+11
8.704983e+10
7.246041e+10
4.867848e+10
5.018398e+10
7.605188e+10
9.62039e+10
1.527811e+11
1.981114e+11
2.539737e+11
2.850423e+11
3.05784e+11
3.20244e+11
3.3024e+11
3.365515e+11
3.396294e+11
3.396014e+11
3.364763e+11
3.301138e+11
3.200711e+11
3.055655e+11
2.84776e+11
2.536692e+11
1.978118e+11
1.525455e+11
9.602368e+10
7.588884e+10
5.007381e+10
5.105738e+10
7.878829e+10
1.029951e+11
1.607977e+11
2.225677e+11
2.630641e+11
2.90508e+11
3.09917e+11
3.237876e+11
3.335305e+11
3.396934e+11
3.427164e+11
3.426746e+11
3.396155e+11
3.334133e+11
3.23629e+11
3.097134e+11
2.902589e+11
2.627803e+11
2.222759e+11
1.605625e+11
1.028298e+11
7.864487e+10
5.095428e+10
5.105016e+10
7.877098e+10
1.029738e+11
1.607829e+11
2.225745e+11
2.630833e+11
2.905347e+11
3.099501e+11
3.238254e+11
3.335695e+11
3.397382e+11
3.427759e+11
3.42734e+11
3.396655e+11
3.334609e+11
3.236757e+11
3.097598e+11
2.903048e+11
2.62826e+11
2.223141e+11
1.605662e+11
1.028198e+11
7.863647e+10
5.094922e+10
5.016708e+10
7.603462e+10
9.6208e+10
1.528042e+11
1.981181e+11
2.540217e+11
2.8512e+11
3.058825e+11
3.203563e+11
3.303606e+11
3.36683e+11
3.397748e+11
3.397438e+11
3.366155e+11
3.302558e+11
3.20213e+11
3.057045e+11
2.849112e+11
2.537982e+11
1.979182e+11
1.526106e+11
9.606698e+10
7.591076e+10
5.007051e+10
4.879066e+10
7.262832e+10
8.722892e+10
1.240099e+11
1.825178e+11
2.387461e+11
2.744832e+11
2.975965e+11
3.131776e+11
3.237433e+11
3.304003e+11
3.336461e+11
3.33617e+11
3.303369e+11
3.236401e+11
3.130378e+11
2.974272e+11
2.742921e+11
2.385474e+11
1.823472e+11
1.238378e+11
8.708409e+10
7.251212e+10
4.869952e+10
4.678072e+10
7.000099e+10
8.19852e+10
1.045211e+11
1.617053e+11
2.04126e+11
2.570878e+11
2.844352e+11
3.017081e+11
3.132175e+11
3.204329e+11
3.239323e+11
3.239056e+11
3.203734e+11
3.13121e+11
3.015781e+11
2.842787e+11
2.569117e+11
2.039397e+11
1.615242e+11
1.043936e+11
8.184799e+10
6.988444e+10
4.669316e+10
3.97168e+10
6.845419e+10
7.589874e+10
8.975061e+10
1.260052e+11
1.823683e+11
2.347918e+11
2.652163e+11
2.844698e+11
2.976702e+11
3.059917e+11
3.100684e+11
3.100456e+11
3.059342e+11
2.975812e+11
2.843512e+11
2.650752e+11
2.346322e+11
1.821966e+11
1.258481e+11
8.963527e+10
7.577228e+10
6.833247e+10
3.96454e+10
4.923017e+10
7.011842e+10
8.156101e+10
1.021791e+11
1.560825e+11
1.936453e+11
2.34812e+11
2.571426e+11
2.745762e+11
2.852438e+11
2.906478e+11
2.906313e+11
2.851954e+11
2.74501e+11
2.570417e+11
2.346965e+11
1.935203e+11
1.559388e+11
1.020574e+11
8.146335e+10
7.000795e+10
4.912477e+10
4.070185e+10
6.715611e+10
7.404397e+10
8.371377e+10
1.10619e+11
1.560845e+11
1.823916e+11
2.04182e+11
2.388455e+11
2.541512e+11
2.632028e+11
2.631986e+11
2.54119e+11
2.387907e+11
2.041029e+11
1.823135e+11
1.559998e+11
1.105223e+11
8.362234e+10
7.396199e+10
6.706453e+10
4.060872e+10
4.154497e+10
6.830921e+10
7.483314e+10
8.370039e+10
1.021576e+11
1.259985e+11
1.617484e+11
1.826091e+11
1.982304e+11
2.226718e+11
2.22679e+11
1.98219e+11
1.825709e+11
1.61683e+11
1.259495e+11
1.02108e+11
8.364168e+10
7.476392e+10
6.823546e+10
4.147936e+10
4.194661e+10
6.82978e+10
7.403539e+10
8.155936e+10
8.975127e+10
1.045045e+11
1.240261e+11
1.528754e+11
1.608749e+11
1.608768e+11
1.528521e+11
1.240054e+11
1.044988e+11
8.97171e+10
8.151672e+10
7.399008e+10
6.824884e+10
4.190541e+10
4.152108e+10
6.714849e+10
7.010531e+10
7.587292e+10
8.195343e+10
8.722937e+10
9.6231e+10
1.030288e+11
1.030287e+11
9.622622e+10
8.721071e+10
8.195601e+10
7.587786e+10
7.009293e+10
6.712067e+10
4.149839e+10
4.068477e+10
4.92085e+10
6.844077e+10
6.999852e+10
7.264464e+10
7.606853e+10
7.882729e+10
7.883165e+10
7.607518e+10
7.264456e+10
6.999642e+10
6.846244e+10
4.921886e+10
4.068138e+10
3.970183e+10
4.677158e+10
4.879229e+10
5.018073e+10
5.106738e+10
5.107078e+10
5.020268e+10
4.882019e+10
4.679723e+10
3.971619e+10
3.346567e+10
3.938198e+10
4.059856e+10
4.104007e+10
4.102765e+10
4.056125e+10
3.931452e+10
3.341616e+10
3.344082e+10
4.191014e+10
4.648435e+10
6.419883e+10
6.627765e+10
6.763872e+10
6.825045e+10
6.823482e+10
6.75897e+10
6.619852e+10
6.414147e+10
4.645323e+10
4.188413e+10
3.343973e+10
3.709871e+10
6.193921e+10
6.807755e+10
7.788537e+10
8.783114e+10
9.201106e+10
9.45421e+10
9.569884e+10
9.568107e+10
9.448957e+10
9.19276e+10
8.773177e+10
7.780355e+10
6.800237e+10
6.186945e+10
3.708525e+10
3.473308e+10
4.509368e+10
6.673944e+10
8.35651e+10
1.035888e+11
1.344183e+11
1.465071e+11
1.527711e+11
1.568081e+11
1.588613e+11
1.5883e+11
1.567168e+11
1.526265e+11
1.463203e+11
1.342159e+11
1.034403e+11
8.345943e+10
6.662294e+10
4.502339e+10
3.466695e+10
3.500544e+10
6.022757e+10
7.094404e+10
9.605169e+10
1.372493e+11
1.619552e+11
1.826395e+11
2.147806e+11
2.293738e+11
2.378836e+11
2.420285e+11
2.419887e+11
2.377713e+11
2.292022e+11
2.145721e+11
1.824435e+11
1.617489e+11
1.370263e+11
9.586868e+10
7.081954e+10
6.008059e+10
3.491953e+10
3.473612e+10
6.024556e+10
7.36106e+10
1.005244e+11
1.491672e+11
1.806526e+11
2.219547e+11
2.481921e+11
2.710334e+11
2.880791e+11
3.000488e+11
3.058735e+11
3.058288e+11
2.999263e+11
2.87874e+11
2.707618e+11
2.478846e+11
2.216158e+11
1.803253e+11
1.488675e+11
1.003308e+11
7.343093e+10
6.006954e+10
3.464033e+10
4.511377e+10
7.09592e+10
1.005365e+11
1.51759e+11
1.874171e+11
2.360957e+11
2.713039e+11
2.999554e+11
3.249729e+11
3.455357e+11
3.617227e+11
3.680895e+11
3.680384e+11
3.615701e+11
3.452983e+11
3.246745e+11
2.996139e+11
2.709192e+11
2.356964e+11
1.870392e+11
1.513902e+11
1.002932e+11
7.077845e+10
4.498938e+10
3.714236e+10
6.673942e+10
9.604155e+10
1.492038e+11
1.874148e+11
2.403372e+11
2.822348e+11
3.192848e+11
3.514949e+11
3.802306e+11
4.010705e+11
4.160437e+11
4.245646e+11
4.245117e+11
4.158878e+11
4.008221e+11
3.799041e+11
3.511094e+11
3.188502e+11
2.817881e+11
2.398854e+11
1.870131e+11
1.48837e+11
9.580296e+10
6.655614e+10
3.702251e+10
3.345288e+10
6.19568e+10
8.357097e+10
1.372562e+11
1.807197e+11
2.361594e+11
2.822735e+11
3.265505e+11
3.680979e+11
4.010724e+11
4.283145e+11
4.508617e+11
4.666897e+11
4.752259e+11
4.751703e+11
4.665259e+11
4.506004e+11
4.279663e+11
4.006429e+11
3.676067e+11
3.260389e+11
2.817495e+11
2.356544e+11
1.802803e+11
1.368678e+11
8.335971e+10
6.177162e+10
3.333497e+10
4.193332e+10
6.80925e+10
1.035799e+11
1.620245e+11
2.220316e+11
2.713967e+11
3.193462e+11
3.681266e+11
4.0893e+11
4.442874e+11
4.726885e+11
4.946781e+11
5.094093e+11
5.169084e+11
5.168494e+11
5.092375e+11
4.94405e+11
4.723204e+11
4.438315e+11
4.084065e+11
3.675629e+11
3.187709e+11
2.708418e+11
2.215186e+11
1.61569e+11
1.033226e+11
6.790904e+10
4.179346e+10
4.649423e+10
7.787592e+10
1.343809e+11
1.827527e+11
2.483007e+11
3.000776e+11
3.515876e+11
4.011516e+11
4.443329e+11
4.807803e+11
5.088562e+11
5.294736e+11
5.430014e+11
5.497212e+11
5.496624e+11
5.42829e+11
5.291974e+11
5.084832e+11
4.803189e+11
4.438014e+11
4.005759e+11
3.510011e+11
2.995036e+11
2.477665e+11
1.822831e+11
1.340962e+11
7.769162e+10
4.63548e+10
3.347476e+10
6.421386e+10
8.78011e+10
1.464984e+11
2.149018e+11
2.711793e+11
3.251334e+11
3.803964e+11
4.284649e+11
4.727956e+11
5.089121e+11
5.361595e+11
5.557168e+11
5.683867e+11
5.74612e+11
5.745563e+11
5.682224e+11
5.554504e+11
5.357958e+11
5.084566e+11
4.722617e+11
4.278778e+11
3.797875e+11
3.245338e+11
2.70622e+11
2.14403e+11
1.461976e+11
8.761004e+10
6.401218e+10
3.33592e+10
3.935983e+10
6.626697e+10
9.201253e+10
1.528179e+11
2.295239e+11
2.882698e+11
3.457314e+11
4.012946e+11
4.510758e+11
4.948519e+11
5.295962e+11
5.55784e+11
5.745284e+11
5.866406e+11
5.925843e+11
5.925327e+11
5.864885e+11
5.742789e+11
5.554412e+11
5.291625e+11
4.94334e+11
4.504931e+11
4.006821e+11
3.451492e+11
2.877104e+11
2.290245e+11
1.524892e+11
9.179684e+10
6.609062e+10
3.924707e+10
4.059761e+10
6.764725e+10
9.456797e+10
1.569094e+11
2.380818e+11
3.003032e+11
3.619988e+11
4.16339e+11
4.669797e+11
5.096645e+11
5.432101e+11
5.685426e+11
5.8673e+11
5.984902e+11
6.042588e+11
6.042087e+11
5.983464e+11
5.864967e+11
5.682242e+11
5.428069e+11
5.091779e+11
4.664246e+11
4.157506e+11
3.614198e+11
2.997427e+11
2.375871e+11
1.56561e+11
9.434529e+10
6.74673e+10
4.047386e+10
4.106428e+10
6.829515e+10
9.57602e+10
1.590161e+11
2.422793e+11
3.061758e+11
3.684329e+11
4.249341e+11
4.756007e+11
5.17262e+11
5.500379e+11
5.748792e+11
5.927852e+11
6.043719e+11
6.100566e+11
6.100041e+11
6.04232e+11
5.925644e+11
5.745806e+11
5.496611e+11
5.168083e+11
4.750831e+11
4.24381e+11
3.678789e+11
3.056431e+11
2.417964e+11
1.586583e+11
9.552386e+10
6.809904e+10
4.093293e+10
4.106915e+10
6.830293e+10
9.576987e+10
1.590346e+11
2.422944e+11
3.061876e+11
3.684495e+11
4.249591e+11
4.756381e+11
5.173124e+11
5.500997e+11
5.749491e+11
5.928598e+11
6.044518e+11
6.101431e+11
6.100921e+11
6.043184e+11
5.926504e+11
5.746667e+11
5.497466e+11
5.168924e+11
4.751637e+11
4.244507e+11
3.679299e+11
3.056845e+11
2.418294e+11
1.586746e+11
9.552862e+10
6.810186e+10
4.093628e+10
4.061937e+10
6.768054e+10
9.460293e+10
1.569654e+11
2.38128e+11
3.003598e+11
3.620784e+11
4.164232e+11
4.670917e+11
5.098124e+11
5.433905e+11
5.687471e+11
5.869504e+11
5.987243e+11
6.045056e+11
6.044593e+11
5.98598e+11
5.867508e+11
5.684802e+11
5.43062e+11
5.094283e+11
4.66663e+11
4.159626e+11
3.615942e+11
2.9989e+11
2.376841e+11
1.565958e+11
9.435819e+10
6.747747e+10
4.048518e+10
3.940331e+10
6.63214e+10
9.206883e+10
1.529155e+11
2.296031e+11
2.88375e+11
3.458744e+11
4.014512e+11
4.512651e+11
4.950884e+11
5.298794e+11
5.56106e+11
5.748795e+11
5.870146e+11
5.929763e+11
5.929329e+11
5.868954e+11
5.746904e+11
5.558553e+11
5.29576e+11
4.947389e+11
4.508766e+11
4.010305e+11
3.454268e+11
2.879379e+11
2.29182e+11
1.525283e+11
9.182053e+10
6.611889e+10
3.927039e+10
3.351965e+10
6.426303e+10
8.789714e+10
1.466532e+11
2.15009e+11
2.713285e+11
3.253039e+11
3.806148e+11
4.287266e+11
4.731095e+11
5.092787e+11
5.365749e+11
5.56174e+11
5.688756e+11
5.751217e+11
5.750816e+11
5.687654e+11
5.560003e+11
5.363464e+11
5.090039e+11
4.727933e+11
4.283733e+11
3.802388e+11
3.249242e+11
2.709321e+11
2.146293e+11
1.462561e+11
8.765351e+10
6.407851e+10
3.340575e+10
4.653907e+10
7.797018e+10
1.345671e+11
1.828534e+11
2.484821e+11
3.002701e+11
3.518459e+11
4.014664e+11
4.447028e+11
4.812075e+11
5.093407e+11
5.300079e+11
5.435724e+11
5.503062e+11
5.502711e+11
5.434741e+11
5.298545e+11
5.091409e+11
4.809689e+11
4.44427e+11
4.01156e+11
3.515271e+11
2.999455e+11
2.481246e+11
1.825613e+11
1.341894e+11
7.774618e+10
4.640179e+10
4.19542e+10
6.816139e+10
1.037108e+11
1.621599e+11
2.222342e+11
2.716007e+11
3.196058e+11
3.684615e+11
4.093244e+11
4.447481e+11
4.73217e+11
4.952607e+11
5.100309e+11
5.175394e+11
5.175117e+11
5.099503e+11
4.951342e+11
4.730541e+11
4.445586e+11
4.091059e+11
3.682109e+11
3.19348e+11
2.713201e+11
2.219131e+11
1.619124e+11
1.034487e+11
6.798217e+10
4.185086e+10
3.345582e+10
6.203384e+10
8.367911e+10
1.374006e+11
1.808982e+11
2.363609e+11
2.825255e+11
3.26875e+11
3.684896e+11
4.015398e+11
4.288609e+11
4.514622e+11
4.673334e+11
4.758871e+11
4.758707e+11
4.672771e+11
4.513685e+11
4.287396e+11
4.01407e+11
3.68336e+11
3.266952e+11
2.823278e+11
2.361329e+11
1.806281e+11
1.37202e+11
8.347574e+10
6.185987e+10
3.339655e+10
3.71447e+10
6.68134e+10
9.61452e+10
1.493236e+11
1.876084e+11
2.405798e+11
2.825427e+11
3.196486e+11
3.51929e+11
3.80752e+11
4.016482e+11
4.166659e+11
4.252119e+11
4.252071e+11
4.16638e+11
4.015914e+11
3.806762e+11
3.518511e+11
3.195536e+11
2.824248e+11
2.404457e+11
1.874638e+11
1.491748e+11
9.600012e+10
6.667372e+10
3.707104e+10
4.514216e+10
7.102794e+10
1.006318e+11
1.519131e+11
1.876023e+11
2.363888e+11
2.716593e+11
3.003642e+11
3.254244e+11
3.460464e+11
3.623065e+11
3.687158e+11
3.687149e+11
3.62297e+11
3.4603e+11
3.254068e+11
3.003258e+11
2.716049e+11
2.363197e+11
1.87528e+11
1.518137e+11
1.00521e+11
7.091915e+10
4.50591e+10
3.477619e+10
6.030646e+10
7.36807e+10
1.006251e+11
1.493695e+11
1.809183e+11
2.222508e+11
2.485441e+11
2.714348e+11
2.885337e+11
3.00562e+11
3.064234e+11
3.064273e+11
3.005817e+11
2.885511e+11
2.7145e+11
2.485591e+11
2.222696e+11
1.809073e+11
1.493276e+11
1.005696e+11
7.361193e+10
6.022457e+10
3.471478e+10
3.503207e+10
6.030909e+10
7.103569e+10
9.612713e+10
1.373695e+11
1.621253e+11
1.82898e+11
2.150829e+11
2.297089e+11
2.382688e+11
2.42453e+11
2.424584e+11
2.38317e+11
2.297826e+11
2.151559e+11
1.829461e+11
1.622016e+11
1.374294e+11
9.613633e+10
7.100781e+10
6.02654e+10
3.49974e+10
3.477389e+10
4.515368e+10
6.678863e+10
8.364404e+10
1.036497e+11
1.345249e+11
1.466173e+11
1.52899e+11
1.569906e+11
1.59172e+11
1.591601e+11
1.570705e+11
1.5302e+11
1.467451e+11
1.3464e+11
1.03729e+11
8.367896e+10
6.680879e+10
4.513718e+10
3.476065e+10
3.713761e+10
6.199395e+10
6.813189e+10
7.793438e+10
8.786114e+10
9.204329e+10
9.459942e+10
9.581133e+10
9.579377e+10
9.464106e+10
9.210115e+10
8.792389e+10
7.798151e+10
6.815853e+10
6.20391e+10
3.714609e+10
3.344482e+10
4.19479e+10
4.651676e+10
6.425008e+10
6.630109e+10
6.767516e+10
6.836421e+10
6.836165e+10
6.76935e+10
6.632457e+10
6.429104e+10
4.653967e+10
4.195611e+10
3.347845e+10
3.350355e+10
3.93868e+10
4.06103e+10
4.109045e+10
4.109056e+10
4.061634e+10
3.939152e+10
3.349221e+10
2.980533e+10
3.482254e+10
3.580295e+10
3.578916e+10
3.47779e+10
2.97772e+10
2.836651e+10
3.71897e+10
4.241605e+10
4.984888e+10
6.830082e+10
7.152877e+10
7.270549e+10
7.26697e+10
7.143553e+10
6.818284e+10
4.982429e+10
4.241049e+10
3.717608e+10
2.837574e+10
2.860209e+10
3.940775e+10
6.265188e+10
7.580637e+10
8.88235e+10
1.147199e+11
1.261013e+11
1.302574e+11
1.322238e+11
1.321649e+11
1.30104e+11
1.259369e+11
1.146212e+11
8.873728e+10
7.570279e+10
6.258808e+10
3.939769e+10
2.861636e+10
3.237699e+10
5.866784e+10
7.956951e+10
1.164861e+11
1.344812e+11
1.522846e+11
1.690049e+11
1.964448e+11
2.0673e+11
2.107527e+11
2.106865e+11
2.065491e+11
1.962024e+11
1.687628e+11
1.520167e+11
1.34229e+11
1.162004e+11
7.946907e+10
5.858295e+10
3.236745e+10
3.519428e+10
6.777952e+10
9.459512e+10
1.364823e+11
1.659263e+11
2.051562e+11
2.306246e+11
2.499432e+11
2.660649e+11
2.758571e+11
2.80323e+11
2.802511e+11
2.756536e+11
2.657646e+11
2.495943e+11
2.302618e+11
2.04803e+11
1.656019e+11
1.361408e+11
9.44147e+10
6.762026e+10
3.513145e+10
3.690329e+10
7.614718e+10
1.211984e+11
1.520834e+11
1.83431e+11
2.35342e+11
2.724699e+11
3.028853e+11
3.236274e+11
3.390595e+11
3.489641e+11
3.537178e+11
3.536399e+11
3.487398e+11
3.387141e+11
3.231944e+11
3.023956e+11
2.719718e+11
2.348852e+11
1.830269e+11
1.516549e+11
1.208148e+11
7.590085e+10
3.679346e+10
3.521149e+10
7.616416e+10
1.279862e+11
1.645755e+11
2.161126e+11
2.59418e+11
3.039451e+11
3.402195e+11
3.703151e+11
3.953802e+11
4.136724e+11
4.252987e+11
4.309038e+11
4.308222e+11
4.250634e+11
4.133083e+11
3.949184e+11
3.697828e+11
3.396342e+11
3.033353e+11
2.587973e+11
2.155137e+11
1.640453e+11
1.274701e+11
7.588521e+10
3.509516e+10
3.240811e+10
6.78011e+10
1.212642e+11
1.645859e+11
2.224372e+11
2.7375e+11
3.226987e+11
3.652622e+11
4.045498e+11
4.377508e+11
4.649874e+11
4.851487e+11
4.98302e+11
5.046785e+11
5.045946e+11
4.980599e+11
4.847642e+11
4.64485e+11
4.371556e+11
4.038774e+11
3.645387e+11
3.219447e+11
2.730128e+11
2.21746e+11
1.640136e+11
1.207912e+11
6.755909e+10
3.229484e+10
2.863715e+10
5.869844e+10
9.467704e+10
1.521282e+11
2.161631e+11
2.737883e+11
3.291004e+11
3.775674e+11
4.240097e+11
4.660291e+11
5.014488e+11
5.303371e+11
5.52242e+11
5.668507e+11
5.737294e+11
5.736425e+11
5.665963e+11
5.518386e+11
5.2981e+11
5.008176e+11
4.653062e+11
4.232186e+11
3.76727e+11
3.282371e+11
2.729731e+11
2.154419e+11
1.515761e+11
9.434365e+10
5.848502e+10
2.852561e+10
3.944967e+10
7.965221e+10
1.364973e+11
1.835691e+11
2.595105e+11
3.227826e+11
3.776161e+11
4.302994e+11
4.795177e+11
5.233792e+11
5.607169e+11
5.91172e+11
6.141843e+11
6.297181e+11
6.376027e+11
6.37515e+11
6.2946e+11
6.137725e+11
5.906283e+11
5.600572e+11
5.226197e+11
4.786851e+11
4.294117e+11
3.767025e+11
3.218804e+11
2.586938e+11
1.829215e+11
1.360181e+11
7.936202e+10
3.931026e+10
2.841151e+10
6.267873e+10
1.164938e+11
1.660164e+11
2.355136e+11
3.040845e+11
3.653983e+11
4.241177e+11
4.79576e+11
5.306134e+11
5.760803e+11
6.14692e+11
6.462442e+11
6.707699e+11
6.875922e+11
6.962147e+11
6.961263e+11
6.873323e+11
6.703538e+11
6.456893e+11
6.140101e+11
5.752903e+11
5.297422e+11
4.786436e+11
4.23156e+11
3.64441e+11
3.031725e+11
2.347258e+11
1.653653e+11
1.160833e+11
6.2444e+10
2.832253e+10
3.719206e+10
7.5824e+10
1.345092e+11
2.053214e+11
2.726423e+11
3.40399e+11
4.047236e+11
4.661859e+11
5.234887e+11
5.761352e+11
6.226313e+11
6.629134e+11
6.960169e+11
7.215212e+11
7.387959e+11
7.475206e+11
7.474316e+11
7.38535e+11
7.211032e+11
6.954557e+11
6.622204e+11
6.218238e+11
5.752378e+11
5.225276e+11
4.651958e+11
4.037336e+11
3.394351e+11
2.717838e+11
2.045546e+11
1.339883e+11
7.553705e+10
3.706462e+10
4.244648e+10
8.887901e+10
1.523994e+11
2.308456e+11
3.030714e+11
3.705426e+11
4.379742e+11
5.016569e+11
5.608841e+11
6.148141e+11
6.629804e+11
7.047642e+11
7.387419e+11
7.644536e+11
7.816522e+11
7.902452e+11
7.901583e+11
7.813966e+11
7.640415e+11
7.38187e+11
7.040781e+11
6.621777e+11
6.13918e+11
5.59924e+11
5.006655e+11
4.369794e+11
3.695657e+11
3.021803e+11
2.300163e+11
1.517761e+11
8.850059e+10
4.225754e+10
4.989922e+10
1.149034e+11
1.692431e+11
2.502136e+11
3.2387e+11
3.956546e+11
4.652688e+11
5.306075e+11
5.914188e+11
6.46453e+11
6.961678e+11
7.388224e+11
7.73077e+11
7.98665e+11
8.156271e+11
8.240495e+11
8.239674e+11
8.153851e+11
7.982721e+11
7.725437e+11
7.381566e+11
6.953811e+11
6.455683e+11
5.90468e+11
5.296235e+11
4.642789e+11
3.946839e+11
3.229637e+11
2.493527e+11
1.685239e+11
1.143069e+11
4.965056e+10
2.984468e+10
6.834524e+10
1.263173e+11
1.967454e+11
2.663851e+11
3.393742e+11
4.140109e+11
4.855021e+11
5.525879e+11
6.145197e+11
6.710754e+11
7.217716e+11
7.646333e+11
7.987637e+11
8.241e+11
8.408249e+11
8.491101e+11
8.490339e+11
8.405999e+11
8.237332e+11
7.982636e+11
7.640032e+11
7.210187e+11
6.702206e+11
6.135973e+11
5.516339e+11
4.84532e+11
4.13054e+11
3.384566e+11
2.654972e+11
1.959319e+11
1.256806e+11
6.801424e+10
2.968731e+10
3.482985e+10
7.159898e+10
1.304732e+11
2.070617e+11
2.762312e+11
3.493646e+11
4.257263e+11
4.987507e+11
5.673012e+11
6.301631e+11
6.880137e+11
7.391681e+11
7.819578e+11
8.158536e+11
8.409525e+11
8.574937e+11
8.656797e+11
8.656077e+11
8.572828e+11
8.406103e+11
8.153884e+11
7.813705e+11
7.384613e+11
6.872039e+11
6.292822e+11
5.663804e+11
4.978066e+11
4.247879e+11
3.484514e+11
2.753549e+11
2.062584e+11
1.298664e+11
7.126493e+10
3.468611e+10
3.583856e+10
7.281091e+10
1.324569e+11
2.111382e+11
2.807799e+11
3.542215e+11
4.314408e+11
5.05237e+11
5.742985e+11
6.381737e+11
6.967718e+11
7.480401e+11
7.907071e+11
8.244355e+11
8.493969e+11
8.65839e+11
8.739732e+11
8.739029e+11
8.656361e+11
8.490712e+11
8.239958e+11
7.901551e+11
7.473774e+11
6.96011e+11
6.3734e+11
5.73418e+11
5.043283e+11
4.305267e+11
3.533257e+11
2.799294e+11
2.103798e+11
1.319192e+11
7.250462e+10
3.569637e+10
3.584199e+10
7.282405e+10
1.324951e+11
2.111641e+11
2.808103e+11
3.542567e+11
4.314786e+11
5.052769e+11
5.743435e+11
6.382252e+11
6.968341e+11
7.481167e+11
7.907984e+11
8.245378e+11
8.495058e+11
8.659523e+11
8.740901e+11
8.740216e+11
8.657554e+11
8.491913e+11
8.241167e+11
7.902758e+11
7.47496e+11
6.961245e+11
6.374437e+11
5.735091e+11
5.044093e+11
4.305969e+11
3.533875e+11
2.799928e+11
2.10442e+11
1.319732e+11
7.253368e+10
3.570992e+10
3.486183e+10
7.162957e+10
1.30509e+11
2.071103e+11
2.763111e+11
3.494656e+11
4.258355e+11
4.988726e+11
5.674434e+11
6.303219e+11
6.88201e+11
7.393947e+11
7.82225e+11
8.161532e+11
8.41273e+11
8.578283e+11
8.660242e+11
8.659576e+11
8.576363e+11
8.409677e+11
8.157491e+11
7.817317e+11
7.388167e+11
6.87544e+11
6.29595e+11
5.666587e+11
4.980518e+11
4.24992e+11
3.486264e+11
2.755365e+11
2.06435e+11
1.300193e+11
7.135217e+10
3.473014e+10
2.988557e+10
6.834181e+10
1.263136e+11
1.967969e+11
2.664949e+11
3.395342e+11
4.141849e+11
4.857033e+11
5.528256e+11
6.147887e+11
6.713856e+11
7.221376e+11
7.650583e+11
7.992397e+11
8.246127e+11
8.413631e+11
8.496657e+11
8.496012e+11
8.411774e+11
8.243194e+11
7.988563e+11
7.645974e+11
7.216041e+11
6.707819e+11
6.141183e+11
5.520971e+11
4.849352e+11
4.133866e+11
3.387291e+11
2.657764e+11
1.961893e+11
1.258841e+11
6.809659e+10
2.977264e+10
4.991988e+10
1.148598e+11
1.693064e+11
2.503494e+11
3.240862e+11
3.958856e+11
4.65543e+11
5.309229e+11
5.917841e+11
6.468751e+11
6.966571e+11
7.393814e+11
7.737e+11
7.993398e+11
8.163397e+11
8.247877e+11
8.247271e+11
8.161658e+11
7.990672e+11
7.733473e+11
7.389617e+11
6.96174e+11
6.463302e+11
5.91182e+11
5.302685e+11
4.648386e+11
3.951496e+11
3.233288e+11
2.497054e+11
1.688073e+11
1.145273e+11
4.973807e+10
4.246323e+10
8.892679e+10
1.524909e+11
2.309791e+11
3.033198e+11
3.70811e+11
4.383055e+11
5.020316e+11
5.613218e+11
6.153223e+11
6.635626e+11
7.05424e+11
7.394761e+11
7.652509e+11
7.824966e+11
7.911206e+11
7.910665e+11
7.823414e+11
7.650097e+11
7.391674e+11
7.050593e+11
6.631435e+11
6.148474e+11
5.60798e+11
5.014544e+11
4.376721e+11
3.701579e+11
3.026306e+11
2.304212e+11
1.520499e+11
8.863103e+10
4.229923e+10
3.724498e+10
7.590748e+10
1.346503e+11
2.054496e+11
2.72873e+11
3.406959e+11
4.050903e+11
4.665961e+11
5.239644e+11
5.76692e+11
6.232692e+11
6.636377e+11
6.968253e+11
7.224002e+11
7.397284e+11
7.484895e+11
7.48445e+11
7.395998e+11
7.222008e+11
6.965728e+11
6.633427e+11
6.229302e+11
5.763025e+11
5.235268e+11
4.660991e+11
4.045359e+11
3.401351e+11
2.72305e+11
2.049936e+11
1.342365e+11
7.563631e+10
3.708428e+10
2.845062e+10
6.274498e+10
1.166792e+11
1.661209e+11
2.356829e+11
3.043658e+11
3.657594e+11
4.245376e+11
4.80068e+11
5.311909e+11
5.767438e+11
6.154467e+11
6.470891e+11
6.716893e+11
6.885718e+11
6.97241e+11
6.97209e+11
6.884773e+11
6.71541e+11
6.469022e+11
6.152305e+11
5.764916e+11
5.308935e+11
4.797217e+11
4.241332e+11
3.65306e+11
3.039257e+11
2.352647e+11
1.657995e+11
1.162646e+11
6.253916e+10
2.833681e+10
3.947868e+10
7.970347e+10
1.366606e+11
1.836543e+11
2.597622e+11
3.231134e+11
3.78026e+11
4.30792e+11
4.800988e+11
5.240447e+11
5.614698e+11
5.920141e+11
6.15103e+11
6.307037e+11
6.386468e+11
6.38629e+11
6.306483e+11
6.150129e+11
5.918995e+11
5.613355e+11
5.238805e+11
4.798942e+11
4.305433e+11
3.777313e+11
3.227882e+11
2.594375e+11
1.83401e+11
1.363665e+11
7.949595e+10
3.935653e+10
2.864211e+10
5.875808e+10
9.47625e+10
1.523404e+11
2.164288e+11
2.741035e+11
3.294961e+11
3.78051e+11
4.245861e+11
4.666863e+11
5.021849e+11
5.311481e+11
5.531294e+11
5.678168e+11
5.747679e+11
5.747619e+11
5.677986e+11
5.530989e+11
5.311076e+11
5.02128e+11
4.666054e+11
4.244674e+11
3.778896e+11
3.292869e+11
2.738518e+11
2.161505e+11
1.520733e+11
9.455973e+10
5.861432e+10
2.858465e+10
3.242054e+10
6.789577e+10
1.214372e+11
1.647749e+11
2.226927e+11
2.741063e+11
3.231568e+11
3.658095e+11
4.051582e+11
4.384361e+11
4.657473e+11
4.859829e+11
4.992165e+11
5.056695e+11
5.056737e+11
4.992353e+11
4.860089e+11
4.657746e+11
4.384602e+11
4.051685e+11
3.657721e+11
3.23069e+11
2.739855e+11
2.225398e+11
1.646172e+11
1.212114e+11
6.775366e+10
3.236453e+10
3.523447e+10
7.623991e+10
1.281948e+11
1.64751e+11
2.164289e+11
2.597999e+11
3.044069e+11
3.407373e+11
3.709124e+11
3.960464e+11
4.144087e+11
4.261205e+11
4.318131e+11
4.318224e+11
4.261706e+11
4.144909e+11
3.961425e+11
3.710082e+11
3.408211e+11
3.044313e+11
2.597654e+11
2.163742e+11
1.64674e+11
1.280743e+11
7.614421e+10
3.517971e+10
3.692482e+10
7.623253e+10
1.214537e+11
1.523502e+11
1.8375e+11
2.357485e+11
2.72913e+11
3.033778e+11
3.241886e+11
3.39693e+11
3.496924e+11
3.54561e+11
3.545632e+11
3.497537e+11
3.397975e+11
3.243171e+11
3.03519e+11
2.730193e+11
2.357827e+11
1.837076e+11
1.52335e+11
1.214141e+11
7.619059e+10
3.689181e+10
3.521251e+10
6.786057e+10
9.478454e+10
1.366842e+11
1.661332e+11
2.05486e+11
2.31044e+11
2.504551e+11
2.666479e+11
2.76513e+11
2.810445e+11
2.81037e+11
2.765412e+11
2.667027e+11
2.505312e+11
2.311554e+11
2.056109e+11
1.662531e+11