/*--------------------------------*- C++ -*----------------------------------*\
  =========                 |
  \\      /  F ield         | OpenFOAM: The Open Source CFD Toolbox
   \\    /   O peration     | Website:  https://openfoam.org
    \\  /    A nd           | Version:  6
     \\/     M anipulation  |
\*---------------------------------------------------------------------------*/
FoamFile
{
    version     2.0;
    format      ascii;
    class       volScalarField;
    location    "49.8/region0/neutronTransport";
    object      flux1;
}
// * * * * * * * * * * * * * * * * * * * * * * * * * * * * * * * * * * * * * //

dimensions      [0 -2 -1 0 0 0 0];

internalField   nonuniform List<scalar> 
203709
(
1.286262e+17
1.424589e+17
1.424342e+17
1.286338e+17
1.345393e+17
1.516403e+17
1.902926e+17
1.880808e+17
1.880452e+17
1.902417e+17
1.515763e+17
1.344694e+17
1.314075e+17
1.522153e+17
1.927013e+17
1.918608e+17
1.974582e+17
1.988193e+17
1.987963e+17
1.973973e+17
1.917628e+17
1.925685e+17
1.520739e+17
1.312559e+17
1.314332e+17
1.873044e+17
1.910714e+17
1.986469e+17
2.025165e+17
2.059551e+17
2.074585e+17
2.074419e+17
2.058827e+17
2.024016e+17
1.984957e+17
1.908822e+17
1.870843e+17
1.312456e+17
1.522425e+17
1.910796e+17
1.997853e+17
2.05908e+17
2.105377e+17
2.138841e+17
2.15537e+17
2.155201e+17
2.138088e+17
2.104202e+17
2.057563e+17
1.995938e+17
1.908529e+17
1.520233e+17
1.345845e+17
1.927368e+17
1.986604e+17
2.059004e+17
2.122061e+17
2.171857e+17
2.20637e+17
2.223356e+17
2.223144e+17
2.205751e+17
2.170963e+17
2.12078e+17
2.057358e+17
1.984579e+17
1.92497e+17
1.343775e+17
1.516788e+17
1.918905e+17
2.025168e+17
2.105018e+17
2.171628e+17
2.22353e+17
2.258048e+17
2.274246e+17
2.274064e+17
2.257616e+17
2.22278e+17
2.170671e+17
2.1039e+17
2.02353e+17
1.916726e+17
1.514716e+17
1.287161e+17
1.903729e+17
1.975273e+17
2.059948e+17
2.138976e+17
2.206395e+17
2.258125e+17
2.29019e+17
2.306062e+17
2.305946e+17
2.289887e+17
2.257495e+17
2.205588e+17
2.137862e+17
2.05832e+17
1.973147e+17
1.901341e+17
1.284827e+17
1.425182e+17
1.881582e+17
1.989035e+17
2.075499e+17
2.156085e+17
2.223898e+17
2.274745e+17
2.306411e+17
2.323717e+17
2.323111e+17
2.306042e+17
2.274234e+17
2.223169e+17
2.154919e+17
2.073839e+17
1.987065e+17
1.879235e+17
1.422957e+17
1.425425e+17
1.88209e+17
1.989374e+17
2.075718e+17
2.156391e+17
2.224285e+17
2.275055e+17
2.306737e+17
2.324443e+17
2.323794e+17
2.306387e+17
2.274539e+17
2.223445e+17
2.155278e+17
2.074187e+17
1.987389e+17
1.879751e+17
1.42342e+17
1.287037e+17
1.904423e+17
1.975936e+17
2.060791e+17
2.14005e+17
2.207552e+17
2.259209e+17
2.291253e+17
2.307161e+17
2.306865e+17
2.290822e+17
2.258577e+17
2.206622e+17
2.138857e+17
2.059252e+17
1.974017e+17
1.901996e+17
1.285466e+17
1.517249e+17
1.919817e+17
2.026504e+17
2.106785e+17
2.173364e+17
2.225136e+17
2.259558e+17
2.275853e+17
2.275496e+17
2.259119e+17
2.224336e+17
2.172297e+17
2.105425e+17
2.024887e+17
1.918073e+17
1.515745e+17
1.346415e+17
1.928475e+17
1.987925e+17
2.060648e+17
2.1238e+17
2.173687e+17
2.208098e+17
2.225319e+17
2.225019e+17
2.207695e+17
2.172878e+17
2.122767e+17
2.059389e+17
1.986506e+17
1.926872e+17
1.345072e+17
1.52337e+17
1.912131e+17
1.999452e+17
2.060879e+17
2.107271e+17
2.140874e+17
2.158436e+17
2.158204e+17
2.14036e+17
2.10651e+17
2.059901e+17
1.998341e+17
1.911048e+17
1.522291e+17
1.315296e+17
1.874678e+17
1.912294e+17
1.988263e+17
2.026975e+17
2.061536e+17
2.077538e+17
2.077414e+17
2.061188e+17
2.026447e+17
1.987497e+17
1.911351e+17
1.873657e+17
1.314219e+17
1.315227e+17
1.52343e+17
1.928776e+17
1.920172e+17
1.97651e+17
1.990715e+17
1.990826e+17
1.976396e+17
1.920095e+17
1.928406e+17
1.522805e+17
1.314565e+17
1.346482e+17
1.517552e+17
1.90486e+17
1.883514e+17
1.883812e+17
1.904963e+17
1.517615e+17
1.346431e+17
1.287541e+17
1.425921e+17
1.426105e+17
1.287732e+17
1.078557e+17
1.234765e+17
1.286051e+17
1.321108e+17
1.343027e+17
1.342911e+17
1.320779e+17
1.285503e+17
1.234048e+17
1.077871e+17
1.100729e+17
1.292524e+17
1.669486e+17
1.723241e+17
1.786295e+17
1.857078e+17
1.913235e+17
1.913095e+17
1.85676e+17
1.785428e+17
1.721698e+17
1.667335e+17
1.290493e+17
1.0988e+17
1.126439e+17
1.640689e+17
1.732549e+17
1.868872e+17
1.999309e+17
2.108356e+17
2.253071e+17
2.371478e+17
2.371283e+17
2.252577e+17
2.107036e+17
1.997339e+17
1.866733e+17
1.730106e+17
1.638166e+17
1.124526e+17
1.13759e+17
1.67132e+17
1.823512e+17
1.991662e+17
2.167041e+17
2.422437e+17
2.740647e+17
3.067639e+17
3.181609e+17
3.181288e+17
3.066445e+17
2.739046e+17
2.420655e+17
2.165104e+17
1.989345e+17
1.820821e+17
1.66806e+17
1.135385e+17
1.126436e+17
1.671148e+17
1.842236e+17
2.039553e+17
2.374379e+17
2.780265e+17
3.228258e+17
3.550295e+17
3.79049e+17
4.178116e+17
4.177642e+17
3.78939e+17
3.548503e+17
3.225764e+17
2.777774e+17
2.37153e+17
2.036722e+17
1.838871e+17
1.667463e+17
1.123875e+17
1.100935e+17
1.641218e+17
1.823717e+17
2.039794e+17
2.500933e+17
3.126479e+17
3.548166e+17
3.895265e+17
4.452243e+17
4.701122e+17
4.847878e+17
4.847331e+17
4.699566e+17
4.449801e+17
3.892297e+17
3.544625e+17
3.122315e+17
2.496978e+17
2.035875e+17
1.819703e+17
1.637132e+17
1.098083e+17
1.292373e+17
1.732661e+17
1.991947e+17
2.374718e+17
3.126653e+17
3.717709e+17
4.385756e+17
4.754325e+17
5.041932e+17
5.219173e+17
5.309226e+17
5.308616e+17
5.217412e+17
5.039215e+17
4.750674e+17
4.381226e+17
3.712794e+17
3.121647e+17
2.370197e+17
1.987789e+17
1.728643e+17
1.289058e+17
1.079058e+17
1.669622e+17
1.868957e+17
2.167511e+17
2.780706e+17
3.549015e+17
4.386128e+17
4.886569e+17
5.208298e+17
5.430362e+17
5.571122e+17
5.64034e+17
5.63977e+17
5.569406e+17
5.427642e+17
5.204601e+17
4.881958e+17
4.380898e+17
3.543895e+17
2.776215e+17
2.16347e+17
1.864764e+17
1.665092e+17
1.075763e+17
1.23529e+17
1.724014e+17
1.999651e+17
2.423363e+17
3.229686e+17
3.896655e+17
4.755123e+17
5.208607e+17
5.499932e+17
5.696106e+17
5.819925e+17
5.880048e+17
5.879535e+17
5.818411e+17
5.693673e+17
5.496524e+17
5.204193e+17
4.749866e+17
3.891264e+17
3.224458e+17
2.418545e+17
1.995358e+17
1.719484e+17
1.231661e+17
1.28665e+17
1.787436e+17
2.109047e+17
2.74145e+17
3.552259e+17
4.454063e+17
5.043113e+17
5.43097e+17
5.696429e+17
5.878467e+17
5.993849e+17
6.050074e+17
6.049616e+17
5.992534e+17
5.876285e+17
5.693424e+17
5.427061e+17
5.038149e+17
4.44823e+17
3.546121e+17
2.736849e+17
2.105034e+17
1.782927e+17
1.283084e+17
1.321752e+17
1.858474e+17
2.254688e+17
3.069669e+17
3.793079e+17
4.703758e+17
5.221211e+17
5.572635e+17
5.821117e+17
5.994636e+17
6.104813e+17
6.158659e+17
6.158186e+17
6.103567e+17
5.992599e+17
5.818372e+17
5.569068e+17
5.216597e+17
4.698192e+17
3.787296e+17
3.064643e+17
2.250158e+17
1.85412e+17
1.318453e+17
1.343641e+17
1.914435e+17
2.373038e+17
3.184124e+17
4.181444e+17
4.851355e+17
5.312439e+17
5.643209e+17
5.882584e+17
6.052107e+17
6.159876e+17
6.212869e+17
6.212142e+17
6.158495e+17
6.05007e+17
5.879881e+17
5.639736e+17
5.308078e+17
4.846208e+17
4.175939e+17
3.179287e+17
2.368931e+17
1.910594e+17
1.340592e+17
1.343488e+17
1.91412e+17
2.372695e+17
3.183969e+17
4.181697e+17
4.851859e+17
5.313124e+17
5.644045e+17
5.883487e+17
6.052988e+17
6.160807e+17
6.214006e+17
6.213256e+17
6.159452e+17
6.051001e+17
5.880824e+17
5.640711e+17
5.309075e+17
4.84722e+17
4.176832e+17
3.179597e+17
2.368974e+17
1.91062e+17
1.340601e+17
1.321401e+17
1.858136e+17
2.254857e+17
3.070248e+17
3.793559e+17
4.705043e+17
5.223167e+17
5.575084e+17
5.823777e+17
5.997288e+17
6.107504e+17
6.161484e+17
6.160926e+17
6.10627e+17
5.995407e+17
5.821266e+17
5.57201e+17
5.219555e+17
4.701091e+17
3.78982e+17
3.06643e+17
2.251555e+17
1.855026e+17
1.318725e+17
1.286505e+17
1.787521e+17
2.109889e+17
2.742593e+17
3.553302e+17
4.456039e+17
5.045988e+17
5.434553e+17
5.700349e+17
5.88249e+17
5.997978e+17
6.054416e+17
6.053939e+17
5.996944e+17
5.880826e+17
5.698117e+17
5.431854e+17
5.042902e+17
4.452725e+17
3.550241e+17
2.739151e+17
2.106697e+17
1.784743e+17
1.284058e+17
1.235406e+17
1.72446e+17
2.000734e+17
2.424307e+17
3.231571e+17
3.899105e+17
4.758462e+17
5.212617e+17
5.504436e+17
5.701014e+17
5.82514e+17
5.885596e+17
5.885228e+17
5.824369e+17
5.699752e+17
5.502714e+17
5.210497e+17
4.755981e+17
3.89629e+17
3.2286e+17
2.42181e+17
1.997856e+17
1.721877e+17
1.233155e+17
1.07925e+17
1.670364e+17
1.870127e+17
2.168655e+17
2.782866e+17
3.551712e+17
4.389726e+17
4.890837e+17
5.213199e+17
5.435831e+17
5.577136e+17
5.646647e+17
5.646415e+17
5.576599e+17
5.434995e+17
5.21203e+17
4.889353e+17
4.387867e+17
3.5494e+17
2.780382e+17
2.166614e+17
1.867601e+17
1.667898e+17
1.077435e+17
1.293345e+17
1.733718e+17
1.993074e+17
2.376448e+17
3.129403e+17
3.721152e+17
4.390106e+17
4.759461e+17
5.047729e+17
5.225672e+17
5.315916e+17
5.315838e+17
5.225432e+17
5.047338e+17
4.758837e+17
4.3893e+17
3.720073e+17
3.12777e+17
2.374716e+17
1.991545e+17
1.731615e+17
1.291101e+17
1.101715e+17
1.641951e+17
1.824765e+17
2.041206e+17
2.503036e+17
3.129511e+17
3.552249e+17
3.900283e+17
4.458102e+17
4.707889e+17
4.855009e+17
4.855148e+17
4.707959e+17
4.458099e+17
3.900047e+17
3.552066e+17
3.129144e+17
2.502156e+17
2.040105e+17
1.823652e+17
1.640354e+17
1.099734e+17
1.127302e+17
1.672706e+17
1.84378e+17
2.041076e+17
2.376295e+17
2.783129e+17
3.232722e+17
3.555437e+17
3.7963e+17
4.184652e+17
4.184961e+17
3.796666e+17
3.555592e+17
3.232603e+17
2.783245e+17
2.376306e+17
2.040772e+17
1.843139e+17
1.6718e+17
1.126095e+17
1.138519e+17
1.672599e+17
1.824877e+17
1.993435e+17
2.169156e+17
2.424636e+17
2.743717e+17
3.072455e+17
3.18681e+17
3.187007e+17
3.072548e+17
2.743992e+17
2.425287e+17
2.169345e+17
1.993434e+17
1.824767e+17
1.672318e+17
1.138008e+17
1.126941e+17
1.642184e+17
1.733917e+17
1.870227e+17
2.00087e+17
2.110752e+17
2.256331e+17
2.375012e+17
2.375135e+17
2.256593e+17
2.110922e+17
2.00154e+17
1.871044e+17
1.734417e+17
1.64234e+17
1.126898e+17
1.101667e+17
1.293314e+17
1.670807e+17
1.725175e+17
1.788693e+17
1.859768e+17
1.916236e+17
1.916429e+17
1.860221e+17
1.789195e+17
1.72578e+17
1.671915e+17
1.294083e+17
1.102055e+17
1.079341e+17
1.235741e+17
1.287133e+17
1.322372e+17
1.344667e+17
1.344821e+17
1.323085e+17
1.2881e+17
1.236743e+17
1.080098e+17
9.146325e+16
1.044973e+17
1.076561e+17
1.088456e+17
1.08809e+17
1.075487e+17
1.043144e+17
9.130538e+16
9.135554e+16
1.105875e+17
1.214575e+17
1.551333e+17
1.609665e+17
1.643643e+17
1.658927e+17
1.658481e+17
1.64228e+17
1.607501e+17
1.549518e+17
1.213156e+17
1.104541e+17
9.12837e+16
1.009512e+17
1.502427e+17
1.649492e+17
1.826415e+17
2.019154e+17
2.107306e+17
2.16114e+17
2.186166e+17
2.185675e+17
2.159688e+17
2.104993e+17
2.016327e+17
1.823752e+17
1.646864e+17
1.49981e+17
1.008241e+17
9.4454e+16
1.185452e+17
1.617635e+17
1.936618e+17
2.282996e+17
2.680257e+17
2.877051e+17
2.990242e+17
3.06524e+17
3.103878e+17
3.103194e+17
3.063237e+17
2.987043e+17
2.872872e+17
2.675552e+17
2.278699e+17
1.932972e+17
1.613724e+17
1.182511e+17
9.41778e+16
9.535876e+16
1.47092e+17
1.714209e+17
2.153329e+17
2.730213e+17
3.132158e+17
3.468256e+17
3.996857e+17
4.24275e+17
4.387313e+17
4.458906e+17
4.458063e+17
4.384895e+17
4.238977e+17
3.992127e+17
3.463453e+17
3.126921e+17
2.724543e+17
2.147808e+17
1.7097e+17
1.465982e+17
9.502325e+16
9.446134e+16
1.471284e+17
1.772007e+17
2.242362e+17
2.934016e+17
3.436585e+17
4.116994e+17
4.556079e+17
4.936932e+17
5.219715e+17
5.411943e+17
5.507375e+17
5.506429e+17
5.409287e+17
5.215263e+17
4.931003e+17
4.549248e+17
4.109398e+17
3.429045e+17
2.92663e+17
2.236253e+17
1.766087e+17
1.46557e+17
9.409336e+16
1.185972e+17
1.714688e+17
2.242603e+17
2.981515e+17
3.55388e+17
4.355267e+17
4.941747e+17
5.4194e+17
5.828058e+17
6.15874e+17
6.396079e+17
6.492776e+17
6.491716e+17
6.392912e+17
6.153726e+17
5.821661e+17
5.411982e+17
4.933363e+17
4.346433e+17
3.545186e+17
2.972792e+17
2.235511e+17
1.708697e+17
1.181451e+17
1.010623e+17
1.617891e+17
2.153322e+17
2.934669e+17
3.553856e+17
4.426998e+17
5.122075e+17
5.732448e+17
6.259159e+17
6.705496e+17
7.03755e+17
7.273693e+17
7.409426e+17
7.408344e+17
7.270496e+17
7.032437e+17
6.698747e+17
6.251094e+17
5.723304e+17
5.112482e+17
4.417094e+17
3.544633e+17
2.925884e+17
2.146318e+17
1.611969e+17
1.006445e+17
9.139976e+16
1.503007e+17
1.937047e+17
2.730583e+17
3.43786e+17
4.3564e+17
5.122738e+17
5.845244e+17
6.503605e+17
7.038419e+17
7.478929e+17
7.84584e+17
8.103707e+17
8.242818e+17
8.241718e+17
8.100464e+17
7.840653e+17
7.472003e+17
7.029875e+17
6.493776e+17
5.834771e+17
5.111822e+17
4.345607e+17
3.428014e+17
2.721513e+17
1.930651e+17
1.497161e+17
9.100158e+16
1.10652e+17
1.650143e+17
2.283199e+17
3.133552e+17
4.118471e+17
4.94342e+17
5.733534e+17
6.504116e+17
7.159996e+17
7.737773e+17
8.204472e+17
8.566761e+17
8.809899e+17
8.933665e+17
8.932541e+17
8.806653e+17
8.561596e+17
8.197475e+17
7.729074e+17
7.149915e+17
6.493089e+17
5.722022e+17
4.932008e+17
4.107579e+17
3.123497e+17
2.276098e+17
1.644399e+17
1.10198e+17
1.21501e+17
1.826635e+17
2.680055e+17
3.470496e+17
4.558185e+17
5.421661e+17
6.260838e+17
7.03978e+17
7.738504e+17
8.337126e+17
8.801438e+17
9.14356e+17
9.368511e+17
9.480326e+17
9.479286e+17
9.365467e+17
9.138639e+17
8.794741e+17
8.328765e+17
7.728714e+17
7.028955e+17
6.249493e+17
5.410211e+17
4.54716e+17
3.460311e+17
2.672841e+17
1.821012e+17
1.21046e+17
9.150256e+16
1.552187e+17
2.019145e+17
2.877431e+17
3.999459e+17
4.939843e+17
5.831098e+17
6.708454e+17
7.481472e+17
8.206135e+17
8.802228e+17
9.254705e+17
9.580759e+17
9.79252e+17
9.896694e+17
9.89577e+17
9.789796e+17
9.576322e+17
9.248567e+17
8.794356e+17
8.196661e+17
7.470781e+17
6.697038e+17
5.819452e+17
4.928614e+17
3.988921e+17
2.870083e+17
2.013375e+17
1.546171e+17
9.11196e+16
1.044889e+17
1.610034e+17
2.107968e+17
2.991677e+17
4.24605e+17
5.223618e+17
6.162582e+17
7.041623e+17
7.849505e+17
8.56947e+17
9.145308e+17
9.581714e+17
9.895359e+17
1.009851e+18
1.019831e+18
1.019746e+18
1.009602e+18
9.891322e+17
9.576205e+17
9.138177e+17
8.560623e+17
7.839183e+17
7.030414e+17
6.151457e+17
5.212545e+17
4.235685e+17
2.984022e+17
2.101866e+17
1.604604e+17
1.04096e+17
1.076995e+17
1.644484e+17
2.162429e+17
3.067733e+17
4.391608e+17
5.417156e+17
6.401494e+17
7.279194e+17
8.108865e+17
8.814161e+17
9.371839e+17
9.795051e+17
1.010004e+18
1.029767e+18
1.039469e+18
1.039386e+18
1.02953e+18
1.009628e+18
9.790005e+17
9.365337e+17
8.806008e+17
8.099226e+17
7.268641e+17
6.390728e+17
5.406327e+17
4.381574e+17
3.059942e+17
2.156307e+17
1.639083e+17
1.072873e+17
1.089486e+17
1.660596e+17
2.188283e+17
3.107404e+17
4.464241e+17
5.51362e+17
6.499581e+17
7.416478e+17
8.249722e+17
8.939951e+17
9.485884e+17
9.901489e+17
1.0202e+18
1.03968e+18
1.049245e+18
1.049153e+18
1.039437e+18
1.019824e+18
9.896526e+17
9.479667e+17
8.932358e+17
8.240857e+17
7.406755e+17
6.489523e+17
5.503551e+17
4.454701e+17
3.099681e+17
2.182065e+17
1.655017e+17
1.085314e+17
1.089594e+17
1.660754e+17
2.188461e+17
3.107687e+17
4.46446e+17
5.513832e+17
6.499942e+17
7.417041e+17
8.250557e+17
8.941078e+17
9.487261e+17
9.902992e+17
1.020353e+18
1.039836e+18
1.049407e+18
1.049315e+18
1.039596e+18
1.019986e+18
9.898182e+17
9.481368e+17
8.934086e+17
8.242566e+17
7.4083e+17
6.490749e+17
5.504578e+17
4.455532e+17
3.100171e+17
2.182334e+17
1.655227e+17
1.085493e+17
1.077434e+17
1.645132e+17
2.16308e+17
3.068604e+17
4.392302e+17
5.418155e+17
6.403023e+17
7.280973e+17
8.111279e+17
8.817383e+17
9.375782e+17
9.799397e+17
1.010448e+18
1.030217e+18
1.03993e+18
1.039849e+18
1.029998e+18
1.01011e+18
9.794988e+17
9.370458e+17
8.81119e+17
8.104302e+17
7.273322e+17
6.394749e+17
5.409795e+17
4.384052e+17
3.06119e+17
2.15708e+17
1.639729e+17
1.073422e+17
1.045757e+17
1.61107e+17
2.109029e+17
2.993222e+17
4.247271e+17
5.225449e+17
6.16521e+17
7.044686e+17
7.853327e+17
8.574319e+17
9.151116e+17
9.588171e+17
9.902131e+17
1.010553e+18
1.020558e+18
1.020491e+18
1.010371e+18
9.899286e+17
9.584445e+17
9.146631e+17
8.569119e+17
7.847422e+17
7.03809e+17
6.157901e+17
5.21798e+17
4.239727e+17
2.985783e+17
2.103158e+17
1.605855e+17
1.041898e+17
9.160032e+16
1.553025e+17
2.02088e+17
2.879887e+17
4.001106e+17
4.942369e+17
5.834138e+17
6.712475e+17
7.48638e+17
8.212076e+17
8.809172e+17
9.262522e+17
9.589269e+17
9.801571e+17
9.906188e+17
9.905693e+17
9.800236e+17
9.587167e+17
9.259738e+17
8.805759e+17
8.208001e+17
7.481593e+17
6.707092e+17
5.828353e+17
4.935921e+17
3.994539e+17
2.87254e+17
2.015296e+17
1.548353e+17
9.126417e+16
1.21587e+17
1.828339e+17
2.683016e+17
3.47202e+17
4.56118e+17
5.424976e+17
6.26542e+17
7.045415e+17
7.745166e+17
8.344845e+17
8.810225e+17
9.153315e+17
9.379078e+17
9.491423e+17
9.491114e+17
9.378237e+17
9.152e+17
8.808463e+17
8.342609e+17
7.742312e+17
7.041834e+17
6.261394e+17
5.420491e+17
4.555678e+17
3.467086e+17
2.676182e+17
1.823318e+17
1.212234e+17
1.106887e+17
1.651334e+17
2.285484e+17
3.135709e+17
4.121779e+17
4.946879e+17
5.738103e+17
6.510038e+17
7.167036e+17
7.746062e+17
8.214085e+17
8.577542e+17
8.821691e+17
8.946067e+17
8.945937e+17
8.82131e+17
8.576932e+17
8.21326e+17
7.744995e+17
7.165492e+17
6.507784e+17
5.735378e+17
4.943386e+17
4.117067e+17
3.131582e+17
2.28033e+17
1.647296e+17
1.104069e+17
9.13958e+16
1.504355e+17
1.938985e+17
2.732924e+17
3.440796e+17
4.35985e+17
5.127226e+17
5.851107e+17
6.510771e+17
7.047092e+17
7.489216e+17
7.857409e+17
8.116458e+17
8.256384e+17
8.256442e+17
8.116486e+17
7.857355e+17
7.489111e+17
7.047009e+17
6.51037e+17
5.850088e+17
5.125585e+17
4.357303e+17
3.436962e+17
2.729681e+17
1.934927e+17
1.500569e+17
9.12201e+16
1.010588e+17
1.619181e+17
2.155319e+17
2.93684e+17
3.557301e+17
4.431437e+17
5.127834e+17
5.739432e+17
6.267661e+17
6.715797e+17
7.04923e+17
7.286603e+17
7.42329e+17
7.423507e+17
7.287006e+17
7.049637e+17
6.716262e+17
6.268275e+17
5.739794e+17
5.127673e+17
4.430727e+17
3.555977e+17
2.934926e+17
2.152746e+17
1.616397e+17
1.008714e+17
1.186615e+17
1.716129e+17
2.244632e+17
2.984433e+17
3.557472e+17
4.360936e+17
4.948782e+17
5.427709e+17
5.837518e+17
6.169679e+17
6.408691e+17
6.506593e+17
6.506837e+17
6.409283e+17
6.170555e+17
5.838688e+17
5.4287e+17
4.949528e+17
4.36131e+17
3.557489e+17
2.983696e+17
2.243102e+17
1.714104e+17
1.184775e+17
9.455727e+16
1.472638e+17
1.773742e+17
2.244704e+17
2.938023e+17
3.441905e+17
4.123149e+17
4.563525e+17
4.945655e+17
5.229813e+17
5.423495e+17
5.520043e+17
5.52033e+17
5.424451e+17
5.23107e+17
4.94714e+17
4.565152e+17
4.124843e+17
3.442949e+17
2.938384e+17
2.24439e+17
1.772782e+17
1.471183e+17
9.441892e+16
9.543138e+16
1.472781e+17
1.716607e+17
2.155548e+17
2.733246e+17
3.136209e+17
3.474021e+17
4.003845e+17
4.25072e+17
4.396522e+17
4.469201e+17
4.469496e+17
4.397882e+17
4.252789e+17
4.006119e+17
3.475992e+17
3.13862e+17
2.735257e+17
2.156534e+17
1.716619e+17
1.472246e+17
9.536424e+16
9.456296e+16
1.187144e+17
1.619316e+17
1.93907e+17
2.285385e+17
2.683405e+17
2.880539e+17
2.99432e+17
3.070548e+17
3.111651e+17
3.111643e+17
3.072358e+17
2.997055e+17
2.883561e+17
2.686321e+17
2.287717e+17
1.940548e+17
1.620292e+17
1.187194e+17
9.455578e+16
1.01082e+17
1.504145e+17
1.651558e+17
1.82854e+17
2.021217e+17
2.109643e+17
2.164235e+17
2.190689e+17
2.190558e+17
2.165396e+17
2.111316e+17
2.023116e+17
1.830182e+17
1.652807e+17
1.505809e+17
1.011422e+17
9.141036e+16
1.107244e+17
1.215989e+17
1.553594e+17
1.611562e+17
1.646003e+17
1.662935e+17
1.663016e+17
1.646659e+17
1.612502e+17
1.55501e+17
1.217064e+17
1.108025e+17
9.152755e+16
9.160636e+16
1.045969e+17
1.077872e+17
1.090732e+17
1.090802e+17
1.078224e+17
1.046414e+17
9.161897e+16
8.133435e+16
9.234618e+16
9.474254e+16
9.47047e+16
9.223219e+16
8.124193e+16
7.800549e+16
9.806039e+16
1.101596e+17
1.242618e+17
1.564373e+17
1.632224e+17
1.657894e+17
1.657057e+17
1.630015e+17
1.561593e+17
1.241476e+17
1.100812e+17
9.797274e+16
7.797654e+16
7.860556e+16
1.031117e+17
1.459513e+17
1.716187e+17
1.943495e+17
2.27829e+17
2.459997e+17
2.534246e+17
2.570098e+17
2.568919e+17
2.53113e+17
2.456407e+17
2.275598e+17
1.940809e+17
1.713041e+17
1.457259e+17
1.029966e+17
7.855907e+16
8.821883e+16
1.405194e+17
1.775626e+17
2.306671e+17
2.610437e+17
2.91133e+17
3.182337e+17
3.631327e+17
3.803415e+17
3.871606e+17
3.870278e+17
3.799738e+17
3.626236e+17
3.177029e+17
2.905428e+17
2.604652e+17
2.300343e+17
1.772095e+17
1.401968e+17
8.808892e+16
9.477629e+16
1.567579e+17
2.057552e+17
2.658292e+17
3.129753e+17
3.775829e+17
4.194819e+17
4.516294e+17
4.784829e+17
4.949179e+17
5.024498e+17
5.02305e+17
4.945039e+17
4.778594e+17
4.508837e+17
4.186811e+17
3.767784e+17
3.122183e+17
2.650346e+17
2.051923e+17
1.562452e+17
9.449489e+16
9.84712e+16
1.701963e+17
2.389163e+17
2.911899e+17
3.429423e+17
4.275437e+17
4.881979e+17
5.361811e+17
5.701139e+17
5.958001e+17
6.12413e+17
6.204157e+17
6.202588e+17
6.119582e+17
5.950901e+17
5.692088e+17
5.351382e+17
4.871056e+17
4.265028e+17
3.41986e+17
2.901873e+17
2.37986e+17
1.694837e+17
9.806167e+16
9.48245e+16
1.702354e+17
2.498515e+17
3.105774e+17
3.961868e+17
4.670762e+17
5.381083e+17
5.972603e+17
6.463857e+17
6.877457e+17
7.181055e+17
7.374423e+17
7.467883e+17
7.466221e+17
7.369601e+17
7.173489e+17
6.867717e+17
6.45246e+17
5.959952e+17
5.36776e+17
4.657029e+17
3.948437e+17
3.093547e+17
2.48659e+17
1.694369e+17
9.439157e+16
8.830308e+16
1.568151e+17
2.390396e+17
3.106048e+17
4.066229e+17
4.907969e+17
5.691106e+17
6.382554e+17
7.029144e+17
7.577618e+17
8.028132e+17
8.361344e+17
8.577173e+17
8.681927e+17
8.6802e+17
8.572154e+17
8.353312e+17
8.017567e+17
7.565025e+17
7.014895e+17
6.367162e+17
5.674945e+17
4.891882e+17
4.050861e+17
3.092786e+17
2.37894e+17
1.560735e+17
8.788012e+16
7.869596e+16
1.406021e+17
2.059344e+17
2.912905e+17
3.962902e+17
4.908677e+17
5.797844e+17
6.58721e+17
7.351421e+17
8.045833e+17
8.63167e+17
9.107564e+17
9.466711e+17
9.70193e+17
9.812959e+17
9.811174e+17
9.696686e+17
9.458342e+17
9.096576e+17
8.618485e+17
8.030756e+17
7.334918e+17
6.569622e+17
5.779673e+17
4.891143e+17
3.946914e+17
2.899887e+17
2.049907e+17
1.399134e+17
7.828916e+16
1.032205e+17
1.777529e+17
2.659023e+17
3.432019e+17
4.672542e+17
5.692653e+17
6.588086e+17
7.455961e+17
8.268659e+17
8.992476e+17
9.607855e+17
1.01058e+18
1.048257e+18
1.073583e+18
1.086438e+18
1.08626e+18
1.073059e+18
1.047419e+18
1.009471e+18
9.594399e+17
8.977009e+17
8.251677e+17
7.437802e+17
6.569276e+17
5.67387e+17
4.655069e+17
3.417465e+17
2.64738e+17
1.769196e+17
1.027264e+17
7.812597e+16
1.460523e+17
2.307322e+17
3.131708e+17
4.278685e+17
5.383758e+17
6.38509e+17
7.353383e+17
8.269701e+17
9.110211e+17
9.856094e+17
1.049169e+18
1.101089e+18
1.141495e+18
1.169202e+18
1.183396e+18
1.183222e+18
1.16869e+18
1.140675e+18
1.099995e+18
1.047827e+18
9.840548e+17
9.093009e+17
8.251207e+17
7.334151e+17
6.365718e+17
5.364999e+17
4.261941e+17
3.11738e+17
2.297189e+17
1.45348e+17
7.778161e+16
9.810189e+16
1.716969e+17
2.611418e+17
3.779097e+17
4.885378e+17
5.976095e+17
7.03246e+17
8.048741e+17
8.994468e+17
9.857084e+17
1.062079e+18
1.128538e+18
1.183272e+18
1.225496e+18
1.25411e+18
1.268559e+18
1.268391e+18
1.25362e+18
1.22471e+18
1.182213e+18
1.127228e+18
1.060549e+18
9.83998e+17
8.975994e+17
8.029475e+17
7.01293e+17
5.956779e+17
4.867668e+17
3.762962e+17
2.599521e+17
1.70891e+17
9.764806e+16
1.102647e+17
1.94517e+17
2.913877e+17
4.199153e+17
5.365665e+17
6.468397e+17
7.581998e+17
8.635635e+17
9.610944e+17
1.049387e+18
1.128652e+18
1.197739e+18
1.254073e+18
1.296769e+18
1.325353e+18
1.339637e+18
1.339483e+18
1.324901e+18
1.296036e+18
1.253081e+18
1.196504e+18
1.127195e+18
1.047742e+18
9.59306e+17
8.616838e+17
7.562796e+17
6.449184e+17
5.347673e+17
4.182124e+17
2.90026e+17
1.935301e+17
1.096727e+17
1.244137e+17
2.282016e+17
3.187063e+17
4.521681e+17
5.706227e+17
6.883118e+17
8.033804e+17
9.112837e+17
1.01104e+18
1.101459e+18
1.183524e+18
1.254199e+18
1.3111e+18
1.353676e+18
1.381931e+18
1.395968e+18
1.395831e+18
1.381527e+18
1.353018e+18
1.310197e+18
1.253053e+18
1.182145e+18
1.099882e+18
1.009311e+18
9.094542e+17
8.015005e+17
6.864275e+17
5.688189e+17
4.504236e+17
3.171917e+17
2.268964e+17
1.236933e+17
8.145901e+16
1.566045e+17
2.464415e+17
3.637305e+17
4.791334e+17
5.964616e+17
7.188159e+17
8.368604e+17
9.473587e+17
1.048892e+18
1.142044e+18
1.225916e+18
1.297054e+18
1.353834e+18
1.396058e+18
1.42396e+18
1.437788e+18
1.437661e+18
1.423589e+18
1.395459e+18
1.353019e+18
1.296012e+18
1.22464e+18
1.140556e+18
1.047247e+18
9.456136e+17
8.350437e+17
7.169808e+17
5.946601e+17
4.773574e+17
3.620656e+17
2.450671e+17
1.557027e+17
8.095547e+16
9.241724e+16
1.634428e+17
2.538831e+17
3.810156e+17
4.956893e+17
6.13249e+17
7.383374e+17
8.586426e+17
9.710954e+17
1.074439e+18
1.169978e+18
1.254762e+18
1.325868e+18
1.382314e+18
1.424184e+18
1.451801e+18
1.465472e+18
1.46535e+18
1.45145e+18
1.423625e+18
1.381568e+18
1.324916e+18
1.253586e+18
1.168595e+18
1.072896e+18
9.694416e+17
8.569037e+17
7.365651e+17
6.114812e+17
4.939495e+17
3.793785e+17
2.525655e+17
1.625423e+17
9.1931e+16
9.487633e+16
1.660868e+17
2.575153e+17
3.879481e+17
5.033854e+17
6.214502e+17
7.478967e+17
8.693393e+17
9.824394e+17
1.08755e+18
1.184444e+18
1.269503e+18
1.340463e+18
1.396665e+18
1.438315e+18
1.465768e+18
1.479349e+18
1.479225e+18
1.465414e+18
1.43776e+18
1.395935e+18
1.339556e+18
1.268406e+18
1.183164e+18
1.086118e+18
9.808898e+17
8.676982e+17
7.462031e+17
6.197445e+17
5.017132e+17
3.864034e+17
2.563285e+17
1.652529e+17
9.439755e+16
9.488205e+16
1.661118e+17
2.575769e+17
3.879888e+17
5.034323e+17
6.215043e+17
7.47957e+17
8.694085e+17
9.825244e+17
1.087653e+18
1.184572e+18
1.269663e+18
1.340654e+18
1.396875e+18
1.43853e+18
1.465984e+18
1.479566e+18
1.479442e+18
1.465632e+18
1.437983e+18
1.396164e+18
1.339792e+18
1.268645e+18
1.1834e+18
1.086339e+18
9.810897e+17
8.678773e+17
7.463587e+17
6.198802e+17
5.01846e+17
3.865301e+17
2.564387e+17
1.653255e+17
9.443611e+16
9.247968e+16
1.634953e+17
2.539367e+17
3.810903e+17
4.958121e+17
6.134037e+17
7.385109e+17
8.588519e+17
9.713571e+17
1.074748e+18
1.170354e+18
1.255225e+18
1.326418e+18
1.382921e+18
1.424807e+18
1.45243e+18
1.466107e+18
1.465992e+18
1.452102e+18
1.424295e+18
1.382261e+18
1.325629e+18
1.254307e+18
1.169304e+18
1.073565e+18
9.700485e+17
8.574431e+17
7.370194e+17
6.118687e+17
4.943301e+17
3.79738e+17
2.52877e+17
1.627551e+17
9.204751e+16
8.154911e+16
1.565826e+17
2.464227e+17
3.638038e+17
4.792999e+17
5.967053e+17
7.190898e+17
8.371992e+17
9.477826e+17
1.049395e+18
1.14264e+18
1.226631e+18
1.297884e+18
1.35475e+18
1.397022e+18
1.424954e+18
1.438809e+18
1.438709e+18
1.424671e+18
1.396581e+18
1.354182e+18
1.297207e+18
1.225843e+18
1.141733e+18
1.048358e+18
9.466177e+17
8.35926e+17
7.177174e+17
5.952663e+17
4.779437e+17
3.625937e+17
2.454881e+17
1.559267e+17
8.117236e+16
1.244435e+17
2.281179e+17
3.187906e+17
4.523697e+17
5.70949e+17
6.886697e+17
8.038303e+17
9.118273e+17
1.011694e+18
1.102232e+18
1.184427e+18
1.255233e+18
1.312249e+18
1.354916e+18
1.383239e+18
1.397333e+18
1.397255e+18
1.383019e+18
1.354573e+18
1.311807e+18
1.254702e+18
1.183799e+18
1.101491e+18
1.010834e+18
9.108407e+17
8.027116e+17
6.874432e+17
5.696267e+17
4.511687e+17
3.1779e+17
2.273624e+17
1.239251e+17
1.102872e+17
1.945738e+17
2.915103e+17
4.20106e+17
5.369379e+17
6.472493e+17
7.587317e+17
8.641919e+17
9.61855e+17
1.050287e+18
1.129693e+18
1.198925e+18
1.2554e+18
1.298222e+18
1.326913e+18
1.341286e+18
1.341233e+18
1.326762e+18
1.297988e+18
1.2551e+18
1.198557e+18
1.12924e+18
1.049727e+18
9.61181e+17
8.63384e+17
7.577731e+17
6.461953e+17
5.357591e+17
4.19075e+17
2.906276e+17
1.938762e+17
1.098143e+17
9.819713e+16
1.718357e+17
2.613482e+17
3.780886e+17
4.888828e+17
5.980646e+17
7.038316e+17
8.055559e+17
9.002663e+17
9.866875e+17
1.063217e+18
1.129846e+18
1.184751e+18
1.22713e+18
1.255882e+18
1.270447e+18
1.270417e+18
1.255794e+18
1.226996e+18
1.184581e+18
1.129635e+18
1.062939e+18
9.863082e+17
8.997702e+17
8.049121e+17
7.030293e+17
5.971835e+17
4.879174e+17
3.77247e+17
2.605297e+17
1.711871e+17
9.775139e+16
7.820522e+16
1.461551e+17
2.310096e+17
3.133154e+17
4.281201e+17
5.388126e+17
6.390913e+17
7.360428e+17
8.278258e+17
9.120518e+17
9.868191e+17
1.050571e+18
1.102688e+18
1.143272e+18
1.171141e+18
1.18548e+18
1.18547e+18
1.171109e+18
1.143221e+18
1.102627e+18
1.050492e+18
9.866879e+17
9.118297e+17
8.27487e+17
7.355586e+17
6.384622e+17
5.381372e+17
4.274101e+17
3.127091e+17
2.302143e+17
1.45654e+17
7.786729e+16
1.032771e+17
1.778346e+17
2.661496e+17
3.43329e+17
4.676625e+17
5.698173e+17
6.595165e+17
7.46475e+17
8.27932e+17
9.005003e+17
9.622362e+17
1.012237e+18
1.050106e+18
1.075611e+18
1.088635e+18
1.088643e+18
1.07563e+18
1.05013e+18
1.012269e+18
9.622632e+17
9.004858e+17
8.27837e+17
7.462755e+17
6.59196e+17
5.693877e+17
4.671668e+17
3.428884e+17
2.655961e+17
1.773643e+17
1.029383e+17
7.870568e+16
1.407116e+17
2.060889e+17
2.916395e+17
3.967376e+17
4.914178e+17
5.804916e+17
6.596072e+17
7.362256e+17
8.058529e+17
8.646275e+17
9.124071e+17
9.485191e+17
9.722419e+17
9.835351e+17
9.835577e+17
9.723063e+17
9.486161e+17
9.125286e+17
8.647451e+17
8.059376e+17
7.36236e+17
6.595193e+17
5.802858e+17
4.910885e+17
3.963076e+17
2.911748e+17
2.056646e+17
1.403672e+17
7.851499e+16
8.832791e+16
1.569982e+17
2.393404e+17
3.109439e+17
4.070951e+17
4.914611e+17
5.699733e+17
6.393074e+17
7.041196e+17
7.591551e+17
8.043981e+17
8.379137e+17
8.596988e+17
8.703683e+17
8.704032e+17
8.598105e+17
8.380817e+17
8.046024e+17
7.593732e+17
7.043203e+17
6.394192e+17
5.699778e+17
4.91372e+17
4.069065e+17
3.106997e+17
2.389468e+17
1.566923e+17
8.816326e+16
9.488076e+16
1.703957e+17
2.50232e+17
3.109267e+17
3.968009e+17
4.678258e+17
5.39025e+17
5.98317e+17
6.476288e+17
6.891664e+17
7.197084e+17
7.392501e+17
7.488024e+17
7.48843e+17
7.394049e+17
7.199544e+17
6.894642e+17
6.479414e+17
5.986134e+17
5.392144e+17
4.678935e+17
3.96799e+17
3.108462e+17
2.500442e+17
1.702033e+17
9.473781e+16
9.853654e+16
1.703917e+17
2.393965e+17
2.917238e+17
3.435815e+17
4.283627e+17
4.89121e+17
5.372308e+17
5.713302e+17
5.971938e+17
6.140196e+17
6.22269e+17
6.222968e+17
6.141883e+17
5.974682e+17
5.716693e+17
5.376026e+17
4.894363e+17
4.285501e+17
3.43614e+17
2.917695e+17
2.393722e+17
1.703203e+17
9.845623e+16
9.484654e+16
1.569568e+17
2.061893e+17
2.662772e+17
3.134466e+17
3.782951e+17
4.203792e+17
4.527225e+17
4.797439e+17
4.963523e+17
5.04052e+17
5.040631e+17
4.964636e+17
4.799317e+17
4.529673e+17
4.20689e+17