/*--------------------------------*- C++ -*----------------------------------*\
  =========                 |
  \\      /  F ield         | OpenFOAM: The Open Source CFD Toolbox
   \\    /   O peration     | Website:  https://openfoam.org
    \\  /    A nd           | Version:  6
     \\/     M anipulation  |
\*---------------------------------------------------------------------------*/
FoamFile
{
    version     2.0;
    format      ascii;
    class       volScalarField;
    location    "49.8/region0/neutronTransport";
    object      fluxDefault;
}
// * * * * * * * * * * * * * * * * * * * * * * * * * * * * * * * * * * * * * //

dimensions      [0 -2 -1 0 0 0 0];

internalField   uniform 1;

boundaryField
{
    vessel
    {
        type            albedo;
        gamma           0.5;
        value           nonuniform List<scalar> 
17406
(
1.011306
1.00693
1.01048
1.010478
1.006501
1.006931
1.011308
1.006744
1.006743
1.011307
1.006931
1.006732
1.007517
1.011073
1.012002
1.012398
1.006745
1.006738
1.011786
1.00737
1.007511
1.007512
1.007367
1.00694
1.01178
1.006938
1.012404
1.006813
1.007095
1.00741
1.007096
1.012305
1.011218
1.012089
1.012086
1.011208
1.00684
1.014301
1.007097
1.008494
1.008496
1.007415
1.007667
1.007398
1.013281
1.0074
1.008495
1.012314
1.007087
1.006826
1.011204
1.012096
1.011207
1.006808
1.00973
1.010017
1.009725
1.015312
1.017524
1.007461
1.012202
1.007482
1.017538
1.014067
1.007532
1.008781
1.009716
1.009713
1.008788
1.008766
1.007497
1.012927
1.015327
1.017538
1.007478
1.007381
1.009479
1.017036
1.010738
1.014427
1.016431
1.016843
1.016326
1.015028
1.007351
1.017833
1.014421
1.007861
1.010759
1.017035
1.00871
1.008731
1.009458
1.009462
1.009351
1.017031
1.00872
1.010738
1.017844
1.007888
1.016294
1.00683
1.007533
1.00789
1.009862
1.007585
1.01445
1.006862
1.014941
1.016915
1.016686
1.011852
1.006575
1.018874
1.00786
1.007887
1.009881
1.009901
1.010906
1.011237
1.011236
1.011227
1.010885
1.009859
1.009879
1.007864
1.007568
1.014435
1.007557
1.011856
1.014029
1.015568
1.013993
1.011875
1.006549
1.009926
1.011003
1.011016
1.021876
1.022109
1.006789
1.020938
1.029905
1.010518
1.010699
1.006462
1.033826
1.028036
1.020418
1.006787
1.02185
1.009004
1.022274
1.009966
1.009936
1.010999
1.011011
1.009972
1.021832
1.022103
1.022012
1.021886
1.008927
1.020418
1.028019
1.033814
1.033739
1.028086
1.020301
1.010559
1.010571
1.006414
1.007077
1.00715
1.008649
1.007163
1.02296
1.020235
1.034303
1.012593
1.024065
1.03118
1.016279
1.021582
1.022731
1.022128
1.017868
1.006491
1.030772
1.023948
1.01257
1.012575
1.034035
1.020549
1.015479
1.015502
1.022752
1.008558
1.008552
1.022907
1.022797
1.007106
1.015494
1.020209
1.034178
1.034109
1.020276
1.007274
1.023904
1.030805
1.030768
1.023909
1.012604
1.017706
1.021982
1.022004
1.017684
1.011528
1.006502
1.011203
1.012024
1.014843
1.011948
1.02847
1.025871
1.006556
1.017093
1.026532
1.034077
1.01125
1.020594
1.023647
1.024795
1.024492
1.023039
1.01972
1.010829
1.010823
1.033979
1.026374
1.017184
1.006554
1.026029
1.011856
1.017493
1.017486
1.028319
1.01195
1.01195
1.014871
1.014835
1.028198
1.02818
1.011901
1.017458
1.02582
1.025826
1.011783
1.006627
1.017257
1.02637
1.034029
1.034021
1.026343
1.017188
1.006582
1.010839
1.019745
1.022957
1.024448
1.024448
1.022947
1.019738
1.010835
1.011607
1.010586
1.012793
1.015966
1.012739
1.029355
1.027494
1.010633
1.020825
1.027275
1.034337
1.011668
1.021034
1.023932
1.025016
1.024879
1.023833
1.020721
1.011461
1.011462
1.034334
1.027169
1.020935
1.010658
1.027591
1.012606
1.017815
1.017814
1.029204
1.012739
1.012739
1.015992
1.015963
1.029064
1.029067
1.012694
1.017782
1.027411
1.027412
1.012542
1.010703
1.020967
1.027142
1.034374
1.034371
1.027133
1.020952
1.010688
1.011484
1.020744
1.023762
1.024889
1.02489
1.023759
1.020742
1.011483
1.011729
1.011287
1.013038
1.01631
1.012989
1.029696
1.02803
1.01131
1.021551
1.027674
1.034527
1.011792
1.021188
1.024061
1.025141
1.025055
1.024106
1.021035
1.011662
1.011663
1.034561
1.027588
1.021676
1.011349
1.028105
1.012901
1.017956
1.017954
1.029541
1.012988
1.012988
1.016335
1.016307
1.0294
1.029411
1.012946
1.017924
1.027932
1.027932
1.012839
1.011371
1.021681
1.027549
1.034593
1.034591
1.027543
1.02168
1.011369
1.011687
1.021061
1.024045
1.025093
1.025096
1.024044
1.021061
1.011687
1.011762
1.011465
1.013105
1.016407
1.013061
1.029816
1.028218
1.011484
1.02176
1.027813
1.034614
1.011824
1.021236
1.024107
1.025189
1.025118
1.024189
1.021124
1.011715
1.011717
1.034665
1.027735
1.02189
1.011525
1.028293
1.01299
1.018009
1.018002
1.029661
1.013058
1.013059
1.016432
1.016405
1.029514
1.029542
1.013019
1.017976
1.028119
1.028116
1.012929
1.011543
1.021893
1.027687
1.034706
1.034687
1.027691
1.021883
1.01154
1.01174
1.021152
1.024137
1.025165
1.025168
1.024136
1.021153
1.011741
1.011772
1.011507
1.013123
1.016438
1.013082
1.02986
1.028279
1.011525
1.021818
1.027859
1.034646
1.011833
1.02125
1.024124
1.025207
1.025142
1.024209
1.021149
1.011729
1.011733
1.034705
1.027783
1.021951
1.011567
1.02836
1.013016
1.01803
1.018018
1.029706
1.013078
1.013081
1.016462
1.016435
1.029559
1.029599
1.013043
1.017997
1.028185
1.028178
1.012955
1.011585
1.021959
1.027729
1.034753
1.034719
1.027744
1.021929
1.011576
1.011755
1.021179
1.024168
1.025188
1.025192
1.024169
1.021181
1.011755
1.011777
1.011518
1.013128
1.016449
1.01309
1.029877
1.028301
1.011536
1.021836
1.027874
1.034657
1.011835
1.021255
1.02413
1.025215
1.025152
1.02421
1.021156
1.011734
1.011739
1.03472
1.0278
1.021969
1.011579
1.028387
1.013024
1.018036
1.018022
1.029726
1.013085
1.01309
1.016472
1.016445
1.02959
1.02963
1.013053
1.018006
1.028212
1.0282
1.012963
1.011597
1.021986
1.027749
1.034759
1.034727
1.027764
1.021934
1.011582
1.011759
1.021188
1.024181
1.025194
1.025199
1.02418
1.021191
1.011761
1.01178
1.011522
1.013129
1.016455
1.013093
1.029885
1.028311
1.01154
1.021844
1.02788
1.034662
1.011837
1.021258
1.024132
1.025218
1.025158
1.024207
1.021159
1.011735
1.011743
1.034727
1.027807
1.021968
1.011579
1.028401
1.013028
1.018036
1.018022
1.02974
1.013088
1.013093
1.016473
1.016449
1.029611
1.029652
1.013059
1.018011
1.028227
1.02821
1.012968
1.011602
1.022
1.027758
1.034758
1.034727
1.027774
1.021927
1.011581
1.011761
1.021192
1.024187
1.025195
1.0252
1.024181
1.021194
1.011765
1.011783
1.011525
1.013126
1.016457
1.013095
1.029889
1.028319
1.011541
1.02185
1.027884
1.034665
1.011837
1.02126
1.024134
1.025221
1.025162
1.024201
1.02116
1.011736
1.011746
1.034727
1.027816
1.021955
1.011575
1.028412
1.01303
1.018034
1.018021
1.029756
1.013089
1.013095
1.016472
1.01645
1.029629
1.02967
1.013064
1.018012
1.028237
1.028218
1.01297
1.011605
1.022012
1.027764
1.034754
1.034724
1.027782
1.021917
1.011578
1.011762
1.021194
1.024192
1.025193
1.025201
1.024178
1.021196
1.011768
1.011786
1.011528
1.013123
1.016456
1.013096
1.029892
1.028327
1.011543
1.021857
1.027887
1.034667
1.011833
1.021256
1.024137
1.025223
1.025167
1.024196
1.021161
1.011737
1.011749
1.034721
1.027823
1.021942
1.01157
1.028422
1.013032
1.018032
1.018019
1.029777
1.013089
1.013097
1.01647
1.016451
1.029645
1.029688
1.013068
1.01801
1.028247
1.028231
1.012973
1.011607
1.022018
1.02777
1.034749
1.03472
1.027789
1.021909
1.011575
1.011762
1.021196
1.024196
1.025191
1.025201
1.024175
1.021197
1.011771
1.011789
1.011531
1.013119
1.016455
1.013097
1.029895
1.028335
1.011544
1.021865
1.027889
1.034675
1.011826
1.021246
1.024142
1.025222
1.025169
1.024191
1.021162
1.011738
1.011752
1.034715
1.027827
1.02193
1.011566
1.028432
1.013033
1.018031
1.018017
1.029799
1.013087
1.0131
1.016469
1.016453
1.02966
1.029705
1.013072
1.018008
1.028257
1.028246
1.012976
1.011606
1.022016
1.027777
1.034745
1.034716
1.027796
1.021902
1.011571
1.011763
1.021198
1.0242
1.025189
1.0252
1.024171
1.021199
1.011774
1.011792
1.011534
1.013116
1.016455
1.013099
1.0299
1.028343
1.011546
1.021873
1.02789
1.034679
1.01182
1.021237
1.024147
1.025219
1.025168
1.024187
1.021164
1.01174
1.011755
1.03471
1.027832
1.021918
1.011563
1.028442
1.013035
1.018029
1.018015
1.029822
1.013083
1.013102
1.016467
1.016454
1.029675
1.029723
1.013076
1.018006
1.028266
1.028262
1.012979
1.011602
1.02201
1.027784
1.03474
1.034712
1.027803
1.021896
1.011568
1.011764
1.0212
1.024204
1.025187
1.0252
1.024168
1.0212
1.011777
1.011796
1.011538
1.013112
1.016454
1.013101
1.02991
1.028351
1.011548
1.021881
1.027894
1.034673
1.011814
1.021228
1.024154
1.025216
1.025167
1.024184
1.021165
1.011744
1.011759
1.034705
1.027838
1.021908
1.011559
1.028454
1.013038
1.018027
1.018013
1.029845
1.01308
1.013105
1.016466
1.016453
1.02969
1.029744
1.013079
1.018005
1.028276
1.028278
1.012983
1.011599
1.022004
1.027791
1.034736
1.034709
1.02781
1.021891
1.011564
1.011764
1.0212
1.024209
1.025184
1.025199
1.024164
1.021202
1.011781
1.0118
1.011541
1.013109
1.016455
1.013104
1.029924
1.02836
1.011547
1.02188
1.0279
1.034668
1.011809
1.021219
1.02416
1.025214
1.025167
1.02418
1.021166
1.011749
1.011762
1.034701
1.027845
1.0219
1.011555
1.028468
1.013041
1.018025
1.018011
1.029868
1.013077
1.013108
1.016464
1.016451
1.029705
1.029767
1.013081
1.018003
1.028286
1.028294
1.012988
1.011595
1.021998
1.027798
1.034732
1.034705
1.027818
1.021885
1.011561
1.011759
1.021194
1.024214
1.025183
1.025199
1.024161
1.021203
1.011784
1.011805
1.011544
1.013106
1.016454
1.013107
1.029939
1.028369
1.011543
1.021873
1.027906
1.034664
1.011803
1.021212
1.024167
1.025213
1.025166
1.024177
1.021168
1.011755
1.011765
1.034697
1.027852
1.021894
1.011552
1.028483
1.013044
1.018023
1.01801
1.029891
1.013074
1.013111
1.016463
1.01645
1.02972
1.029791
1.013084
1.018002
1.028295
1.028311
1.012992
1.011592
1.021992
1.027806
1.034729
1.034701
1.027825
1.021879
1.011558
1.011753
1.021185
1.024221
1.025181
1.025199
1.024158
1.021204
1.011787
1.01181
1.011548
1.013103
1.016452
1.01311
1.029954
1.028379
1.01154
1.021867
1.027913
1.034661
1.011798
1.021203
1.024171
1.025212
1.025166
1.024174
1.021169
1.011761
1.011768
1.034692
1.027859
1.021888
1.011549
1.028498
1.013049
1.018021
1.018008
1.029914
1.013071
1.013114
1.016462
1.016449
1.029735
1.029814
1.013087
1.018001
1.028305
1.02832
1.012995
1.011589
1.021987
1.027814
1.034726
1.034697
1.027833
1.021874
1.011555
1.011748
1.021177
1.024229
1.02518
1.025199
1.024155
1.021206
1.01179
1.011816
1.011548
1.0131
1.01645
1.013113
1.029969
1.028389
1.011537
1.021861
1.027921
1.034657
1.011794
1.021194
1.024171
1.025212
1.025167
1.024171
1.021171
1.011765
1.011771
1.034688
1.027866
1.021882
1.011546
1.028512
1.013053
1.018019
1.018007
1.029937
1.013068
1.013117
1.016461
1.016448
1.02975
1.029838
1.01309
1.018
1.028315
1.028319
1.012994
1.011587
1.021984
1.027817
1.034725
1.034693
1.02784
1.021868
1.011552
1.011743
1.02117
1.024235
1.025175
1.025201
1.024152
1.021207
1.011793
1.011822
1.011546
1.013098
1.016449
1.013117
1.029984
1.028401
1.011533
1.021855
1.027928
1.034654
1.011791
1.021184
1.02417
1.025213
1.025167
1.024167
1.021172
1.011764
1.011774
1.034684
1.027873
1.021876
1.011543
1.028516
1.013054
1.018017
1.018006
1.029961
1.013065
1.01312
1.01646
1.016447
1.029765
1.029862
1.013093
1.017999
1.028325
1.028317
1.012993
1.011585
1.021982
1.027814
1.034728
1.03469
1.027848
1.021863
1.01155
1.011739
1.021166
1.024236
1.025168
1.025203
1.024149
1.021209
1.011797
1.011828
1.011544
1.013097
1.016448
1.01312
1.03
1.028416
1.01153
1.021849
1.027935
1.03465
1.011788
1.021175
1.024172
1.025213
1.025168
1.024165
1.021174
1.011763
1.011778
1.03468
1.02788
1.021871
1.01154
1.028514
1.013053
1.018015
1.018005
1.029984
1.013062
1.013123
1.016459
1.016446
1.029779
1.029883
1.013096
1.017999
1.028335
1.028315
1.012993
1.011584
1.021979
1.027811
1.03473
1.034687
1.027856
1.021857
1.011547
1.011737
1.021163
1.024234
1.025163
1.025206
1.024147
1.02121
1.0118
1.011835
1.011543
1.013096
1.016446
1.013124
1.030017
1.028431
1.011527
1.021843
1.027943
1.034648
1.011785
1.021168
1.024171
1.025209
1.02517
1.024162
1.021176
1.011762
1.011781
1.034675
1.027887
1.021865
1.011537
1.028512
1.013052
1.018013
1.018004
1.030007
1.01306
1.013126
1.016458
1.016445
1.02978
1.029891
1.013096
1.017998
1.028345
1.028314
1.012992
1.011583
1.021978
1.027809
1.034727
1.034681
1.027865
1.021852
1.011544
1.011737
1.021161
1.024232
1.025159
1.02521
1.024145
1.021212
1.011804
1.011838
1.011542
1.013096
1.016446
1.013128
1.030034
1.028447
1.011525
1.021841
1.027944
1.034646
1.011782
1.021161
1.024167
1.025204
1.025173
1.02416
1.021178
1.011762
1.011785
1.034672
1.027895
1.021859
1.011534
1.028511
1.013052
1.018011
1.018004
1.03003
1.013057
1.013129
1.016457
1.016445
1.02977
1.02989
1.013096
1.017998
1.028356
1.028312
1.012992
1.011583
1.021977
1.027808
1.034726
1.034673
1.027875
1.021849
1.011542
1.011736
1.021161
1.024231
1.025156
1.025214
1.024144
1.021217
1.011809
1.011836
1.011541
1.013095
1.016445
1.013131
1.030055
1.028463
1.011523
1.021841
1.027939
1.034645
1.011779
1.021155
1.024163
1.025199
1.025177
1.024158
1.021177
1.011761
1.011787
1.034668
1.027902
1.021854
1.011531
1.028509
1.013051
1.01801
1.018003
1.030053
1.013054
1.013132
1.016456
1.016444
1.029761
1.029889
1.013095
1.017997
1.028367
1.028311
1.012992
1.011582
1.021976
1.027807
1.034724
1.034668
1.027882
1.021845
1.01154
1.011736
1.02116
1.024229
1.025153
1.025218
1.024143
1.021224
1.011814
1.011836
1.01154
1.013095
1.016444
1.013134
1.030077
1.02848
1.011522
1.021838
1.027934
1.034645
1.011777
1.021149
1.02416
1.025195
1.025181
1.024158
1.02117
1.011761
1.011784
1.034664
1.02791
1.021848
1.011528
1.028507
1.013051
1.018008
1.018003
1.030077
1.013052
1.013135
1.016455
1.016444
1.029752
1.029888
1.013095
1.017997
1.028373
1.02831
1.012992
1.011582
1.021975
1.027806
1.034723
1.034664
1.027882
1.021842
1.01154
1.011736
1.021159
1.024228
1.025151
1.025219
1.024139
1.021232
1.01182
1.011836
1.01154
1.013095
1.016444
1.013136
1.0301
1.028497
1.011521
1.021836
1.02793
1.034645
1.011775
1.021144
1.024158
1.025192
1.025185
1.024159
1.021162
1.01176
1.011781
1.034661
1.027917
1.021842
1.011525
1.028506
1.01305
1.018007
1.018002
1.030099
1.013049
1.013137
1.016454
1.016444
1.029744
1.029887
1.013095
1.017997
1.028372
1.028309
1.012991
1.011581
1.021974
1.027805
1.034722
1.034662
1.02788
1.021842
1.01154
1.011735
1.021159
1.024228
1.025149
1.025217
1.024135
1.021242
1.011826
1.011836
1.011539
1.013095
1.016443
1.013139
1.030122
1.028504
1.011521
1.021834
1.027925
1.034656
1.011773
1.021141
1.024157
1.025189
1.025189
1.02416
1.021154
1.01176
1.011778
1.034659
1.027926
1.021838
1.011523
1.028505
1.01305
1.018006
1.018001
1.030122
1.013047
1.01314
1.016453
1.016443
1.029736
1.029886
1.013095
1.017996
1.028369
1.028308
1.012991
1.011581
1.021973
1.027804
1.034721
1.03466
1.027879
1.021841
1.011539
1.011735
1.021158
1.024227
1.025148
1.025215
1.024132
1.021252
1.011833
1.011835
1.011539
1.013094
1.016443
1.013142
1.030145
1.028503
1.01152
1.021833
1.027922
1.034665
1.011772
1.021141
1.024156
1.025187
1.025188
1.024159
1.021147
1.01176
1.011775
1.034657
1.027927
1.021835
1.011521
1.028503
1.01305
1.018005
1.018
1.030145
1.013046
1.013143
1.016452
1.016443
1.02973
1.029885
1.013094
1.017996
1.028368
1.028307
1.012991
1.011581
1.021972
1.027803
1.03472
1.034658
1.027878
1.02184
1.011539
1.011735
1.021158
1.024226
1.025147
1.025214
1.02413
1.021257
1.011836
1.011834
1.011538
1.013094
1.016442
1.013145
1.030167
1.0285
1.011519
1.021831
1.027919
1.034661
1.011771
1.02114
1.024154
1.025185
1.025186
1.024156
1.021142
1.011759
1.011773
1.03466
1.027922
1.021832
1.011519
1.028501
1.013049
1.018004
1.017999
1.030167
1.013046
1.013146
1.01645
1.016442
1.029725
1.029883
1.013093
1.017995
1.028366
1.028305
1.01299
1.01158
1.021971
1.027801
1.034717
1.034655
1.027876
1.021839
1.011538
1.011734
1.021156
1.024224
1.025146
1.025212
1.024128
1.021254
1.011835
1.011834
1.011537
1.013093
1.016441
1.013147
1.030185
1.028498
1.011518
1.021829
1.027917
1.034658
1.01177
1.021139
1.024153
1.025184
1.025184
1.024153
1.02114
1.011758
1.011771
1.03466
1.027918
1.02183
1.011518
1.028499
1.013048
1.018003
1.017998
1.030185
1.013045
1.013147
1.016449
1.016441
1.029722
1.029881
1.013093
1.017994
1.028364
1.028303
1.012989
1.011579
1.021969
1.027799
1.034715
1.034653
1.027874
1.021837
1.011537
1.011733
1.021155
1.024223
1.025144
1.02521
1.024126
1.021253
1.011834
1.011834
1.011538
1.013093
1.016441
1.013147
1.030192
1.028499
1.011518
1.02183
1.027918
1.034659
1.011771
1.02114
1.024154
1.025184
1.025184
1.024154
1.02114
1.011758
1.011771
1.034659
1.027918
1.02183
1.011518
1.028499
1.013048
1.018003
1.017998
1.030192
1.013045
1.013147
1.016449
1.016441
1.029722
1.029882
1.013093
1.017994
1.028365
1.028304
1.012989
1.011579
1.02197
1.0278
1.034716
1.034653
1.027874
1.021838
1.011538
1.011733
1.021155
1.024223
1.025144
1.025211
1.024127
1.021253
1.011834
1.011835
1.011538
1.013094
1.016442
1.013148
1.030193
1.0285
1.011519
1.021831
1.027919
1.034661
1.011772
1.021141
1.024155
1.025186
1.025186
1.024156
1.021141
1.011759
1.011772
1.034661
1.027919
1.021831
1.011519
1.028501
1.013049
1.018004
1.017999
1.030193
1.013046
1.013148
1.01645
1.016442
1.029724
1.029883
1.013094
1.017995
1.028366
1.028305
1.01299
1.01158
1.021971
1.027801
1.034717
1.034655
1.027876
1.021839
1.011538
1.011734
1.021157
1.024225
1.025146
1.025212
1.024128
1.021254
1.011835
1.011835
1.011539
1.013094
1.016442
1.013148
1.030193
1.028501
1.011519
1.021831
1.02792
1.034661
1.011772
1.021142
1.024156
1.025187
1.025187
1.024156
1.021142
1.011759
1.011772
1.034661
1.02792
1.021831
1.011519
1.028501
1.013049
1.018004
1.017999
1.030193
1.013046
1.013148
1.01645
1.016442
1.029724
1.029884
1.013094
1.017995
1.028367
1.028306
1.01299
1.01158
1.021972
1.027802
1.034718
1.034656
1.027877
1.021839
1.011539
1.011735
1.021157
1.024225
1.025147
1.025213
1.024129
1.021255
1.011835
1.011835
1.011539
1.013094
1.016442
1.013148
1.030193
1.028501
1.011519
1.021831
1.02792
1.034662
1.011772
1.021142
1.024156
1.025187
1.025187
1.024156
1.021142
1.011759
1.011772
1.034662
1.02792
1.021831
1.011519
1.028501
1.013049
1.018004
1.017999
1.030193
1.013046
1.013148
1.01645
1.016442
1.029724
1.029884
1.013094
1.017995
1.028367
1.028306
1.01299
1.01158
1.021972
1.027802
1.034718
1.034656
1.027877
1.02184
1.011539
1.011735
1.021157
1.024225
1.025147
1.025213
1.024129
1.021255
1.011835
1.011835
1.011539
1.013094
1.016442
1.013148
1.030193
1.028501
1.011519
1.021831
1.02792
1.034662
1.011772
1.021142
1.024156
1.025187
1.025187
1.024156
1.021142
1.011759
1.011772
1.034662
1.02792
1.021831
1.011519
1.028501
1.013049
1.018004
1.018
1.030193
1.013046
1.013148
1.01645
1.016442
1.029725
1.029884
1.013094
1.017996
1.028367
1.028306
1.012991
1.01158
1.021972
1.027802
1.034718
1.034656
1.027877
1.02184
1.011539
1.011735
1.021157
1.024225
1.025147
1.025213
1.024129
1.021255
1.011835
1.011835
1.011539
1.013094
1.016442
1.013148
1.030193
1.028501
1.011519
1.021831
1.02792
1.034662
1.011772
1.021142
1.024157
1.025187
1.025187
1.024157
1.021142
1.011759
1.011772
1.034662
1.02792
1.021831
1.011519
1.028501
1.013049
1.018004
1.018
1.030193
1.013046
1.013148
1.01645
1.016442
1.029725
1.029884
1.013094
1.017996
1.028367
1.028306
1.012991
1.011581
1.021972
1.027802
1.034718
1.034656
1.027877
1.02184
1.011539
1.011735
1.021157
1.024225
1.025147
1.025213
1.024129
1.021255
1.011835
1.011835
1.011539
1.013094
1.016442
1.013148
1.030193
1.028501
1.011519
1.021831
1.02792
1.034662
1.011772
1.021142
1.024157
1.025187
1.025187
1.024157
1.021142
1.011759
1.011772
1.034662
1.02792
1.021831
1.011519
1.028501
1.013049
1.018004
1.018
1.030193
1.013046
1.013148
1.01645
1.016442
1.029725
1.029884
1.013094
1.017996
1.028367
1.028306
1.012991
1.011581
1.021972
1.027802
1.034718
1.034656
1.027877
1.02184
1.011539
1.011735
1.021157
1.024225
1.025147
1.025213
1.024129
1.021255
1.011835
1.011835
1.011539
1.013094
1.016442
1.013148
1.030193
1.028501
1.011519
1.021831
1.02792
1.034662
1.011772
1.021142
1.024157
1.025187
1.025187
1.024157
1.021142
1.011759
1.011772
1.034662
1.02792
1.021831
1.011519
1.028501
1.013049
1.018004
1.018
1.030193
1.013046
1.013148
1.01645
1.016442
1.029725
1.029884
1.013094
1.017996
1.028367
1.028306
1.012991
1.011581
1.021972
1.027802
1.034718
1.034656
1.027877
1.02184
1.011539
1.011735
1.021157
1.024225
1.025147
1.025213
1.024129
1.021255
1.011835
1.011835
1.011539
1.013094
1.016442
1.013148
1.030193
1.028501
1.011519
1.021831
1.02792
1.034662
1.011772
1.021142
1.024157
1.025187
1.025187
1.024157
1.021142
1.011759
1.011772
1.034662
1.02792
1.021831
1.011519
1.028501
1.013049
1.018004
1.018
1.030193
1.013046
1.013148
1.01645
1.016442
1.029725
1.029884
1.013094
1.017996
1.028367
1.028306
1.012991
1.011581
1.021972
1.027802
1.034718
1.034656
1.027877
1.02184
1.011539
1.011735
1.021157
1.024225
1.025147
1.025213
1.024129
1.021255
1.011835
1.011835
1.011539
1.013094
1.016442
1.013148
1.030193
1.028501
1.011519
1.021831
1.02792
1.034662
1.011772
1.021142
1.024157
1.025187
1.025187
1.024157
1.021142
1.011759
1.011772
1.034662
1.02792
1.021831
1.011519
1.028501
1.013049
1.018004
1.018
1.030193
1.013046
1.013148
1.01645
1.016442
1.029725
1.029884
1.013094
1.017996
1.028367
1.028306
1.012991
1.011581
1.021972
1.027802
1.034718
1.034656
1.027877
1.02184
1.011539
1.011735
1.021157
1.024225
1.025147
1.025213
1.024129
1.021255
1.011835
1.011835
1.011539
1.013094
1.016442
1.013148
1.030193
1.028501
1.011519
1.021831
1.02792
1.034662
1.011772
1.021142
1.024157
1.025187
1.025187
1.024157
1.021142
1.011759
1.011772
1.034662
1.02792
1.021831
1.011519
1.028501
1.013049
1.018004
1.018
1.030193
1.013046
1.013148
1.01645
1.016442
1.029725
1.029884
1.013094
1.017996
1.028367
1.028306
1.012991
1.011581
1.021972
1.027802
1.034718
1.034656
1.027877
1.02184
1.011539
1.011735
1.021157
1.024225
1.025147
1.025213
1.024129
1.021255
1.011835
1.011835
1.011539
1.013094
1.016442
1.013148
1.030193
1.028501
1.011519
1.021831
1.02792
1.034662
1.011772
1.021142
1.024157
1.025187
1.025187
1.024157
1.021142
1.011759
1.011772
1.034662
1.02792
1.021831
1.011519
1.028501
1.013049
1.018004
1.018
1.030193
1.013046
1.013148
1.01645
1.016442
1.029725
1.029884
1.013094
1.017996
1.028367
1.028306
1.012991
1.011581
1.021972
1.027802
1.034718
1.034656
1.027877
1.02184
1.011539
1.011735
1.021157
1.024225
1.025147
1.025213
1.024129
1.021255
1.011835
1.011835
1.011539
1.013094
1.016442
1.013148
1.030193
1.028501
1.011519
1.021831
1.02792
1.034662
1.011772
1.021142
1.024157
1.025187
1.025187
1.024157
1.021142
1.011759
1.011772
1.034662
1.02792
1.021831
1.011519
1.028501
1.013049
1.018004
1.018
1.030193
1.013046
1.013148
1.01645
1.016442
1.029725
1.029884
1.013094
1.017996
1.028367
1.028306
1.012991
1.011581
1.021972
1.027802
1.034718
1.034656
1.027877
1.02184
1.011539
1.011735
1.021157
1.024225
1.025147
1.025213
1.024129
1.021255
1.011835
1.011835
1.011539
1.013094
1.016442
1.013148
1.030193
1.028501
1.011519
1.021831
1.02792
1.034662
1.011772
1.021142
1.024157
1.025187
1.025187
1.024157
1.021142
1.011759
1.011772
1.034662
1.02792
1.021831
1.011519
1.028501
1.013049
1.018004
1.018
1.030193
1.013046
1.013148
1.01645
1.016442
1.029725
1.029884
1.013094
1.017996
1.028367
1.028306
1.012991
1.011581
1.021972
1.027802
1.034718
1.034656
1.027877
1.02184
1.011539
1.011735
1.021157
1.024225
1.025147
1.025213
1.024129
1.021255
1.011835
1.011835
1.011539
1.013094
1.016442
1.013148
1.030193
1.028501
1.011519
1.021831
1.02792
1.034662
1.011772
1.021142
1.024157
1.025187
1.025187
1.024157
1.021142
1.011759
1.011772
1.034662
1.02792
1.021831
1.011519
1.028501
1.013049
1.018004
1.018
1.030193
1.013046
1.013148
1.01645
1.016442
1.029725
1.029884
1.013094
1.017996
1.028367
1.028306
1.012991
1.011581
1.021972
1.027802
1.034718
1.034656
1.027877
1.02184
1.011539
1.011735
1.021157
1.024225
1.025147
1.025213
1.024129
1.021255
1.011835
1.011835
1.011539
1.013094
1.016442
1.013148
1.030193
1.028501
1.011519
1.021831
1.02792
1.034662
1.011772
1.021142
1.024157
1.025187
1.025187
1.024157
1.021142
1.011759
1.011772
1.034662
1.02792
1.021831
1.011519
1.028501
1.013049
1.018004
1.018
1.030193
1.013046
1.013148
1.01645
1.016442
1.029725
1.029884
1.013094
1.017996
1.028367
1.028306
1.012991
1.011581
1.021972
1.027802
1.034718
1.034656
1.027877
1.02184
1.011539
1.011735
1.021157
1.024225
1.025147
1.025213
1.024129
1.021255
1.011835
1.011835
1.011539
1.013094
1.016442
1.013148
1.030193
1.028501
1.011519
1.021831
1.02792
1.034662
1.011772
1.021142
1.024157
1.025187
1.025187
1.024157
1.021142
1.011759
1.011772
1.034662
1.02792
1.021831
1.011519
1.028501
1.013049
1.018004
1.018
1.030193
1.013046
1.013148
1.01645
1.016442
1.029725
1.029884
1.013094
1.017996
1.028367
1.028306
1.012991
1.011581
1.021972
1.027802
1.034718
1.034656
1.027877
1.02184
1.011539
1.011735
1.021157
1.024225
1.025147
1.025213
1.024129
1.021255
1.011835
1.011835
1.011539
1.013094
1.016442
1.013148
1.030193
1.028501
1.011519
1.021831
1.02792
1.034662
1.011772
1.021142
1.024157
1.025187
1.025187
1.024157
1.021142
1.011759
1.011772
1.034662
1.02792
1.021831
1.011519
1.028501
1.013049
1.018004
1.018
1.030193
1.013046
1.013148
1.01645
1.016442
1.029725
1.029884
1.013094
1.017996
1.028367
1.028306
1.012991
1.011581
1.021972
1.027802
1.034718
1.034656
1.027877
1.02184
1.011539
1.011735
1.021157
1.024225
1.025147
1.025213
1.024129
1.021255
1.011835
1.011835
1.011539
1.013094
1.016442
1.013148
1.030193
1.028501
1.011519
1.021831
1.02792
1.034662
1.011772
1.021142
1.024157
1.025187
1.025187
1.024157
1.021142
1.011759
1.011772
1.034662
1.02792
1.021831
1.011519
1.028501
1.013049
1.018004
1.018
1.030193
1.013046
1.013148
1.01645
1.016442
1.029725
1.029884
1.013094
1.017996
1.028367
1.028306
1.012991
1.011581
1.021972
1.027802
1.034718
1.034656
1.027877
1.02184
1.011539
1.011735
1.021157
1.024225
1.025147
1.025213
1.024129
1.021255
1.011835
1.011835
1.011539
1.013094
1.016442
1.013148
1.030193
1.028501
1.011519
1.021831
1.02792
1.034662
1.011772
1.021142
1.024157
1.025187
1.025187
1.024157
1.021142
1.011759
1.011772
1.034662
1.02792
1.021831
1.011519
1.028501
1.013049
1.018004
1.018
1.030193
1.013046
1.013148
1.01645
1.016442
1.029725
1.029884
1.013094
1.017996
1.028367
1.028306
1.012991
1.011581
1.021972
1.027802
1.034718
1.034656
1.027877
1.02184
1.011539
1.011735
1.021157
1.024225
1.025147
1.025213
1.024129
1.021255
1.011835
1.011835
1.011539
1.013094
1.016442
1.013148
1.030193
1.028501
1.011519
1.021831
1.02792
1.034662
1.011772
1.021142
1.024156
1.025187
1.025187
1.024156
1.021142
1.011759
1.011772
1.034662
1.02792
1.021831
1.011519
1.028501
1.013049
1.018004
1.018
1.030193
1.013046
1.013148
1.01645
1.016442
1.029725
1.029884
1.013094
1.017996
1.028367
1.028306
1.012991
1.011581
1.021972
1.027802
1.034718
1.034656
1.027877
1.02184
1.011539
1.011735
1.021157
1.024225
1.025147
1.025213
1.024129
1.021255
1.011835
1.011835
1.011539
1.013094
1.016442
1.013148
1.030193
1.028501
1.011519
1.021831
1.02792
1.034662
1.011772
1.021142
1.024156
1.025187
1.025187
1.024156
1.021142
1.01176
1.011772
1.034662
1.02792
1.021831
1.011519
1.028501
1.013049
1.018004
1.018
1.030193
1.013046
1.013148
1.01645
1.016442
1.029725
1.029884
1.013094
1.017996
1.028367
1.028306
1.01299
1.01158
1.021972
1.027802
1.034718
1.034656
1.027877
1.02184
1.011539
1.011735
1.021157
1.024225
1.025147
1.025213
1.024129
1.021255
1.011835
1.011835
1.011539
1.013094
1.016442
1.013148
1.030193
1.028501
1.011519
1.021831
1.02792
1.034661
1.011772
1.021142
1.024156
1.025187
1.025187
1.024156
1.021142
1.01176
1.011772
1.034661
1.02792
1.021831
1.011519
1.028501
1.013049
1.018004
1.017999
1.030193
1.013046
1.013148
1.01645
1.016442
1.029724
1.029884
1.013094
1.017995
1.028367
1.028306
1.01299
1.01158
1.021972
1.027802
1.034718
1.034656
1.027877
1.02184
1.011539
1.011735
1.021157
1.024225
1.025147
1.025213
1.024129
1.021255
1.011835
1.011835
1.011539
1.013094
1.016442
1.013148
1.030193
1.028501
1.011519
1.021831
1.027919
1.034661
1.021142
1.024156
1.025186
1.025186
1.024156
1.021142
1.011761
1.011772
1.034661
1.02792
1.021831
1.011519
1.028501
1.013049
1.018004
1.017999
1.030193
1.013046
1.013148
1.016448
1.01645
1.016442
1.029724
1.029884
1.013094
1.017995
1.028367
1.028306
1.01299
1.01158
1.021972
1.027802
1.034718
1.034655
1.027876
1.021839
1.011539
1.011734
1.021157
1.024225
1.025146
1.025212
1.024128
1.021254
1.011835
1.017995
1.013094
1.016442
1.030193
1.0285
1.011519
1.021831
1.027919
1.03466
1.019958
1.021141
1.024154
1.025185
1.025185
1.024154
1.021141
1.011772
1.03466
1.027919
1.021831
1.011595
1.011519
1.0285
1.013049
1.018004
1.017999
1.030193
1.013148
1.016448
1.01645
1.016442
1.029724
1.029883
1.013094
1.018038
1.017995
1.028366
1.028305
1.01299
1.01158
1.021971
1.027801
1.034717
1.034654
1.027876
1.021839
1.011538
1.021156
1.024223
1.025145
1.025211
1.024127
1.021253
1.011834
1.012989
1.013093
1.013147
1.030192
1.013048
1.028499
1.021829
1.027917
1.034658
1.005175
1.021137
1.02415
1.02518
1.025181
1.02415
1.021137
1.01177
1.034658
1.027917
1.021829
1.011518
1.028499
1.012962
1.013048
1.018003
1.017998
1.030191
1.013045
1.013147
1.016449
1.016441
1.01309
1.029722
1.029882
1.013093
1.017994
1.013024
1.028365
1.028304
1.012989
1.011579
1.02197
1.027799
1.034715
1.034651
1.027874
1.021837
1.011538
1.021152
1.024219
1.02514
1.025206
1.024123
1.02125
1.011832
1.012989
1.013093
1.030185
1.017998
1.013048
1.028498
1.021829
1.027917
1.034657
1.01177
1.021138
1.02415
1.02518
1.02518
1.02415
1.021138
1.01177
1.034658
1.027917
1.021829
1.011594
1.011518
1.028499
1.013048
1.017998
1.030185
1.013045
1.013147
1.016447
1.016449
1.016441
1.01309
1.029722
1.029881
1.013093
1.018037
1.017994
1.028364
1.028303
1.012989
1.021969
1.027799
1.034713
1.03465
1.027872
1.021836
1.011537
1.021153
1.024219
1.025139
1.025206
1.024122
1.021249
1.011832
1.011835
1.011538
1.030167
1.017999
1.0285
1.02183
1.032471
1.027918
1.034658
1.021145
1.024157
1.025187
1.025187
1.024158
1.021146
1.011766
1.011774
1.034657
1.02792
1.021831
1.011519
1.028501
1.012962
1.013049
1.018004
1.017999
1.030167
1.013146
1.01645
1.016442
1.013091
1.029725
1.029883
1.013093
1.017995
1.013025
1.028366
1.028305
1.01299
1.021971
1.0278
1.034714
1.034653
1.027872
1.021837
1.011538