/*--------------------------------*- C++ -*----------------------------------*\
  =========                 |
  \\      /  F ield         | OpenFOAM: The Open Source CFD Toolbox
   \\    /   O peration     | Website:  https://openfoam.org
    \\  /    A nd           | Version:  6
     \\/     M anipulation  |
\*---------------------------------------------------------------------------*/
FoamFile
{
    version     2.0;
    format      ascii;
    class       volScalarField;
    location    "49.8/region0/neutronTransport";
    object      flux0;
}
// * * * * * * * * * * * * * * * * * * * * * * * * * * * * * * * * * * * * * //

dimensions      [0 -2 -1 0 0 0 0];

internalField   nonuniform List<scalar> 
203709
(
4.283339e+16
4.643699e+16
4.643492e+16
4.284802e+16
4.464895e+16
4.922351e+16
5.892821e+16
5.850239e+16
5.849988e+16
5.893546e+16
4.923466e+16
4.466741e+16
4.364984e+16
4.93587e+16
5.971148e+16
5.979213e+16
6.140216e+16
6.182223e+16
6.182425e+16
6.141069e+16
5.980549e+16
5.973256e+16
4.938077e+16
4.367319e+16
4.364828e+16
5.805216e+16
5.949531e+16
6.176663e+16
6.29765e+16
6.401815e+16
6.448607e+16
6.449153e+16
6.402669e+16
6.298946e+16
6.178701e+16
5.951937e+16
5.808096e+16
4.367235e+16
4.934711e+16
5.948803e+16
6.210777e+16
6.398845e+16
6.54096e+16
6.643402e+16
6.694633e+16
6.695104e+16
6.644068e+16
6.542134e+16
6.400639e+16
6.212825e+16
5.95112e+16
4.936799e+16
4.46242e+16
5.968727e+16
6.175243e+16
6.398079e+16
6.591116e+16
6.743524e+16
6.849355e+16
6.902108e+16
6.902357e+16
6.850016e+16
6.744734e+16
6.592493e+16
6.399817e+16
6.177457e+16
5.97136e+16
4.464162e+16
4.918368e+16
5.975518e+16
6.295015e+16
6.539128e+16
6.742735e+16
6.901282e+16
7.00734e+16
7.057981e+16
7.058145e+16
7.008022e+16
6.902109e+16
6.743862e+16
6.541114e+16
6.297642e+16
5.978427e+16
4.921194e+16
4.279724e+16
5.887812e+16
6.13595e+16
6.398529e+16
6.641243e+16
6.848041e+16
7.006885e+16
7.106685e+16
7.156246e+16
7.156402e+16
7.107314e+16
7.007652e+16
6.849497e+16
6.643476e+16
6.401454e+16
6.139425e+16
5.89201e+16
4.281929e+16
4.637915e+16
5.843831e+16
6.176582e+16
6.444505e+16
6.691687e+16
6.900043e+16
7.056997e+16
7.155809e+16
7.209117e+16
7.207919e+16
7.155956e+16
7.057779e+16
6.901632e+16
6.693853e+16
6.447331e+16
6.180345e+16
5.847676e+16
4.641002e+16
4.638081e+16
5.84447e+16
6.176572e+16
6.443888e+16
6.691143e+16
6.899754e+16
7.056623e+16
7.155521e+16
7.209775e+16
7.208356e+16
7.155396e+16
7.056978e+16
6.90068e+16
6.693131e+16
6.446662e+16
6.179763e+16
5.84775e+16
4.64131e+16
4.278091e+16
5.887613e+16
6.13517e+16
6.397492e+16
6.640227e+16
6.847198e+16
7.006196e+16
7.106214e+16
7.155822e+16
7.155199e+16
7.105696e+16
7.006023e+16
6.847554e+16
6.64149e+16
6.399511e+16
6.13767e+16
5.889936e+16
4.281229e+16
4.917023e+16
5.97429e+16
6.293948e+16
6.538342e+16
6.741876e+16
6.900566e+16
7.006664e+16
7.057477e+16
7.056762e+16
7.006213e+16
6.899966e+16
6.741649e+16
6.538643e+16
6.294956e+16
5.976205e+16
4.919529e+16
4.461143e+16
5.9674e+16
6.173802e+16
6.396954e+16
6.590027e+16
6.74268e+16
6.848219e+16
6.90133e+16
6.900818e+16
6.84795e+16
6.742038e+16
6.589626e+16
6.396962e+16
6.174529e+16
5.968831e+16
4.462746e+16
4.933648e+16
5.947526e+16
6.209717e+16
6.397911e+16
6.539941e+16
6.642409e+16
6.695933e+16
6.695533e+16
6.641667e+16
6.539038e+16
6.397045e+16
6.209253e+16
5.947974e+16
4.934382e+16
4.364407e+16
5.804791e+16
5.948586e+16
6.175596e+16
6.295978e+16
6.399888e+16
6.448497e+16
6.448235e+16
6.399146e+16
6.294941e+16
6.17423e+16
5.947279e+16
5.803984e+16
4.363563e+16
4.364943e+16
4.935013e+16
5.969374e+16
5.97619e+16
6.13716e+16
6.180041e+16
6.180204e+16
6.136533e+16
5.975538e+16
5.967904e+16
4.93314e+16
4.363326e+16
4.462613e+16
4.918751e+16
5.888648e+16
5.84745e+16
5.847967e+16
5.888264e+16
4.918038e+16
4.461511e+16
4.279504e+16
4.638632e+16
4.63886e+16
4.279356e+16
3.600032e+16
4.029107e+16
4.186229e+16
4.29464e+16
4.362154e+16
4.362289e+16
4.295049e+16
4.1868e+16
4.029856e+16
3.601095e+16
3.664541e+16
4.199814e+16
5.168718e+16
5.346755e+16
5.532804e+16
5.725971e+16
5.877684e+16
5.877953e+16
5.726947e+16
5.533486e+16
5.346775e+16
5.168309e+16
4.198964e+16
3.664136e+16
3.751399e+16
5.089006e+16
5.383282e+16
5.776267e+16
6.136682e+16
6.432187e+16
6.7709e+16
7.061887e+16
7.062157e+16
6.771772e+16
6.432093e+16
6.136056e+16
5.776218e+16
5.383389e+16
5.090396e+16
3.75241e+16
3.787561e+16
5.183824e+16
5.641007e+16
6.117067e+16
6.601382e+16
7.228699e+16
7.982837e+16
8.567136e+16
8.82235e+16
8.822585e+16
8.567233e+16
7.983252e+16
7.229797e+16
6.603069e+16
6.11891e+16
5.643005e+16
5.185314e+16
3.789416e+16
3.750045e+16
5.182371e+16
5.694567e+16
6.248965e+16
7.096506e+16
8.089841e+16
8.982455e+16
9.741802e+16
1.030396e+17
1.123791e+17
1.123814e+17
1.030522e+17
9.743427e+16
8.984176e+16
8.092461e+16
7.098905e+16
6.251913e+16
5.697014e+16
5.18477e+16
3.75236e+16
3.662723e+16
5.087923e+16
5.639367e+16
6.248151e+16
7.375194e+16
8.716756e+16
9.736188e+16
1.057151e+17
1.192679e+17
1.253865e+17
1.289961e+17
1.289994e+17
1.253974e+17
1.192854e+17
1.057406e+17
9.738943e+16
8.719188e+16
7.378005e+16
6.250709e+16
5.642135e+16
5.090747e+16
3.665128e+16
4.196018e+16
5.379767e+16
6.11422e+16
7.094351e+16
8.715421e+16
1.012197e+17
1.175705e+17
1.267219e+17
1.338835e+17
1.383289e+17
1.405967e+17
1.406008e+17
1.3834e+17
1.339039e+17
1.267507e+17
1.176021e+17
1.012519e+17
8.718632e+16
7.097381e+16
6.117682e+16
5.383365e+16
4.19888e+16
3.597886e+16
5.164498e+16
5.771539e+16
6.597662e+16
8.086327e+16
9.734596e+16
1.175605e+17
1.299547e+17
1.380353e+17
1.436533e+17
1.472371e+17
1.490115e+17
1.490159e+17
1.47249e+17
1.436756e+17
1.380667e+17
1.299917e+17
1.17602e+17
9.738911e+16
8.090966e+16
6.601702e+16
5.775052e+16
5.166908e+16
3.599208e+16
4.026102e+16
5.343327e+16
6.131546e+16
7.224618e+16
8.979734e+16
1.056943e+17
1.267033e+17
1.380248e+17
1.454001e+17
1.504112e+17
1.535959e+17
1.55155e+17
1.551594e+17
1.536091e+17
1.504345e+17
1.454314e+17
1.38063e+17
1.267465e+17
1.057381e+17
8.983947e+16
7.22746e+16
6.134796e+16
5.345278e+16
4.027544e+16
4.18257e+16
5.529297e+16
6.426774e+16
7.976623e+16
9.738099e+16
1.192302e+17
1.338506e+17
1.436295e+17
1.503997e+17
1.550789e+17
1.580638e+17
1.595288e+17
1.595328e+17
1.580768e+17
1.550998e+17
1.504285e+17
1.436676e+17
1.338946e+17
1.192728e+17
9.740996e+16
7.981396e+16
6.430938e+16
5.531504e+16
4.184553e+16
4.290142e+16
5.721831e+16
6.766322e+16
8.562e+16
1.029937e+17
1.253385e+17
1.382843e+17
1.472027e+17
1.535744e+17
1.580548e+17
1.609149e+17
1.623218e+17
1.623235e+17
1.609241e+17
1.580709e+17
1.536005e+17
1.472403e+17
1.383301e+17
1.253858e+17
1.030347e+17
8.566702e+16
6.769888e+16
5.725006e+16
4.293388e+16
4.356591e+16
5.871646e+16
7.05537e+16
8.816223e+16
1.123166e+17
1.289344e+17
1.405412e+17
1.489668e+17
1.551235e+17
1.595118e+17
1.623162e+17
1.637044e+17
1.636992e+17
1.623204e+17
1.595262e+17
1.551495e+17
1.49004e+17
1.405875e+17
1.289861e+17
1.123673e+17
8.821265e+16
7.060334e+16
5.876348e+16
4.360809e+16
4.35577e+16
5.870233e+16
7.053768e+16
8.814975e+16
1.123111e+17
1.289308e+17
1.405367e+17
1.489617e+17
1.551187e+17
1.595072e+17
1.623139e+17
1.637077e+17
1.637015e+17
1.623177e+17
1.595213e+17
1.551434e+17
1.489978e+17
1.405819e+17
1.289826e+17
1.123648e+17
8.820173e+16
7.059019e+16
5.875276e+16
4.360103e+16
4.288096e+16
5.719264e+16
6.764713e+16
8.56087e+16
1.029726e+17
1.253245e+17
1.38272e+17
1.471901e+17
1.535622e+17
1.580441e+17
1.60908e+17
1.623191e+17
1.623173e+17
1.609134e+17
1.580581e+17
1.535853e+17
1.472238e+17
1.383147e+17
1.253749e+17
1.030269e+17
8.565727e+16
6.769439e+16
5.724124e+16
4.292043e+16
4.180681e+16
5.5272e+16
6.426169e+16
7.975969e+16
9.735963e+16
1.192128e+17
1.338344e+17
1.436139e+17
1.503841e+17
1.550653e+17
1.580528e+17
1.595214e+17
1.595205e+17
1.5806e+17
1.550785e+17
1.504045e+17
1.43643e+17
1.338721e+17
1.192573e+17
9.740986e+16
7.979679e+16
6.429589e+16
5.53159e+16
4.184047e+16
4.024884e+16
5.342046e+16
6.131389e+16
7.223178e+16
8.978961e+16
1.056825e+17
1.266879e+17
1.380078e+17
1.453826e+17
1.503959e+17
1.53582e+17
1.551429e+17
1.551426e+17
1.535891e+17
1.504081e+17
1.454006e+17
1.380323e+17
1.267174e+17
1.05709e+17
8.981716e+16
7.226807e+16
6.134037e+16
5.345653e+16
4.027537e+16
3.597125e+16
5.164173e+16
5.771866e+16
6.5968e+16
8.086576e+16
9.73403e+16
1.175504e+17
1.299412e+17
1.380207e+17
1.436381e+17
1.472231e+17
1.489939e+17
1.489936e+17
1.472263e+17
1.436455e+17
1.380319e+17
1.299571e+17
1.175686e+17
9.735335e+16
8.088007e+16
6.599535e+16
5.773587e+16
5.166753e+16
3.599176e+16
4.197145e+16
5.380196e+16
6.113694e+16
7.094285e+16
8.715468e+16
1.01214e+17
1.175608e+17
1.267103e+17
1.338669e+17
1.383109e+17
1.405676e+17
1.405676e+17
1.383108e+17
1.33868e+17
1.267117e+17
1.175655e+17
1.012188e+17
8.71553e+16
7.094877e+16
6.115651e+16
5.380996e+16
4.197218e+16
3.663801e+16
5.087732e+16
5.639157e+16
6.248105e+16
7.375038e+16
8.715938e+16
9.735566e+16
1.057086e+17
1.192484e+17
1.253652e+17
1.289635e+17
1.289655e+17
1.253631e+17
1.192437e+17
1.056973e+17
9.734978e+16
8.71567e+16
7.374464e+16
6.247871e+16
5.640013e+16
5.088014e+16
3.662579e+16
3.750994e+16
5.183656e+16
5.694903e+16
6.247928e+16
7.09452e+16
8.087763e+16
8.981235e+16
9.739442e+16
1.030075e+17
1.123324e+17
1.123362e+17
1.030051e+17
9.738282e+16
8.979243e+16
8.086647e+16
7.093753e+16
6.247081e+16
5.69408e+16
5.183228e+16
3.75004e+16
3.787827e+16
5.182992e+16
5.639249e+16
6.114899e+16
6.598439e+16
7.223898e+16
7.977528e+16
8.563029e+16
8.817086e+16
8.817073e+16
8.561821e+16
7.976212e+16
7.223311e+16
6.596842e+16
6.113148e+16
5.637821e+16
5.181982e+16
3.787041e+16
3.749427e+16
5.087516e+16
5.380204e+16
5.771671e+16
6.131107e+16
6.42715e+16
6.76615e+16
7.056036e+16
7.055811e+16
6.765241e+16
6.42533e+16
6.130078e+16
5.771091e+16
5.379169e+16
5.086059e+16
3.748545e+16
3.662797e+16
4.196259e+16
5.164088e+16
5.342574e+16
5.528461e+16
5.72083e+16
5.871796e+16
5.87172e+16
5.720381e+16
5.527348e+16
5.341258e+16
5.1639e+16
4.195928e+16
3.661995e+16
3.596282e+16
4.024279e+16
4.180501e+16
4.288231e+16
4.355699e+16
4.355597e+16
4.288689e+16
4.180879e+16
4.024273e+16
3.595735e+16
3.058162e+16
3.411895e+16
3.508444e+16
3.546731e+16
3.54608e+16
3.506535e+16
3.408598e+16
3.05569e+16
3.052069e+16
3.590723e+16
3.908716e+16
4.753778e+16
4.932086e+16
5.035379e+16
5.082904e+16
5.082315e+16
5.033505e+16
4.929152e+16
4.752985e+16
3.908474e+16
3.591174e+16
3.054088e+16
3.351682e+16
4.616893e+16
5.040314e+16
5.489572e+16
5.993173e+16
6.237625e+16
6.389469e+16
6.461587e+16
6.461118e+16
6.388066e+16
6.235421e+16
5.99096e+16
5.488646e+16
5.040276e+16
4.617838e+16
3.354286e+16
3.1469e+16
3.832302e+16
4.953256e+16
5.772393e+16
6.626267e+16
7.43753e+16
7.92016e+16
8.2162e+16
8.415777e+16
8.519963e+16
8.51948e+16
8.414413e+16
8.214173e+16
7.917862e+16
7.435657e+16
6.625252e+16
5.773244e+16
4.953766e+16
3.833731e+16
3.148167e+16
3.176287e+16
4.538784e+16
5.225006e+16
6.308959e+16
7.562569e+16
8.541407e+16
9.359318e+16
1.06618e+17
1.127882e+17
1.164366e+17
1.182659e+17
1.182625e+17
1.164288e+17
1.127798e+17
1.066149e+17
9.360486e+16
8.542901e+16
7.56375e+16
6.309013e+16
5.2267e+16
4.539635e+16
3.177245e+16
3.146087e+16
4.539059e+16
5.38097e+16
6.546962e+16
8.071037e+16
9.280599e+16
1.095824e+17
1.20528e+17
1.300126e+17
1.370421e+17
1.417367e+17
1.441012e+17
1.440991e+17
1.417339e+17
1.370344e+17
1.300043e+17
1.205277e+17
1.095854e+17
9.281387e+16
8.072181e+16
6.548444e+16
5.38125e+16
4.539649e+16
3.147228e+16
3.832111e+16
5.225034e+16
6.54667e+16
8.193852e+16
9.577117e+16
1.155179e+17
1.301064e+17
1.420049e+17
1.520723e+17
1.601497e+17
1.656584e+17
1.679813e+17
1.679797e+17
1.656534e+17
1.601447e+17
1.520746e+17
1.420179e+17
1.301235e+17
1.15539e+17
9.578906e+16
8.194645e+16
6.547757e+16
5.226332e+16
3.833428e+16
3.352287e+16
4.951371e+16
6.306479e+16
8.070492e+16
9.575735e+16
1.173e+17
1.345452e+17
1.496418e+17
1.626322e+17
1.733595e+17
1.814827e+17
1.872379e+17
1.905822e+17
1.905828e+17
1.872405e+17
1.814889e+17
1.733727e+17
1.626535e+17
1.496681e+17
1.345806e+17
1.173338e+17
9.578994e+16
8.072903e+16
6.308684e+16
4.95331e+16
3.353197e+16
3.050107e+16
4.614615e+16
5.769765e+16
7.559478e+16
9.279983e+16
1.155125e+17
1.345402e+17
1.52306e+17
1.68276e+17
1.814685e+17
1.923399e+17
2.014429e+17
2.078558e+17
2.113315e+17
2.113338e+17
2.078636e+17
2.014582e+17
1.923643e+17
1.814981e+17
1.683108e+17
1.523489e+17
1.345821e+17
1.155515e+17
9.283244e+16
7.561437e+16
5.772894e+16
4.616706e+16
3.051596e+16
3.588535e+16
5.037564e+16
6.621521e+16
8.538945e+16
1.095571e+17
1.300888e+17
1.496195e+17
1.682592e+17
1.843516e+17
1.986941e+17
2.103351e+17
2.193997e+17
2.255027e+17
2.28626e+17
2.286298e+17
2.25515e+17
2.19423e+17
2.103694e+17
1.987361e+17
1.844005e+17
1.683135e+17
1.496735e+17
1.301414e+17
1.096036e+17
8.54129e+16
6.625873e+16
5.040931e+16
3.590778e+16
3.90538e+16
5.484571e+16
7.430085e+16
9.356972e+16
1.204919e+17
1.419715e+17
1.625919e+17
1.814382e+17
1.986778e+17
2.135989e+17
2.252378e+17
2.338447e+17
2.395234e+17
2.423635e+17
2.423687e+17
2.395396e+17
2.338745e+17
2.252811e+17
2.136534e+17
1.987418e+17
1.815093e+17
1.626655e+17
1.420398e+17
1.205535e+17
9.360833e+16
7.437149e+16
5.489612e+16
3.908379e+16
3.05486e+16
4.750096e+16
5.986061e+16
7.912311e+16
1.065745e+17
1.299663e+17
1.520245e+17
1.733148e+17
1.923019e+17
2.103056e+17
2.252221e+17
2.366026e+17
2.448334e+17
2.501979e+17
2.528542e+17
2.528602e+17
2.502168e+17
2.448668e+17
2.366507e+17
2.252832e+17
2.10377e+17
1.923801e+17
1.733951e+17
1.520986e+17
1.300355e+17
1.066315e+17
7.920111e+16
5.992163e+16
4.752807e+16
3.057029e+16
3.406388e+16
4.925852e+16
6.230758e+16
8.209168e+16
1.127358e+17
1.369889e+17
1.600856e+17
1.814256e+17
2.013905e+17
2.193546e+17
2.338125e+17
2.448173e+17
2.527511e+17
2.579077e+17
2.604571e+17
2.60463e+17
2.579267e+17
2.527842e+17
2.448655e+17
2.338752e+17
2.194283e+17
2.014699e+17
1.815073e+17
1.60173e+17
1.370646e+17
1.128023e+17
8.216411e+16
6.236497e+16
4.930394e+16
3.409691e+16
3.503538e+16
5.029339e+16
6.382962e+16
8.409569e+16
1.163823e+17
1.416827e+17
1.655945e+17
1.871723e+17
2.077912e+17
2.254434e+17
2.394764e+17
2.501673e+17
2.578938e+17
2.629165e+17
2.653977e+17
2.65402e+17
2.629321e+17
2.57923e+17
2.502126e+17
2.395381e+17
2.255181e+17
2.078731e+17
1.872582e+17
1.656828e+17
1.417596e+17
1.164543e+17
8.416383e+16
6.388879e+16
5.034194e+16
3.506693e+16
3.54289e+16
5.07821e+16
6.456046e+16
8.514539e+16
1.182104e+17
1.44039e+17
1.679119e+17
1.90508e+17
2.112563e+17
2.285554e+17
2.423044e+17
2.52811e+17
2.604316e+17
2.653879e+17
2.678365e+17
2.678381e+17
2.654003e+17
2.604584e+17
2.528548e+17
2.423651e+17
2.2863e+17
2.113399e+17
1.905958e+17
1.680009e+17
1.441217e+17
1.182847e+17
8.520952e+16
6.461631e+16
5.082632e+16
3.546113e+16
3.543313e+16
5.07862e+16
6.456294e+16
8.514777e+16
1.182076e+17
1.440328e+17
1.679063e+17
1.905032e+17
2.112525e+17
2.285517e+17
2.423002e+17
2.528066e+17
2.604273e+17
2.65385e+17
2.678357e+17
2.67837e+17
2.653974e+17
2.604542e+17
2.528497e+17
2.423596e+17
2.28625e+17
2.113359e+17
1.905912e+17
1.679935e+17
1.44115e+17
1.182796e+17
8.520462e+16
6.461375e+16
5.082696e+16
3.546549e+16
3.504964e+16
5.030995e+16
6.384074e+16
8.41046e+16
1.163765e+17
1.416753e+17
1.655904e+17
1.871624e+17
2.077812e+17
2.254334e+17
2.394655e+17
2.501558e+17
2.578829e+17
2.629077e+17
2.653914e+17
2.653945e+17
2.62922e+17
2.579106e+17
2.501984e+17
2.395233e+17
2.255045e+17
2.078622e+17
1.872478e+17
1.656717e+17
1.417527e+17
1.164421e+17
8.414609e+16
6.388007e+16
5.034228e+16
3.507586e+16
3.408932e+16
4.928445e+16
6.232746e+16
8.2112e+16
1.127328e+17
1.369865e+17
1.600877e+17
1.8142e+17
2.013803e+17
2.193421e+17
2.337983e+17
2.448021e+17
2.527364e+17
2.578944e+17
2.604448e+17
2.604485e+17
2.579094e+17
2.527638e+17
2.44843e+17
2.33853e+17
2.194087e+17
2.014547e+17
1.814971e+17
1.601585e+17
1.370542e+17
1.127886e+17
8.213209e+16
6.235149e+16
4.930695e+16
3.410768e+16
3.05779e+16
4.751999e+16
5.989616e+16
7.916314e+16
1.065766e+17
1.299715e+17
1.520235e+17
1.733147e+17
1.922968e+17
2.102958e+17
2.252086e+17
2.365874e+17
2.44818e+17
2.501823e+17
2.528368e+17
2.528403e+17
2.501961e+17
2.448431e+17
2.366246e+17
2.252577e+17
2.103538e+17
1.923594e+17
1.733812e+17
1.520917e+17
1.300277e+17
1.06624e+17
7.916253e+16
5.990771e+16
4.754197e+16
3.058753e+16
3.907541e+16
5.488085e+16
7.435249e+16
9.357038e+16
1.205048e+17
1.419703e+17
1.625967e+17
1.814393e+17
1.986728e+17
2.135891e+17
2.252257e+17
2.338307e+17
2.395066e+17
2.423391e+17
2.423419e+17
2.395169e+17
2.338501e+17
2.252553e+17
2.136287e+17
1.98719e+17
1.814884e+17
1.626523e+17
1.420277e+17
1.20543e+17
9.361169e+16
7.433599e+16
5.48808e+16
3.90849e+16
3.589556e+16
5.039827e+16
6.625545e+16
8.540773e+16
1.095785e+17
1.300892e+17
1.496204e+17
1.682608e+17
1.843471e+17
1.986863e+17
2.103261e+17
2.193869e+17
2.254846e+17
2.285955e+17
2.285974e+17
2.254906e+17
2.193985e+17
2.103452e+17
1.987148e+17
1.843816e+17
1.682972e+17
1.496628e+17
1.301277e+17
1.095951e+17
8.543366e+16
6.624531e+16
5.040319e+16
3.591034e+16
3.050126e+16
4.617417e+16
5.773209e+16
7.562061e+16
9.281926e+16
1.155157e+17
1.345397e+17
1.523046e+17
1.682685e+17
1.814603e+17
1.923336e+17
2.014305e+17
2.078373e+17
2.113013e+17
2.113031e+17
2.078397e+17
2.01434e+17
1.923412e+17
1.814783e+17
1.682929e+17
1.523304e+17
1.345668e+17
1.155351e+17
9.281256e+16
7.563265e+16
5.771822e+16
4.616798e+16
3.052297e+16
3.35176e+16
4.953185e+16
6.309003e+16
8.071089e+16
9.577078e+16
1.173026e+17
1.345432e+17
1.496313e+17
1.626189e+17
1.733487e+17
1.814659e+17
1.87214e+17
1.905475e+17
1.905493e+17
1.872142e+17
1.814629e+17
1.733477e+17
1.626274e+17
1.496442e+17
1.345568e+17
1.173167e+17
9.578037e+16
8.071823e+16
6.308579e+16
4.95268e+16
3.352314e+16
3.832716e+16
5.226367e+16
6.547776e+16
8.1943e+16
9.576432e+16
1.155205e+17
1.301037e+17
1.419936e+17
1.520481e+17
1.601208e+17
1.656314e+17
1.679496e+17
1.67949e+17
1.656275e+17
1.601157e+17
1.520471e+17
1.419909e+17
1.301022e+17
1.155208e+17
9.576678e+16
8.194137e+16
6.546935e+16
5.224767e+16
3.831694e+16
3.147462e+16
4.540037e+16
5.38176e+16
6.547202e+16
8.072144e+16
9.281819e+16
1.095722e+17
1.205107e+17
1.299862e+17
1.37011e+17
1.417047e+17
1.440637e+17
1.440622e+17
1.417035e+17
1.370053e+17
1.299799e+17
1.205081e+17
1.095763e+17
9.281538e+16
8.071448e+16
6.546334e+16
5.380492e+16
4.53863e+16
3.146245e+16
3.176172e+16
4.539873e+16
5.22653e+16
6.307678e+16
7.559744e+16
8.537857e+16
9.356716e+16
1.065756e+17
1.127346e+17
1.163809e+17
1.182072e+17
1.18205e+17
1.163869e+17
1.127441e+17
1.065819e+17
9.356499e+16
8.539109e+16
7.560839e+16
6.307629e+16
5.225308e+16
4.538573e+16
3.175184e+16
3.147083e+16
3.833096e+16
4.951825e+16
5.770736e+16
6.621775e+16
7.431198e+16
7.911813e+16
8.206769e+16
8.406918e+16
8.514845e+16
8.513977e+16
8.408772e+16
8.209519e+16
7.914371e+16
7.4332e+16
6.622796e+16
5.770445e+16
4.951118e+16
3.831441e+16
3.146204e+16
3.350944e+16
4.614123e+16
5.037323e+16
5.484744e+16
5.985676e+16
6.228666e+16
6.380471e+16
6.454641e+16
6.453574e+16
6.381024e+16
6.229247e+16
5.985967e+16
5.484149e+16
5.035988e+16
4.614702e+16
3.349806e+16
3.048553e+16
3.587851e+16
3.904734e+16
4.748981e+16
4.9245e+16
5.027277e+16
5.077433e+16
5.07692e+16
5.026779e+16
4.923642e+16
4.748676e+16
3.903807e+16
3.586439e+16
3.048767e+16
3.05465e+16
3.40536e+16
3.501384e+16
3.541051e+16
3.540655e+16
3.500705e+16
3.404169e+16
3.05234e+16
2.709115e+16
3.005077e+16
3.075748e+16
3.075027e+16
3.003017e+16
2.707912e+16
2.612549e+16
3.174439e+16
3.522175e+16
3.886036e+16
4.65084e+16
4.834153e+16
4.907069e+16
4.905482e+16
4.8302e+16
4.646682e+16
3.885816e+16
3.522984e+16
3.175163e+16
2.614457e+16
2.633617e+16
3.316895e+16
4.381105e+16
5.055824e+16
5.623223e+16
6.30805e+16
6.740205e+16
6.931241e+16
7.025778e+16
7.023881e+16
6.926556e+16
6.73625e+16
6.307654e+16
5.622928e+16
5.054443e+16
4.382153e+16
3.3191e+16
2.636937e+16
2.926964e+16
4.273978e+16
5.194825e+16
6.367853e+16
7.122968e+16
7.871716e+16
8.527918e+16
9.627615e+16
1.005759e+17
1.023087e+17
1.022925e+17
1.005341e+17
9.622852e+16
8.524552e+16
7.868458e+16
7.120956e+16
6.365256e+16
5.197066e+16
4.275944e+16
2.930757e+16
3.117586e+16
4.683497e+16
5.92184e+16
7.257895e+16
8.391322e+16
9.980157e+16
1.101344e+17
1.181182e+17
1.24812e+17
1.289459e+17
1.308621e+17
1.308486e+17
1.289099e+17
1.247657e+17
1.180784e+17
1.101114e+17
9.979668e+16
8.391892e+16
7.257397e+16
5.924308e+16
4.685146e+16
3.12014e+16
3.220364e+16
4.998759e+16
6.579111e+16
7.876171e+16
9.144522e+16
1.121185e+17
1.270193e+17
1.386287e+17
1.470414e+17
1.534806e+17
1.576759e+17
1.597178e+17
1.597068e+17
1.576464e+17
1.534415e+17
1.47004e+17
1.386011e+17
1.270085e+17
1.121335e+17
9.14675e+16
7.876573e+16
6.579583e+16
4.999372e+16
3.221329e+16
3.117775e+16
4.998975e+16
6.840377e+16
8.330556e+16
1.04444e+17
1.218465e+17
1.390962e+17
1.536941e+17
1.65853e+17
1.761701e+17
1.837807e+17
1.88648e+17
1.910222e+17
1.910139e+17
1.886267e+17
1.837554e+17
1.76151e+17
1.658468e+17
1.536986e+17
1.391112e+17
1.218584e+17
1.044554e+17
8.33102e+16
6.838273e+16
4.99918e+16
3.118708e+16
2.927102e+16
4.682717e+16
6.580101e+16
8.330048e+16
1.069938e+17
1.277031e+17
1.467732e+17
1.638177e+17
1.798979e+17
1.935847e+17
2.048503e+17
2.131941e+17
2.185946e+17
2.212386e+17
2.212329e+17
2.185809e+17
2.131778e+17
2.048398e+17
1.93586e+17
1.799085e+17
1.638359e+17
1.467917e+17
1.277198e+17
1.070027e+17
8.33083e+16
6.580166e+16
4.684114e+16
2.928451e+16
2.633178e+16
4.272678e+16
5.922855e+16
7.875267e+16
1.044414e+17
1.277033e+17
1.49416e+17
1.689059e+17
1.879121e+17
2.052426e+17
2.198893e+17
2.31779e+17
2.407457e+17
2.465846e+17
2.493715e+17
2.493677e+17
2.465754e+17
2.407378e+17
2.31781e+17
2.199051e+17
2.052681e+17
1.879435e+17
1.689353e+17
1.494372e+17
1.277209e+17
1.044554e+17
7.876764e+16
5.925067e+16
4.274576e+16
2.634766e+16
3.316053e+16
5.19512e+16
7.254778e+16
9.145863e+16
1.21841e+17
1.467718e+17
1.689044e+17
1.904992e+17
2.107712e+17
2.288421e+17
2.442174e+17
2.56631e+17
2.660504e+17
2.723881e+17
2.756304e+17
2.756294e+17
2.723868e+17
2.660547e+17
2.566477e+17
2.44248e+17
2.288838e+17
2.108211e+17
1.905483e+17
1.689469e+17
1.468039e+17
1.218659e+17
9.147751e+16
7.258058e+16
5.197979e+16
3.318998e+16
2.612206e+16
4.378805e+16
6.363355e+16
8.389281e+16
1.121219e+17
1.390863e+17
1.63813e+17
1.879076e+17
2.107658e+17
2.317233e+17
2.503136e+17
2.662103e+17
2.792152e+17
2.893601e+17
2.963334e+17
2.999293e+17
2.999311e+17
2.963409e+17
2.893779e+17
2.792479e+17
2.66257e+17
2.503721e+17
2.317904e+17
2.108326e+17
1.879679e+17
1.63862e+17
1.391216e+17
1.121501e+17
8.39013e+16
6.367725e+16
4.3822e+16
2.616241e+16
3.171177e+16
5.051547e+16
7.117692e+16
9.978779e+16
1.269987e+17
1.536738e+17
1.798783e+17
2.05224e+17
2.288201e+17
2.502965e+17
2.693698e+17
2.860298e+17
2.997848e+17
3.104193e+17
3.17646e+17
3.213191e+17
3.213237e+17
3.176617e+17
3.104501e+17
2.998335e+17
2.860947e+17
2.694477e+17
2.50383e+17
2.289072e+17
2.053057e+17
1.799477e+17
1.537245e+17
1.270432e+17
9.980492e+16
7.120587e+16
5.055305e+16
3.17523e+16
3.519869e+16
5.620183e+16
7.868591e+16
1.101216e+17
1.385889e+17
1.658235e+17
1.935506e+17
2.198515e+17
2.441741e+17
2.661726e+17
2.860079e+17
3.033598e+17
3.175467e+17
3.283234e+17
3.355585e+17
3.391983e+17
3.392054e+17
3.355813e+17
3.283652e+17
3.176095e+17
3.03442e+17
2.861056e+17
2.662803e+17
2.442843e+17
2.199563e+17
1.936428e+17
1.658948e+17
1.386524e+17
1.101453e+17
7.869667e+16
5.621404e+16
3.521621e+16
3.884251e+16
6.308215e+16
8.528166e+16
1.181037e+17
1.469988e+17
1.761279e+17
2.048015e+17
2.317223e+17
2.565705e+17
2.791594e+17
2.997421e+17
3.175241e+17
3.318758e+17
3.426372e+17
3.497977e+17
3.533781e+17
3.533867e+17
3.498249e+17
3.426857e+17
3.319475e+17
3.176176e+17
2.998529e+17
2.792816e+17
2.56697e+17
2.318443e+17
2.049117e+17
1.762191e+17
1.470742e+17
1.181362e+17
8.527715e+16
6.305231e+16
3.883903e+16
2.708075e+16
4.647826e+16
6.74036e+16
9.627794e+16
1.247955e+17
1.534409e+17
1.837317e+17
2.13135e+17
2.406733e+17
2.659736e+17
2.892865e+17
3.103566e+17
3.282793e+17
3.426152e+17
3.532949e+17
3.603699e+17
3.638984e+17
3.639072e+17
3.603979e+17
3.533446e+17
3.426893e+17
3.283769e+17
3.104731e+17
2.894154e+17
2.661089e+17
2.408081e+17
2.132567e+17
1.83835e+17
1.535208e+17
1.248328e+17
9.627384e+16
6.737458e+16
4.646895e+16
2.707669e+16
3.001586e+16
4.831257e+16
6.930291e+16
1.005726e+17
1.289303e+17
1.576439e+17
1.886009e+17
2.185331e+17
2.465068e+17
2.723012e+17
2.96246e+17
3.175667e+17
3.354958e+17
3.497563e+17
3.603505e+17
3.673558e+17
3.708447e+17
3.708523e+17
3.673809e+17
3.603967e+17
3.498274e+17
3.355919e+17
3.176834e+17
2.963766e+17
2.724395e+17
2.466448e+17
2.186589e+17
1.887089e+17
1.577261e+17
1.289774e+17
1.005838e+17
6.929262e+16
4.831094e+16
3.003457e+16
3.073225e+16
4.905231e+16
7.024711e+16
1.023126e+17
1.308591e+17
1.59699e+17
1.909833e+17
2.211788e+17
2.492924e+17
2.755382e+17
2.998327e+17
3.212276e+17
3.39121e+17
3.533209e+17
3.638631e+17
3.708298e+17
3.742972e+17
3.743034e+17
3.708518e+17
3.639057e+17
3.533885e+17
3.39214e+17
3.213421e+17
2.99962e+17
2.756753e+17
2.494291e+17
2.213047e+17
1.910905e+17
1.597809e+17
1.309128e+17
1.023418e+17
7.026757e+16
4.907061e+16
3.075769e+16
3.073468e+16
4.905988e+16
7.026201e+16
1.023204e+17
1.30866e+17
1.597046e+17
1.909864e+17
2.211797e+17
2.492921e+17
2.755366e+17
2.998304e+17
3.212251e+17
3.39118e+17
3.533173e+17
3.638593e+17
3.70826e+17
3.742938e+17
3.742996e+17
3.70847e+17
3.639e+17
3.533821e+17
3.392075e+17
3.213359e+17
2.999564e+17
2.7567e+17
2.494241e+17
2.213014e+17
1.910888e+17
1.59782e+17
1.309207e+17
1.023553e+17
7.028484e+16
4.908578e+16
3.076617e+16
3.003339e+16
4.832709e+16
6.931492e+16
1.005846e+17
1.289472e+17
1.576596e+17
1.886098e+17
2.18538e+17
2.465099e+17
2.722997e+17
2.962414e+17
3.175604e+17
3.35488e+17
3.497473e+17
3.603404e+17
3.673453e+17
3.708338e+17
3.708399e+17
3.673664e+17
3.603802e+17
3.498097e+17
3.355741e+17
3.176667e+17
2.963621e+17
2.724265e+17
2.46634e+17
2.186524e+17
1.887042e+17
1.577284e+17
1.290004e+17
1.006226e+17
6.93414e+16
4.835421e+16
3.006025e+16
2.710562e+16
4.647139e+16
6.739591e+16
9.628598e+16
1.24816e+17
1.534665e+17
1.837469e+17
2.13146e+17
2.406828e+17
2.659776e+17
2.892847e+17
3.103509e+17
3.282706e+17
3.426043e+17
3.53282e+17
3.60355e+17
3.638812e+17
3.638872e+17
3.603754e+17
3.533199e+17
3.426638e+17
3.283523e+17
3.104511e+17
2.89397e+17
2.660946e+17
2.407963e+17
2.132499e+17
1.838307e+17
1.53523e+17
1.248668e+17
9.632766e+16
6.743304e+16
4.65053e+16
2.712668e+16
3.885069e+16
6.305864e+16
8.529155e+16
1.181283e+17
1.470362e+17
1.761504e+17
2.048205e+17
2.31736e+17
2.565803e+17
2.791638e+17
2.997413e+17
3.17519e+17
3.318674e+17
3.426259e+17
3.497828e+17
3.533588e+17
3.533641e+17
3.49801e+17
3.426605e+17
3.319221e+17
3.175942e+17
2.998328e+17
2.792657e+17
2.56687e+17
2.3184e+17
2.049115e+17
1.762228e+17
1.470787e+17
1.181751e+17
8.532993e+16
6.310632e+16
3.886993e+16
3.520833e+16
5.621357e+16
7.870492e+16
1.101415e+17
1.386326e+17
1.658509e+17
1.935776e+17
2.198691e+17
2.441884e+17
2.661825e+17
2.860122e+17
3.033595e+17
3.175429e+17
3.283157e+17
3.355454e+17
3.391781e+17
3.391823e+17
3.3556e+17
3.283444e+17
3.175897e+17
3.03425e+17
2.860923e+17
2.662713e+17
2.442822e+17
2.199583e+17
1.93651e+17
1.659122e+17
1.38662e+17
1.10185e+17
7.87339e+16
5.623331e+16
3.521541e+16
3.174123e+16
5.055269e+16
7.121834e+16
9.980547e+16
1.270358e+17
1.537098e+17
1.799128e+17
2.05245e+17
2.288351e+17
2.503078e+17
2.693755e+17
2.860319e+17
2.997842e+17
3.104142e+17
3.176345e+17
3.21299e+17
3.213019e+17
3.176445e+17
3.10435e+17
2.998204e+17
2.860851e+17
2.69442e+17
2.503814e+17
2.289117e+17
2.053139e+17
1.799655e+17
1.537573e+17
1.270629e+17
9.984582e+16
7.122266e+16
5.054966e+16
3.173616e+16
2.614804e+16
4.381535e+16
6.369283e+16
8.390655e+16
1.121392e+17
1.391188e+17
1.638461e+17
1.879307e+17
2.107822e+17
2.317353e+17
2.503199e+17
2.662134e+17
2.792165e+17
2.893565e+17
2.963234e+17
2.999116e+17
2.999133e+17
2.963287e+17
2.893684e+17
2.792407e+17
2.66253e+17
2.50371e+17
2.317921e+17
2.108397e+17
1.879799e+17
1.638827e+17
1.39159e+17
1.121704e+17
8.394344e+16
6.366398e+16
4.381837e+16
2.614306e+16
3.317885e+16
5.196739e+16
7.258834e+16
9.145305e+16
1.218713e+17
1.468001e+17
1.689299e+17
1.905205e+17
2.107882e+17
2.288522e+17
2.442219e+17
2.566318e+17
2.660456e+17
2.723774e+17
2.756141e+17
2.756148e+17
2.72379e+17
2.660503e+17
2.566452e+17
2.442475e+17
2.288866e+17
2.10827e+17
1.905602e+17
1.689658e+17
1.468322e+17
1.218991e+17
9.148719e+16
7.259166e+16
5.196739e+16
3.317652e+16
2.633738e+16
4.27506e+16
5.925257e+16
7.880374e+16
1.04486e+17
1.277375e+17
1.494465e+17
1.689346e+17
1.879384e+17
2.052604e+17
2.198979e+17
2.317777e+17
2.407377e+17
2.465738e+17
2.493584e+17
2.493578e+17
2.465727e+17
2.407384e+17
2.317843e+17
2.199112e+17
2.052799e+17
1.879601e+17
1.689567e+17
1.494648e+17
1.277473e+17
1.044832e+17
7.879209e+16
5.924273e+16
4.2749e+16
2.634712e+16
2.927404e+16
4.685911e+16
6.584254e+16
8.332782e+16
1.070184e+17
1.277342e+17
1.468075e+17
1.638492e+17
1.799129e+17
1.935897e+17
2.048454e+17
2.131817e+17
2.185797e+17
2.21222e+17
2.212208e+17
2.185795e+17
2.131825e+17
2.048493e+17
1.935999e+17
1.799292e+17
1.638613e+17
1.46816e+17
1.27743e+17
1.070228e+17
8.33288e+16
6.581422e+16
4.684472e+16
2.927861e+16
3.118127e+16
5.000236e+16
6.844511e+16
8.3314e+16
1.044788e+17
1.218723e+17
1.391126e+17
1.536928e+17
1.658441e+17
1.7615e+17
1.837521e+17
1.886195e+17
1.909969e+17
1.909947e+17
1.886229e+17
1.837608e+17
1.761615e+17
1.658586e+17
1.537114e+17
1.391205e+17
1.218711e+17
1.044807e+17
8.331443e+16
6.843369e+16
4.999321e+16
3.117498e+16
3.220133e+16
4.999695e+16
6.584097e+16
7.879813e+16
9.147466e+16
1.121382e+17
1.270138e+17
1.38603e+17
1.47007e+17
1.534407e+17
1.576421e+17
1.597011e+17
1.596949e+17
1.57646e+17
1.534515e+17
1.470217e+17
1.386232e+17
1.270272e+17
1.12134e+17
9.144973e+16
7.879364e+16
6.583755e+16
4.999273e+16
3.219546e+16
3.116848e+16
4.683463e+16
5.925456e+16
7.258054e+16
8.388339e+16
9.978091e+16
1.101145e+17
1.181014e+17
1.247897e+17
1.289236e+17
1.308432e+17
1.308332e+17
1.28914e+17
1.247801e+17
1.180942e+17
1.101206e+17
9.979706e+16