/*--------------------------------*- C++ -*----------------------------------*\
  =========                 |
  \\      /  F ield         | OpenFOAM: The Open Source CFD Toolbox
   \\    /   O peration     | Website:  https://openfoam.org
    \\  /    A nd           | Version:  6
     \\/     M anipulation  |
\*---------------------------------------------------------------------------*/
FoamFile
{
    version     2.0;
    format      ascii;
    class       volScalarField;
    location    "49.8/region0/neutronTransport";
    object      precursor0.dnp;
}
// * * * * * * * * * * * * * * * * * * * * * * * * * * * * * * * * * * * * * //

dimensions      [0 -3 0 0 0 0 0];

internalField   nonuniform List<scalar> 
203709
(
1.569821e+16
1.697626e+16
1.749382e+16
1.67369e+16
1.326351e+16
1.437391e+16
1.65341e+16
1.720072e+16
1.746921e+16
1.778655e+16
1.807797e+16
1.655783e+16
1.384429e+16
1.413375e+16
1.459665e+16
1.508404e+16
1.606377e+16
1.71193e+16
1.761234e+16
1.686963e+16
1.711562e+16
1.688601e+16
1.639828e+16
1.488338e+16
1.757701e+16
1.691711e+16
1.795449e+16
1.791902e+16
1.777666e+16
1.766449e+16
1.72984e+16
1.630107e+16
1.687287e+16
1.847376e+16
1.743146e+16
1.686471e+16
1.657566e+16
1.582586e+16
1.948564e+16
1.914019e+16
1.933711e+16
1.906825e+16
1.884744e+16
1.883478e+16
1.866507e+16
1.828623e+16
1.791843e+16
1.684841e+16
1.610296e+16
1.66275e+16
1.531259e+16
1.485019e+16
1.834262e+16
1.887176e+16
1.765748e+16
1.704088e+16
1.716931e+16
1.808333e+16
1.830322e+16
1.807251e+16
1.754308e+16
1.70244e+16
1.646786e+16
1.57189e+16
1.502971e+16
1.422398e+16
1.513791e+16
1.40532e+16
1.825423e+16
1.84552e+16
1.619683e+16
1.246241e+16
1.385618e+16
1.752948e+16
1.853221e+16
1.881132e+16
1.843974e+16
1.762145e+16
1.674905e+16
1.587449e+16
1.528513e+16
1.473723e+16
1.442084e+16
1.449999e+16
1.757008e+16
1.766135e+16
1.809813e+16
1.709759e+16
1.566887e+16
1.614301e+16
1.746239e+16
1.840976e+16
1.860018e+16
1.842858e+16
1.793967e+16
1.733806e+16
1.653287e+16
1.588972e+16
1.527398e+16
1.481646e+16
1.450616e+16
1.484499e+16
1.742329e+16
1.750022e+16
1.784563e+16
1.778891e+16
1.793688e+16
1.855369e+16
1.873242e+16
1.883616e+16
1.856831e+16
1.822119e+16
1.755249e+16
1.699583e+16
1.626466e+16
1.572279e+16
1.522524e+16
1.479276e+16
1.465879e+16
1.469127e+16
1.742288e+16
1.747686e+16
1.770441e+16
1.789103e+16
1.811041e+16
1.842211e+16
1.84062e+16
1.841033e+16
1.804249e+16
1.75962e+16
1.692937e+16
1.634404e+16
1.567815e+16
1.521533e+16
1.483565e+16
1.452121e+16
1.45206e+16
1.464502e+16
1.782855e+16
1.750413e+16
1.765311e+16
1.783047e+16
1.79992e+16
1.815607e+16
1.808929e+16
1.783102e+16
1.741503e+16
1.684859e+16
1.616746e+16
1.553326e+16
1.498489e+16
1.460391e+16
1.433533e+16
1.413271e+16
1.437759e+16
1.46859e+16
1.739845e+16
1.751816e+16
1.767458e+16
1.774907e+16
1.768017e+16
1.745944e+16
1.700754e+16
1.639211e+16
1.5755e+16
1.515546e+16
1.462829e+16
1.423863e+16
1.400432e+16
1.386448e+16
1.381508e+16
1.422063e+16
1.707186e+16
1.708839e+16
1.711041e+16
1.702507e+16
1.679903e+16
1.640458e+16
1.586525e+16
1.527073e+16
1.467502e+16
1.417134e+16
1.379683e+16
1.358919e+16
1.352319e+16
1.346535e+16
1.367338e+16
1.437374e+16
1.65144e+16
1.644172e+16
1.609308e+16
1.561484e+16
1.506391e+16
1.44553e+16
1.395735e+16
1.349956e+16
1.32748e+16
1.314026e+16
1.315243e+16
1.326846e+16
1.328082e+16
1.370961e+16
1.485559e+16
1.504543e+16
1.451386e+16
1.398345e+16
1.351122e+16
1.313798e+16
1.29457e+16
1.277461e+16
1.277641e+16
1.283987e+16
1.302989e+16
1.328605e+16
1.334453e+16
1.381525e+16
1.271979e+16
1.251714e+16
1.26299e+16
1.24015e+16
1.239041e+16
1.242746e+16
1.246534e+16
1.264742e+16
1.288784e+16
1.314639e+16
1.332965e+16
1.304866e+16
1.161583e+16
1.166633e+16
1.226285e+16
1.241052e+16
1.257691e+16
1.27055e+16
1.293354e+16
1.261066e+16
1.163502e+16
1.210748e+16
1.23887e+16
1.203276e+16
1.636989e+16
1.665733e+16
1.693875e+16
1.745039e+16
1.807531e+16
1.854049e+16
1.875451e+16
1.882818e+16
1.887473e+16
1.778356e+16
1.587935e+16
1.610967e+16
1.671883e+16
1.682598e+16
1.703645e+16
1.748737e+16
1.80451e+16
1.84962e+16
1.876843e+16
1.88796e+16
1.898212e+16
1.873353e+16
1.803432e+16
1.628167e+16
1.545796e+16
1.652068e+16
1.633759e+16
1.664909e+16
1.677963e+16
1.695121e+16
1.735003e+16
1.782942e+16
1.820393e+16
1.855742e+16
1.876019e+16
1.899184e+16
1.885315e+16
1.856352e+16
1.79108e+16
1.632426e+16
1.503581e+16
1.644052e+16
1.670108e+16
1.599564e+16
1.624581e+16
1.675442e+16
1.675515e+16
1.739815e+16
1.815141e+16
1.856699e+16
1.893034e+16
1.850917e+16
1.873039e+16
1.87327e+16
1.865788e+16
1.812102e+16
1.754483e+16
1.701219e+16
1.52799e+16
1.626739e+16
1.647365e+16
1.609485e+16
1.565143e+16
1.588764e+16
1.725658e+16
1.739072e+16
1.744603e+16
1.794546e+16
1.831678e+16
1.890029e+16
1.909996e+16
1.933499e+16
1.849857e+16
1.848771e+16
1.818512e+16
1.775022e+16
1.7675e+16
1.752307e+16
1.604405e+16
1.656301e+16
1.64101e+16
1.605925e+16
1.625989e+16
1.610522e+16
1.628618e+16
1.686118e+16
1.69611e+16
1.693474e+16
1.775088e+16
1.815056e+16
1.800941e+16
1.824752e+16
1.882858e+16
1.910774e+16
1.877406e+16
1.82749e+16
1.78904e+16
1.762267e+16
1.762633e+16
1.77967e+16
1.62063e+16
1.672115e+16
1.644236e+16
1.647833e+16
1.684048e+16
1.664408e+16
1.736805e+16
1.763837e+16
1.783948e+16
1.786707e+16
1.810555e+16
1.76079e+16
1.80318e+16
1.891037e+16
1.838493e+16
1.807844e+16
1.769445e+16
1.740638e+16
1.718073e+16
1.684276e+16
1.638064e+16
1.651667e+16
1.666686e+16
1.723091e+16
1.69602e+16
1.680996e+16
1.699874e+16
1.775486e+16
1.75085e+16
1.772147e+16
1.754068e+16
1.73161e+16
1.731186e+16
1.733875e+16
1.72743e+16
1.757586e+16
1.714012e+16
1.742982e+16
1.841458e+16
1.754243e+16
1.669721e+16
1.558259e+16
1.492359e+16
1.438386e+16
1.431216e+16
1.407069e+16
1.683775e+16
1.738637e+16
1.699088e+16
1.712355e+16
1.710015e+16
1.756741e+16
1.664316e+16
1.631766e+16
1.579259e+16
1.591553e+16
1.598787e+16
1.582682e+16
1.557993e+16
1.545899e+16
1.52029e+16
1.49002e+16
1.432049e+16
1.355926e+16
1.436101e+16
1.328707e+16
1.343929e+16
1.326524e+16
1.318657e+16
1.361126e+16
1.693247e+16
1.730262e+16
1.720374e+16
1.70905e+16
1.68946e+16
1.70139e+16
1.469826e+16
1.294854e+16
1.315566e+16
1.527513e+16
1.590431e+16
1.600605e+16
1.567332e+16
1.512184e+16
1.448229e+16
1.391206e+16
1.356507e+16
1.325006e+16
1.312384e+16
1.320589e+16
1.34253e+16
1.319618e+16
1.317914e+16
1.378934e+16
1.702049e+16
1.729473e+16
1.73261e+16
1.689988e+16
1.709252e+16
1.695662e+16
1.500014e+16
1.325555e+16
1.337567e+16
1.467377e+16
1.55093e+16
1.576545e+16
1.562362e+16
1.526861e+16
1.481133e+16
1.431989e+16
1.387106e+16
1.350869e+16
1.338505e+16
1.345189e+16
1.352624e+16
1.330651e+16
1.320781e+16
1.387007e+16
1.705036e+16
1.728245e+16
1.739145e+16
1.695176e+16
1.707054e+16
1.699288e+16
1.600702e+16
1.53493e+16
1.550722e+16
1.574927e+16
1.582159e+16
1.570739e+16
1.540677e+16
1.496882e+16
1.448091e+16
1.402005e+16
1.364066e+16
1.336267e+16
1.318149e+16
1.324734e+16
1.337059e+16
1.332183e+16
1.328347e+16
1.384592e+16
1.697698e+16
1.72353e+16
1.736574e+16
1.70277e+16
1.702576e+16
1.695542e+16
1.648932e+16
1.614511e+16
1.604306e+16
1.599963e+16
1.587199e+16
1.559727e+16
1.516644e+16
1.463568e+16
1.409696e+16
1.363376e+16
1.32961e+16
1.309461e+16
1.299005e+16
1.311389e+16
1.327041e+16
1.328677e+16
1.330168e+16
1.37673e+16
1.674021e+16
1.70865e+16
1.723102e+16
1.707647e+16
1.69727e+16
1.691669e+16
1.66657e+16
1.644875e+16
1.628973e+16
1.609021e+16
1.578552e+16
1.534275e+16
1.478561e+16
1.419384e+16
1.36594e+16
1.325298e+16
1.300186e+16
1.289209e+16
1.286388e+16
1.314549e+16
1.315278e+16
1.325617e+16
1.331016e+16
1.372288e+16
1.639664e+16
1.682803e+16
1.703756e+16
1.709165e+16
1.699018e+16
1.684307e+16
1.666074e+16
1.645296e+16
1.621915e+16
1.588764e+16
1.542383e+16
1.484328e+16
1.421528e+16
1.364326e+16
1.32059e+16
1.294625e+16
1.284952e+16
1.284825e+16
1.292648e+16
1.326785e+16
1.322409e+16
1.334446e+16
1.336785e+16
1.372514e+16
1.587034e+16
1.637718e+16
1.664046e+16
1.67707e+16
1.67623e+16
1.671199e+16
1.655738e+16
1.63055e+16
1.592666e+16
1.540471e+16
1.477105e+16
1.410787e+16
1.35189e+16
1.309846e+16
1.286521e+16
1.282809e+16
1.290746e+16
1.298275e+16
1.32234e+16
1.33765e+16
1.336289e+16
1.339145e+16
1.343016e+16
1.377445e+16
1.47806e+16
1.559832e+16
1.591501e+16
1.624773e+16
1.613061e+16
1.627742e+16
1.602201e+16
1.559961e+16
1.505607e+16
1.441034e+16
1.376438e+16
1.321994e+16
1.286319e+16
1.274477e+16
1.277924e+16
1.298128e+16
1.31674e+16
1.325745e+16
1.356465e+16
1.352723e+16
1.352605e+16
1.343044e+16
1.358691e+16
1.398974e+16
1.484382e+16
1.517808e+16
1.539767e+16
1.551525e+16
1.507768e+16
1.488124e+16
1.426878e+16
1.368972e+16
1.316947e+16
1.278181e+16
1.256401e+16
1.256315e+16
1.278812e+16
1.301381e+16
1.339391e+16
1.355258e+16
1.375086e+16
1.392576e+16
1.361675e+16
1.354874e+16
1.334267e+16
1.346807e+16
1.317007e+16
1.39136e+16
1.389372e+16
1.368705e+16
1.329955e+16
1.294567e+16
1.263469e+16
1.254319e+16
1.23466e+16
1.232794e+16
1.244771e+16
1.273042e+16
1.319641e+16
1.341953e+16
1.397377e+16
1.396909e+16
1.407132e+16
1.380112e+16
1.364823e+16
1.355164e+16
1.340524e+16
1.35044e+16
1.180991e+16
1.251615e+16
1.229047e+16
1.22308e+16
1.204158e+16
1.201583e+16
1.210963e+16
1.222815e+16
1.249864e+16
1.275101e+16
1.313004e+16
1.374302e+16
1.37848e+16
1.425881e+16
1.386125e+16
1.366861e+16
1.381708e+16
1.371292e+16
1.353173e+16
1.282566e+16
1.086045e+16
1.179039e+16
1.189408e+16
1.174445e+16
1.192421e+16
1.198426e+16
1.2155e+16
1.253841e+16
1.302991e+16
1.339901e+16
1.39537e+16
1.363537e+16
1.388977e+16
1.39464e+16
1.371998e+16
1.391871e+16
1.358686e+16
1.272838e+16
1.04464e+16
1.177278e+16
1.159818e+16
1.193004e+16
1.205619e+16
1.230162e+16
1.254236e+16
1.292093e+16
1.322006e+16
1.360391e+16
1.372408e+16
1.40334e+16
1.40162e+16
1.361899e+16
1.372125e+16
1.28505e+16
1.074364e+16
1.113873e+16
1.202034e+16
1.21582e+16
1.236043e+16
1.265214e+16
1.305128e+16
1.340371e+16
1.367508e+16
1.379316e+16
1.394065e+16
1.386905e+16
1.336052e+16
1.325673e+16
1.091659e+16
1.183845e+16
1.207201e+16
1.233963e+16
1.268821e+16
1.301187e+16
1.328552e+16
1.346385e+16
1.364215e+16
1.339495e+16
1.79315e+16
1.753728e+16
1.802122e+16
1.860937e+16
1.90701e+16
1.927941e+16
1.936429e+16
1.988638e+16
1.746252e+16
1.690892e+16
1.703742e+16
1.708992e+16
1.732248e+16
1.778791e+16
1.834404e+16
1.878537e+16
1.900528e+16
1.912469e+16
1.920098e+16
1.885101e+16
1.862688e+16
1.800209e+16
1.724484e+16
1.675152e+16
1.676118e+16
1.695153e+16
1.689811e+16
1.714074e+16
1.758682e+16
1.8139e+16
1.856616e+16
1.877267e+16
1.889777e+16
1.900352e+16
1.886992e+16
1.850475e+16
1.797991e+16
1.588e+16
1.735647e+16
1.691898e+16
1.703295e+16
1.665468e+16
1.649508e+16
1.686706e+16
1.698172e+16
1.721428e+16
1.758705e+16
1.809515e+16
1.849663e+16
1.871807e+16
1.890757e+16
1.906508e+16
1.891049e+16
1.797679e+16
1.785273e+16
1.648231e+16
1.486451e+16
1.386148e+16
1.703331e+16
1.709687e+16
1.695061e+16
1.682927e+16
1.672783e+16
1.679346e+16
1.686572e+16
1.681884e+16
1.700362e+16
1.732255e+16
1.780297e+16
1.819174e+16
1.841618e+16
1.862065e+16
1.883905e+16
1.900843e+16
1.847027e+16
1.829902e+16
1.610889e+16
1.523589e+16
1.529023e+16
1.208205e+16
1.723538e+16
1.721935e+16
1.705449e+16
1.677408e+16
1.707767e+16
1.677999e+16
1.670715e+16
1.668565e+16
1.670933e+16
1.688539e+16
1.715271e+16
1.758868e+16
1.796875e+16
1.820722e+16
1.843307e+16
1.866457e+16
1.879434e+16
1.849577e+16
1.857833e+16
1.745135e+16
1.493216e+16
1.497488e+16
1.360256e+16
1.160056e+16
1.702909e+16
1.721615e+16
1.688057e+16
1.713861e+16
1.724128e+16
1.668026e+16
1.674971e+16
1.67228e+16
1.673129e+16
1.67909e+16
1.687389e+16
1.725676e+16
1.761991e+16
1.789245e+16
1.818804e+16
1.847537e+16
1.863712e+16
1.850133e+16
1.850586e+16
1.789702e+16
1.691486e+16
1.550403e+16
1.433615e+16
1.314122e+16
1.67715e+16
1.735987e+16
1.706838e+16
1.729626e+16
1.73533e+16
1.716238e+16
1.682849e+16
1.682418e+16
1.670469e+16
1.640008e+16
1.647521e+16
1.656759e+16
1.687138e+16
1.725676e+16
1.754692e+16
1.786651e+16
1.823839e+16
1.843447e+16
1.844852e+16
1.84649e+16
1.805771e+16
1.742825e+16
1.734656e+16
1.657921e+16
1.574398e+16
1.449581e+16
1.720459e+16
1.727844e+16
1.731648e+16
1.760203e+16
1.749162e+16
1.716673e+16
1.72393e+16
1.690921e+16
1.669401e+16
1.662895e+16
1.640775e+16
1.637072e+16
1.631488e+16
1.676465e+16
1.715339e+16
1.707254e+16
1.738082e+16
1.775537e+16
1.807207e+16
1.830089e+16
1.838981e+16
1.822566e+16
1.779655e+16
1.736132e+16
1.751122e+16
1.720011e+16
1.669862e+16
1.641778e+16
1.720459e+16
1.743559e+16
1.723751e+16
1.780274e+16
1.72771e+16
1.727768e+16
1.741128e+16
1.72445e+16
1.727094e+16
1.746897e+16
1.751612e+16
1.756802e+16
1.753961e+16
1.76948e+16
1.733023e+16
1.742173e+16
1.798953e+16
1.766668e+16
1.753611e+16
1.739351e+16
1.745822e+16
1.747658e+16
1.732228e+16
1.682925e+16
1.657744e+16
1.591008e+16
1.552595e+16
1.547025e+16
1.715467e+16
1.730949e+16
1.746422e+16
1.793029e+16
1.714664e+16
1.74873e+16
1.76451e+16
1.773009e+16
1.789679e+16
1.797454e+16
1.780318e+16
1.755189e+16
1.739574e+16
1.733174e+16
1.718859e+16
1.736617e+16
1.711807e+16
1.751587e+16
1.829217e+16
1.795334e+16
1.743976e+16
1.671493e+16
1.593791e+16
1.51492e+16
1.455066e+16
1.413784e+16
1.389363e+16
1.409359e+16
1.711251e+16
1.754257e+16
1.739784e+16
1.750374e+16
1.765921e+16
1.709313e+16
1.752144e+16
1.750775e+16
1.759821e+16
1.719375e+16
1.662734e+16
1.592421e+16
1.569693e+16
1.586036e+16
1.580049e+16
1.566561e+16
1.55862e+16
1.534979e+16
1.499149e+16
1.434858e+16
1.375803e+16
1.403682e+16
1.369764e+16
1.364908e+16
1.344998e+16
1.325171e+16
1.328374e+16
1.321595e+16
1.335028e+16
1.350089e+16
1.692379e+16
1.738011e+16
1.73531e+16
1.745153e+16
1.746802e+16
1.705236e+16
1.733303e+16
1.731926e+16
1.711208e+16
1.55854e+16
1.386989e+16
1.35023e+16
1.52434e+16
1.593715e+16
1.605963e+16
1.576953e+16
1.52601e+16
1.46516e+16
1.41134e+16
1.379222e+16
1.344257e+16
1.326072e+16
1.319474e+16
1.335873e+16
1.321132e+16
1.308394e+16
1.321518e+16
1.322871e+16
1.324514e+16
1.373141e+16
1.685013e+16
1.725006e+16
1.725595e+16
1.734616e+16
1.730043e+16
1.702086e+16
1.714938e+16
1.7284e+16
1.706951e+16
1.554141e+16
1.347797e+16
1.321545e+16
1.479387e+16
1.57824e+16
1.610321e+16
1.600086e+16
1.566724e+16
1.520857e+16
1.470779e+16
1.423647e+16
1.382848e+16
1.356166e+16
1.338342e+16
1.340616e+16
1.329596e+16
1.313701e+16
1.3263e+16
1.335892e+16
1.347006e+16
1.408447e+16
1.666975e+16
1.705572e+16
1.710984e+16
1.720399e+16
1.713709e+16
1.696214e+16
1.70306e+16
1.717518e+16
1.71466e+16
1.636754e+16
1.555613e+16
1.578392e+16
1.616559e+16
1.63573e+16
1.63083e+16
1.604088e+16
1.560831e+16
1.510586e+16
1.460728e+16
1.418012e+16
1.383714e+16
1.357385e+16
1.345691e+16
1.343458e+16
1.338409e+16
1.32495e+16
1.338398e+16
1.348922e+16
1.364743e+16
1.429745e+16
1.633496e+16
1.675195e+16
1.687225e+16
1.700499e+16
1.695759e+16
1.685889e+16
1.69163e+16
1.704026e+16
1.711137e+16
1.687125e+16
1.666621e+16
1.671826e+16
1.675614e+16
1.665087e+16
1.637075e+16
1.593805e+16
1.540346e+16
1.485627e+16
1.436567e+16
1.398409e+16
1.371233e+16
1.352647e+16
1.346885e+16
1.348738e+16
1.34684e+16
1.33548e+16
1.351451e+16
1.358452e+16
1.37942e+16
1.435712e+16
1.596579e+16
1.636174e+16
1.652043e+16
1.6711e+16
1.671453e+16
1.66821e+16
1.674465e+16
1.686498e+16
1.695925e+16
1.693488e+16
1.691979e+16
1.689785e+16
1.676231e+16
1.647147e+16
1.603418e+16
1.549378e+16
1.492216e+16
1.440405e+16
1.400012e+16
1.373241e+16
1.35723e+16
1.348342e+16
1.352499e+16
1.358186e+16
1.356832e+16
1.345501e+16
1.363763e+16
1.365453e+16
1.389272e+16
1.435189e+16
1.558137e+16
1.5921e+16
1.60938e+16
1.633991e+16
1.63919e+16
1.641651e+16
1.647235e+16
1.658449e+16
1.666658e+16
1.669037e+16
1.665925e+16
1.65356e+16
1.626596e+16
1.58415e+16
1.530534e+16
1.473834e+16
1.422971e+16
1.384583e+16
1.361873e+16
1.352788e+16
1.349956e+16
1.350935e+16
1.361418e+16
1.365527e+16
1.365676e+16
1.354579e+16
1.375952e+16
1.371822e+16
1.399066e+16
1.434057e+16
1.495083e+16
1.525347e+16
1.548867e+16
1.577079e+16
1.587978e+16
1.598776e+16
1.607148e+16
1.616725e+16
1.623426e+16
1.625029e+16
1.609772e+16
1.5803e+16
1.537205e+16
1.484924e+16
1.431409e+16
1.385109e+16
1.353195e+16
1.338019e+16
1.338576e+16
1.347628e+16
1.353906e+16
1.36332e+16
1.37554e+16
1.379906e+16
1.373421e+16
1.36516e+16
1.389724e+16
1.377767e+16
1.419861e+16
1.429736e+16
1.46587e+16
1.490765e+16
1.529896e+16
1.540716e+16
1.542868e+16
1.546976e+16
1.548476e+16
1.551111e+16
1.532707e+16
1.498637e+16
1.455248e+16
1.408398e+16
1.364439e+16
1.33017e+16
1.310187e+16
1.307459e+16
1.318537e+16
1.339447e+16
1.357995e+16
1.364348e+16
1.376006e+16
1.380859e+16
1.387657e+16
1.375976e+16
1.391646e+16
1.406994e+16
1.390108e+16
1.423283e+16
1.434335e+16
1.444518e+16
1.421156e+16
1.460115e+16
1.461166e+16
1.465685e+16
1.461303e+16
1.436217e+16
1.39961e+16
1.357428e+16
1.320068e+16
1.290905e+16
1.273901e+16
1.270105e+16
1.279739e+16
1.301642e+16
1.328871e+16
1.357987e+16
1.373199e+16
1.376774e+16
1.384349e+16
1.387382e+16
1.390285e+16
1.378175e+16
1.407526e+16
1.396288e+16
1.413783e+16
1.452595e+16
1.375405e+16
1.393574e+16
1.37044e+16
1.369573e+16
1.377922e+16
1.353381e+16
1.328347e+16
1.29842e+16
1.270375e+16
1.250518e+16
1.240786e+16
1.238066e+16
1.24549e+16
1.262747e+16
1.2896e+16
1.321385e+16
1.351382e+16
1.379349e+16
1.385838e+16
1.385438e+16
1.378877e+16
1.384325e+16
1.39009e+16
1.404843e+16
1.429585e+16
1.411581e+16
1.450147e+16
1.445687e+16
1.260649e+16
1.318228e+16
1.287271e+16
1.28485e+16
1.278531e+16
1.254391e+16
1.24517e+16
1.238863e+16
1.236826e+16
1.237581e+16
1.247046e+16
1.260899e+16
1.283537e+16
1.314718e+16
1.346242e+16
1.375525e+16
1.397763e+16
1.396767e+16
1.391933e+16
1.37501e+16
1.382667e+16
1.401989e+16
1.398418e+16
1.384621e+16
1.446457e+16
1.427494e+16
1.232312e+16
1.249365e+16
1.228594e+16
1.23379e+16
1.244419e+16
1.241925e+16
1.23996e+16
1.246693e+16
1.257116e+16
1.270602e+16
1.281963e+16
1.310427e+16
1.343559e+16
1.372468e+16
1.400184e+16
1.416577e+16
1.40293e+16
1.39215e+16
1.369812e+16
1.39258e+16
1.388053e+16
1.35071e+16
1.403621e+16
1.44804e+16
1.183585e+16
1.229227e+16
1.231062e+16
1.19468e+16
1.222052e+16
1.248363e+16
1.238722e+16
1.25052e+16
1.265184e+16
1.282878e+16
1.303924e+16
1.338582e+16
1.373036e+16
1.398972e+16
1.412894e+16
1.418889e+16
1.403085e+16
1.389752e+16
1.375141e+16
1.383919e+16
1.347241e+16
1.369064e+16
1.420841e+16
1.444663e+16
1.116204e+16
1.207807e+16
1.19451e+16
1.189014e+16
1.229319e+16
1.239777e+16
1.260081e+16
1.268727e+16
1.285367e+16
1.308199e+16
1.346173e+16
1.379243e+16
1.401144e+16
1.411431e+16
1.415576e+16
1.411833e+16
1.393393e+16
1.372853e+16
1.360842e+16
1.361656e+16
1.377207e+16
1.413606e+16
1.119728e+16
1.146747e+16
1.191034e+16
1.201319e+16
1.187166e+16
1.240589e+16
1.270298e+16
1.289605e+16
1.315467e+16
1.353939e+16
1.38476e+16
1.40409e+16
1.414049e+16
1.41851e+16
1.406055e+16
1.369363e+16
1.363911e+16
1.378217e+16
1.372408e+16
1.412772e+16
1.118425e+16
1.20339e+16
1.205019e+16
1.22111e+16
1.231082e+16
1.251936e+16
1.278242e+16
1.313756e+16
1.345362e+16
1.367824e+16
1.38194e+16
1.396173e+16
1.402622e+16
1.38965e+16
1.373338e+16
1.429856e+16
1.166259e+16
1.200776e+16
1.211696e+16
1.24215e+16
1.264682e+16
1.290024e+16
1.327086e+16
1.358527e+16
1.378859e+16
1.389898e+16
1.401502e+16
1.410618e+16
1.407863e+16
1.461038e+16
1.256308e+16
1.262656e+16
1.283914e+16
1.320223e+16
1.352416e+16
1.377511e+16
1.395375e+16
1.474053e+16
1.899559e+16
1.804334e+16
1.864156e+16
1.920324e+16
1.957584e+16
2.111567e+16
1.823952e+16
1.736594e+16
1.728837e+16
1.727977e+16
1.735829e+16
1.754405e+16
1.812852e+16
1.862734e+16
1.886091e+16
1.908698e+16
1.955523e+16
1.961025e+16
1.969244e+16
1.998127e+16
1.832126e+16
1.727796e+16
1.686256e+16
1.683489e+16
1.687789e+16
1.674451e+16
1.703716e+16
1.72144e+16
1.77542e+16
1.820762e+16
1.845821e+16
1.877011e+16
1.899443e+16
1.898151e+16
1.896878e+16
1.870703e+16
1.850448e+16
1.851129e+16
1.818883e+16
1.732722e+16
1.694941e+16
1.64862e+16
1.650619e+16
1.667237e+16
1.656972e+16
1.686178e+16
1.708722e+16
1.761162e+16
1.802266e+16
1.82583e+16
1.850967e+16
1.877376e+16
1.877519e+16
1.863296e+16
1.829497e+16
1.767846e+16
1.71661e+16
1.702761e+16
1.790165e+16
1.727367e+16
1.694394e+16
1.671467e+16
1.638299e+16
1.628798e+16
1.646416e+16
1.636872e+16
1.67149e+16
1.697742e+16
1.750426e+16
1.787267e+16
1.806789e+16
1.825707e+16
1.840815e+16
1.837026e+16
1.81844e+16
1.792289e+16
1.707553e+16
1.602888e+16
1.534139e+16
1.448778e+16
1.773227e+16
1.723966e+16
1.690775e+16
1.681333e+16
1.659738e+16
1.621993e+16
1.611502e+16
1.625669e+16
1.618636e+16
1.655675e+16
1.68737e+16
1.743198e+16
1.778006e+16
1.792549e+16
1.803683e+16
1.806977e+16
1.796957e+16
1.776375e+16
1.735106e+16
1.682956e+16
1.607913e+16
1.530727e+16
1.474215e+16
1.409113e+16
1.779737e+16
1.728695e+16
1.711622e+16
1.684196e+16
1.660284e+16
1.636917e+16
1.602264e+16
1.5933e+16
1.606575e+16
1.605066e+16
1.641677e+16
1.677502e+16
1.735624e+16
1.771831e+16
1.784705e+16
1.790905e+16
1.787187e+16
1.762845e+16
1.737995e+16
1.692713e+16
1.652967e+16
1.616133e+16
1.607295e+16
1.573635e+16
1.524839e+16
1.500962e+16
1.775325e+16
1.732784e+16
1.731534e+16
1.710412e+16
1.667659e+16
1.643094e+16
1.611835e+16
1.581298e+16
1.574593e+16
1.585011e+16
1.589005e+16
1.623299e+16
1.661716e+16
1.720708e+16
1.761091e+16
1.776745e+16
1.783059e+16
1.781154e+16
1.749967e+16
1.723271e+16
1.665702e+16
1.644025e+16
1.62485e+16
1.637639e+16
1.657427e+16
1.586039e+16
1.61254e+16
1.559499e+16
1.789846e+16
1.763481e+16
1.729878e+16
1.725267e+16
1.695058e+16
1.653871e+16
1.61481e+16
1.581984e+16
1.558836e+16
1.558306e+16
1.569392e+16
1.578853e+16
1.607402e+16
1.643487e+16
1.701846e+16
1.746936e+16
1.767647e+16
1.774811e+16
1.778209e+16
1.757857e+16
1.73774e+16
1.693981e+16
1.655374e+16
1.650868e+16
1.644079e+16
1.54933e+16
1.414437e+16
1.608392e+16
1.590545e+16
1.489729e+16
1.758471e+16
1.745379e+16
1.735737e+16
1.731574e+16
1.680463e+16
1.62995e+16
1.584772e+16
1.561428e+16
1.555478e+16
1.556492e+16
1.565641e+16
1.571748e+16
1.599758e+16
1.631435e+16
1.680578e+16
1.729482e+16
1.757686e+16
1.773049e+16
1.781705e+16
1.770012e+16
1.758722e+16
1.737555e+16
1.708537e+16
1.681356e+16
1.696173e+16
1.66789e+16
1.640164e+16
1.579001e+16
1.667778e+16
1.497746e+16
1.772584e+16
1.744198e+16
1.753764e+16
1.743111e+16
1.712715e+16
1.658919e+16
1.610948e+16
1.575986e+16
1.569505e+16
1.573757e+16
1.572263e+16
1.582102e+16
1.58189e+16
1.592584e+16
1.607359e+16
1.658888e+16
1.704326e+16
1.710989e+16
1.736318e+16
1.757416e+16
1.769762e+16
1.77683e+16
1.772473e+16
1.760871e+16
1.743548e+16
1.720588e+16
1.722888e+16
1.72347e+16
1.69939e+16
1.709849e+16
1.612934e+16
1.621049e+16
1.753327e+16
1.745173e+16
1.753001e+16
1.729721e+16
1.701717e+16
1.644402e+16
1.610316e+16
1.594393e+16
1.605585e+16
1.628221e+16
1.647107e+16
1.669449e+16
1.683138e+16
1.697377e+16
1.709308e+16
1.73529e+16
1.720802e+16
1.733593e+16
1.773605e+16
1.746471e+16
1.731949e+16
1.717596e+16
1.714719e+16
1.712194e+16
1.704927e+16
1.677125e+16
1.646354e+16
1.613785e+16
1.574133e+16
1.554392e+16
1.52759e+16
1.537484e+16
1.783536e+16
1.762017e+16
1.764534e+16
1.726588e+16
1.688904e+16
1.644969e+16
1.62367e+16
1.622647e+16
1.655402e+16
1.700749e+16
1.735278e+16
1.759259e+16
1.762563e+16
1.751223e+16
1.729788e+16
1.719078e+16
1.703148e+16
1.715349e+16
1.697e+16
1.737794e+16
1.800023e+16
1.78151e+16
1.739417e+16
1.671746e+16
1.598202e+16
1.528775e+16
1.47164e+16
1.438339e+16
1.408277e+16
1.418854e+16
1.387931e+16
1.419502e+16
1.731026e+16
1.753319e+16
1.754875e+16
1.719523e+16
1.684393e+16
1.646273e+16
1.628816e+16
1.64007e+16
1.675021e+16
1.713829e+16
1.699575e+16
1.655273e+16
1.58762e+16
1.553355e+16
1.570942e+16
1.568809e+16
1.559054e+16
1.550697e+16
1.52684e+16
1.488939e+16
1.424699e+16
1.376892e+16
1.387744e+16
1.362914e+16
1.355572e+16
1.345503e+16
1.336531e+16
1.339161e+16
1.332448e+16
1.340612e+16
1.317467e+16
1.355757e+16
1.784768e+16
1.72356e+16
1.748878e+16
1.735867e+16
1.712437e+16
1.683862e+16
1.651694e+16
1.631834e+16
1.63674e+16
1.670461e+16
1.685694e+16
1.583314e+16
1.454055e+16
1.402983e+16
1.513034e+16
1.585737e+16
1.594232e+16
1.566643e+16
1.518666e+16
1.461219e+16
1.41095e+16
1.380807e+16
1.347174e+16
1.329088e+16
1.320129e+16
1.328604e+16
1.326725e+16
1.325471e+16
1.335766e+16
1.342515e+16
1.344705e+16
1.361303e+16
1.393281e+16
1.397212e+16
1.733628e+16
1.702416e+16
1.725226e+16
1.713686e+16
1.69966e+16
1.681578e+16
1.658701e+16
1.639782e+16
1.635294e+16
1.664496e+16
1.671583e+16
1.562415e+16
1.368997e+16
1.2774e+16
1.45951e+16
1.56798e+16
1.602082e+16
1.593148e+16
1.56106e+16
1.516323e+16
1.46818e+16
1.423092e+16
1.384941e+16
1.358894e+16
1.341432e+16
1.337247e+16
1.334041e+16
1.331675e+16
1.342008e+16
1.350172e+16
1.348117e+16
1.393723e+16
1.392183e+16
1.431062e+16
1.696648e+16
1.673184e+16
1.692633e+16
1.683588e+16
1.678123e+16
1.672665e+16
1.662025e+16
1.65045e+16
1.642121e+16
1.659709e+16
1.668561e+16
1.610364e+16
1.519878e+16
1.53276e+16
1.580221e+16
1.611643e+16
1.615397e+16
1.592972e+16
1.551878e+16
1.502633e+16
1.454599e+16
1.414334e+16
1.383005e+16
1.359969e+16
1.347217e+16
1.341825e+16
1.339661e+16
1.338026e+16
1.349572e+16
1.360906e+16
1.362404e+16
1.417656e+16
1.428436e+16
1.49748e+16
1.670612e+16
1.641392e+16
1.655996e+16
1.648152e+16
1.647576e+16
1.653237e+16
1.656031e+16
1.656006e+16
1.651496e+16
1.659137e+16
1.666944e+16
1.645643e+16
1.618646e+16
1.628197e+16
1.643525e+16
1.642585e+16
1.620465e+16
1.579281e+16
1.526185e+16
1.4715e+16
1.424044e+16
1.388759e+16
1.365292e+16
1.350758e+16
1.344475e+16
1.342697e+16
1.341812e+16
1.341033e+16
1.35516e+16
1.370741e+16
1.381531e+16
1.438286e+16
1.465902e+16
1.539382e+16
1.648736e+16
1.607572e+16
1.617842e+16
1.61005e+16
1.609717e+16
1.621284e+16
1.635631e+16
1.648316e+16
1.652871e+16
1.660592e+16
1.666995e+16
1.661085e+16
1.65601e+16
1.658102e+16
1.65298e+16
1.629735e+16
1.587547e+16
1.53188e+16
1.47239e+16
1.419473e+16
1.380382e+16
1.356822e+16
1.345121e+16
1.340487e+16
1.341179e+16
1.34211e+16
1.341527e+16
1.341485e+16
1.360238e+16
1.379714e+16
1.401101e+16
1.453557e+16
1.494143e+16
1.526634e+16
1.681727e+16
1.557125e+16
1.569205e+16
1.562143e+16
1.563774e+16
1.578031e+16
1.599786e+16
1.622724e+16
1.638947e+16
1.650865e+16
1.658435e+16
1.657949e+16
1.656467e+16
1.647161e+16
1.621219e+16
1.576029e+16
1.516752e+16
1.453668e+16
1.398118e+16
1.358266e+16
1.337167e+16
1.331183e+16
1.332493e+16
1.33593e+16
1.339321e+16
1.338751e+16
1.337171e+16
1.339639e+16
1.367371e+16
1.391444e+16
1.427444e+16
1.468816e+16
1.524503e+16
1.472382e+16
1.538541e+16
1.527953e+16
1.524428e+16
1.512639e+16
1.517829e+16
1.540356e+16
1.570313e+16
1.596667e+16
1.615252e+16
1.627143e+16
1.634401e+16
1.621769e+16
1.588796e+16
1.537629e+16
1.474875e+16
1.411126e+16
1.357556e+16
1.322383e+16
1.307757e+16
1.310819e+16
1.321814e+16
1.331005e+16
1.336702e+16
1.336036e+16
1.332871e+16
1.327396e+16
1.337174e+16
1.379523e+16
1.410103e+16
1.475348e+16
1.489166e+16
1.515563e+16
1.529697e+16
1.477204e+16
1.471869e+16
1.455905e+16
1.447976e+16
1.459811e+16
1.482333e+16
1.508917e+16
1.529781e+16
1.546592e+16
1.535546e+16
1.499299e+16
1.4489e+16
1.392533e+16
1.33927e+16
1.29804e+16
1.275191e+16
1.272791e+16
1.286349e+16
1.309208e+16
1.326832e+16
1.333974e+16
1.334258e+16
1.323411e+16
1.318404e+16
1.310455e+16
1.339158e+16
1.397367e+16
1.438238e+16
1.506528e+16
1.517514e+16
1.577243e+16
1.537961e+16
1.453885e+16
1.435097e+16
1.407891e+16
1.387468e+16
1.380178e+16
1.386719e+16
1.401022e+16
1.408112e+16
1.391907e+16
1.361635e+16
1.324515e+16
1.28779e+16
1.256518e+16
1.235789e+16
1.229614e+16
1.239681e+16
1.263737e+16
1.293469e+16
1.322572e+16
1.332834e+16
1.332067e+16
1.322481e+16
1.304252e+16
1.298741e+16
1.292391e+16
1.345924e+16
1.41206e+16
1.475749e+16
1.543489e+16
1.558227e+16
1.614564e+16
1.54756e+16
1.433184e+16
1.406758e+16
1.391214e+16
1.356509e+16
1.330194e+16
1.309982e+16
1.292924e+16
1.275911e+16
1.25418e+16
1.232617e+16
1.214659e+16
1.200971e+16
1.194547e+16
1.198323e+16
1.214268e+16
1.242038e+16
1.276727e+16
1.308113e+16
1.332754e+16
1.328653e+16
1.321086e+16
1.302063e+16
1.281588e+16
1.281196e+16
1.2864e+16
1.356624e+16
1.43634e+16
1.526593e+16
1.574073e+16
1.605717e+16
1.635707e+16
1.434158e+16
1.377471e+16
1.354421e+16
1.342753e+16
1.311006e+16
1.279495e+16
1.256617e+16
1.235265e+16
1.213416e+16
1.194063e+16
1.182662e+16
1.175115e+16
1.180717e+16
1.194057e+16
1.218791e+16
1.252495e+16
1.288118e+16
1.314885e+16
1.331554e+16
1.315737e+16
1.307486e+16
1.286167e+16
1.268205e+16
1.280156e+16
1.297021e+16
1.367321e+16
1.462501e+16
1.53044e+16
1.570097e+16
1.640466e+16
1.401844e+16
1.373206e+16
1.31008e+16
1.318985e+16
1.300859e+16
1.278307e+16
1.256558e+16
1.226553e+16
1.191218e+16
1.17231e+16
1.16834e+16
1.165455e+16
1.179665e+16
1.194566e+16
1.223829e+16
1.258188e+16
1.291192e+16
1.313939e+16
1.324825e+16
1.306715e+16
1.300989e+16
1.281777e+16
1.275862e+16
1.30066e+16
1.313822e+16
1.383527e+16
1.460677e+16
1.531354e+16
1.61791e+16
1.675532e+16
1.340426e+16
1.300672e+16
1.304958e+16
1.303293e+16
1.26582e+16
1.25491e+16
1.216024e+16
1.176503e+16
1.162095e+16
1.16359e+16
1.161561e+16
1.1835e+16
1.198369e+16
1.23031e+16
1.263729e+16
1.29329e+16
1.314532e+16
1.322689e+16
1.310337e+16
1.305745e+16
1.294573e+16
1.296918e+16
1.316987e+16
1.325767e+16
1.396419e+16
1.461378e+16
1.562798e+16
1.600407e+16
1.256357e+16
1.266621e+16
1.280904e+16
1.257079e+16
1.246748e+16
1.214089e+16
1.179199e+16
1.173701e+16
1.174248e+16
1.167684e+16
1.195097e+16
1.209557e+16
1.244617e+16
1.277478e+16
1.304428e+16
1.324353e+16
1.332722e+16
1.32786e+16
1.319866e+16
1.312635e+16
1.312704e+16
1.328533e+16
1.334756e+16
1.395544e+16
1.472422e+16
1.557086e+16
1.215444e+16
1.241258e+16
1.24308e+16
1.24731e+16
1.218093e+16
1.192678e+16
1.190242e+16
1.191155e+16
1.18468e+16
1.215279e+16
1.229626e+16
1.265329e+16
1.296262e+16
1.322048e+16
1.341169e+16
1.348795e+16
1.347692e+16
1.336733e+16
1.329421e+16
1.3281e+16
1.340253e+16
1.34193e+16
1.412147e+16
1.502697e+16
1.200571e+16
1.226714e+16
1.204122e+16
1.20786e+16
1.201444e+16
1.197933e+16
1.21046e+16
1.206156e+16
1.235419e+16
1.249517e+16
1.283873e+16
1.314214e+16
1.339204e+16
1.357934e+16
1.367448e+16