/*--------------------------------*- C++ -*----------------------------------*\
  =========                 |
  \\      /  F ield         | OpenFOAM: The Open Source CFD Toolbox
   \\    /   O peration     | Website:  https://openfoam.org
    \\  /    A nd           | Version:  6
     \\/     M anipulation  |
\*---------------------------------------------------------------------------*/
FoamFile
{
    version     2.0;
    format      ascii;
    class       volScalarField;
    location    "49.8/region0/neutronTransport";
    object      precursor3.dnp;
}
// * * * * * * * * * * * * * * * * * * * * * * * * * * * * * * * * * * * * * //

dimensions      [0 -3 0 0 0 0 0];

internalField   nonuniform List<scalar> 
203709
(
8.660564e+14
8.939762e+14
8.739531e+14
7.902705e+14
6.929673e+14
7.595311e+14
8.770332e+14
8.713766e+14
8.433613e+14
8.171731e+14
7.966952e+14
6.928935e+14
6.235722e+14
6.600388e+14
6.87338e+14
7.197198e+14
7.81821e+14
8.044795e+14
7.977881e+14
7.36522e+14
7.176699e+14
6.75972e+14
6.32247e+14
5.521721e+14
6.601068e+14
6.535946e+14
6.815037e+14
6.775438e+14
6.743894e+14
6.883647e+14
6.94243e+14
6.704118e+14
6.816799e+14
7.145064e+14
6.482668e+14
6.04725e+14
5.774679e+14
5.315873e+14
6.483768e+14
6.2453e+14
6.14332e+14
6.00456e+14
6.035113e+14
6.179235e+14
6.26931e+14
6.287101e+14
6.322322e+14
6.008038e+14
5.759899e+14
5.940611e+14
5.626323e+14
5.469502e+14
6.532604e+14
5.925004e+14
5.46691e+14
5.26063e+14
5.393842e+14
5.826822e+14
6.089307e+14
6.207372e+14
6.224673e+14
6.239672e+14
6.230814e+14
6.137427e+14
6.047016e+14
5.898876e+14
6.396395e+14
6.126921e+14
6.7258e+14
5.847192e+14
4.891141e+14
3.87326e+14
4.382255e+14
5.647855e+14
6.197471e+14
6.51188e+14
6.621394e+14
6.589392e+14
6.536347e+14
6.464249e+14
6.473312e+14
6.469239e+14
6.5319e+14
6.649483e+14
7.598021e+14
7.179006e+14
6.3879e+14
5.533107e+14
4.951276e+14
5.180744e+14
5.791925e+14
6.31707e+14
6.599141e+14
6.782559e+14
6.890334e+14
6.982394e+14
6.993716e+14
7.045306e+14
7.064766e+14
7.098512e+14
7.130539e+14
7.353106e+14
7.514265e+14
7.292344e+14
6.864934e+14
6.38715e+14
6.240757e+14
6.462834e+14
6.621226e+14
6.800302e+14
6.889219e+14
7.003926e+14
7.057676e+14
7.196327e+14
7.270256e+14
7.399221e+14
7.495311e+14
7.5504e+14
7.665741e+14
7.62636e+14
7.561974e+14
7.40782e+14
7.183408e+14
6.957889e+14
6.905844e+14
6.969726e+14
6.9796e+14
7.062912e+14
7.087222e+14
7.173195e+14
7.255961e+14
7.422151e+14
7.557312e+14
7.747039e+14
7.904983e+14
8.002039e+14
8.1582e+14
8.109396e+14
7.737789e+14
7.558774e+14
7.421053e+14
7.289887e+14
7.23321e+14
7.242259e+14
7.235178e+14
7.239252e+14
7.288192e+14
7.386864e+14
7.52295e+14
7.719465e+14
7.938633e+14
8.180606e+14
8.383829e+14
8.503925e+14
8.759625e+14
8.636667e+14
7.788506e+14
7.676921e+14
7.581963e+14
7.502851e+14
7.437615e+14
7.404119e+14
7.394482e+14
7.44772e+14
7.604144e+14
7.845531e+14
8.126684e+14
8.426537e+14
8.731462e+14
8.968666e+14
9.123358e+14
9.372472e+14
7.804619e+14
7.823995e+14
7.733072e+14
7.620166e+14
7.532871e+14
7.511123e+14
7.580607e+14
7.764421e+14
8.027108e+14
8.351252e+14
8.698842e+14
9.057153e+14
9.413952e+14
9.632154e+14
9.896026e+14
1.010885e+15
7.87377e+14
7.811768e+14
7.685949e+14
7.644953e+14
7.722342e+14
7.912804e+14
8.243765e+14
8.596206e+14
9.028588e+14
9.432933e+14
9.833868e+14
1.0254e+15
1.043116e+15
1.072126e+15
7.560952e+14
7.742816e+14
7.756432e+14
7.941095e+14
8.215925e+14
8.61277e+14
9.086527e+14
9.494282e+14
9.923707e+14
1.033841e+15
1.076591e+15
1.128879e+15
1.139288e+15
1.144957e+15
8.069555e+14
8.085806e+14
8.8042e+14
9.162163e+14
9.714471e+14
1.016228e+15
1.051564e+15
1.091721e+15
1.140617e+15
1.184596e+15
1.242033e+15
1.199512e+15
9.775935e+14
9.947208e+14
1.094129e+15
1.127658e+15
1.160726e+15
1.187844e+15
1.238196e+15
1.20811e+15
1.126678e+15
1.177402e+15
1.219932e+15
1.186585e+15
1.128077e+15
1.131771e+15
1.086614e+15
1.05418e+15
1.019258e+15
9.733541e+14
9.24553e+14
8.851156e+14
8.61317e+14
7.877833e+14
1.000299e+15
1.069041e+15
1.119857e+15
1.102047e+15
1.061791e+15
1.033111e+15
1.001646e+15
9.592679e+14
9.127032e+14
8.704665e+14
8.424821e+14
8.098112e+14
7.654459e+14
6.691554e+14
9.057346e+14
1.00465e+15
1.025414e+15
1.057566e+15
1.051707e+15
1.023352e+15
1.004151e+15
9.79382e+14
9.399812e+14
8.968728e+14
8.534364e+14
8.221812e+14
7.86155e+14
7.51542e+14
7.036369e+14
6.115667e+14
8.140294e+14
9.226333e+14
9.548916e+14
9.409907e+14
9.719281e+14
1.001545e+15
9.863531e+14
9.954333e+14
9.938139e+14
9.611537e+14
9.159315e+14
8.364236e+14
8.010995e+14
7.619337e+14
7.282154e+14
6.806716e+14
6.290885e+14
5.81835e+14
7.717988e+14
8.423286e+14
8.673304e+14
8.62137e+14
8.643466e+14
9.035776e+14
9.804057e+14
9.908815e+14
9.815028e+14
9.780575e+14
9.510035e+14
9.169449e+14
8.767958e+14
8.334213e+14
7.518858e+14
7.144998e+14
6.710612e+14
6.252144e+14
5.936864e+14
5.650833e+14
7.72221e+14
8.031725e+14
8.036041e+14
8.043255e+14
8.365176e+14
8.524534e+14
8.848629e+14
9.203499e+14
9.40996e+14
9.39427e+14
9.568273e+14
9.421842e+14
8.884336e+14
8.56119e+14
8.256477e+14
8.00501e+14
7.448544e+14
6.875967e+14
6.411771e+14
6.028637e+14
5.757714e+14
5.601602e+14
7.403436e+14
7.711835e+14
7.714202e+14
7.892407e+14
8.133762e+14
8.246985e+14
8.775083e+14
8.950144e+14
9.136287e+14
9.191404e+14
9.316575e+14
8.982451e+14
8.813852e+14
8.847394e+14
8.205134e+14
7.730192e+14
7.09787e+14
6.654056e+14
6.389665e+14
6.196135e+14
6.031889e+14
5.83643e+14
7.811832e+14
7.752249e+14
7.517003e+14
7.560056e+14
7.705802e+14
7.849308e+14
8.111501e+14
8.255311e+14
8.157871e+14
8.105056e+14
8.224435e+14
8.363493e+14
8.43407e+14
8.57126e+14
8.267365e+14
8.109648e+14
8.318262e+14
7.841756e+14
7.345405e+14
7.204206e+14
7.016551e+14
6.836612e+14
6.763452e+14
6.661401e+14
7.72988e+14
7.628099e+14
7.334869e+14
7.527621e+14
7.569743e+14
7.774962e+14
7.62497e+14
7.539871e+14
7.359364e+14
7.509848e+14
7.714066e+14
7.876642e+14
8.047122e+14
8.294735e+14
8.455006e+14
8.544562e+14
8.402163e+14
8.05666e+14
7.910287e+14
7.236413e+14
7.332123e+14
7.243456e+14
7.150371e+14
7.169366e+14
7.711135e+14
7.518409e+14
7.358157e+14
7.511206e+14
7.51335e+14
7.616027e+14
6.914223e+14
6.246534e+14
6.334301e+14
7.208114e+14
7.611128e+14
7.866954e+14
8.006946e+14
8.096919e+14
8.156288e+14
8.223608e+14
8.334651e+14
8.33569e+14
8.215907e+14
7.831867e+14
7.807692e+14
7.755897e+14
7.705842e+14
7.779129e+14
7.778086e+14
7.550462e+14
7.444918e+14
7.476379e+14
7.756574e+14
7.745345e+14
7.111843e+14
6.444513e+14
6.545056e+14
7.136815e+14
7.580858e+14
7.865291e+14
8.073058e+14
8.264354e+14
8.448412e+14
8.609988e+14
8.740778e+14
8.800848e+14
8.793916e+14
8.341888e+14
8.16499e+14
8.315594e+14
8.261766e+14
8.382949e+14
7.889018e+14
7.659914e+14
7.58542e+14
7.569294e+14
7.894468e+14
7.953539e+14
7.639342e+14
7.430261e+14
7.562915e+14
7.74069e+14
7.895868e+14
8.0401e+14
8.194566e+14
8.368686e+14
8.575141e+14
8.791613e+14
9.000482e+14
9.152538e+14
9.173852e+14
9.08379e+14
8.759001e+14
8.927067e+14
8.864926e+14
8.961877e+14
8.006642e+14
7.800682e+14
7.720805e+14
7.684816e+14
7.952054e+14
8.07316e+14
7.939525e+14
7.871895e+14
7.915485e+14
7.998626e+14
8.09824e+14
8.211041e+14
8.358051e+14
8.550755e+14
8.796961e+14
9.072102e+14
9.347171e+14
9.564926e+14
9.629375e+14
9.560714e+14
9.306753e+14
9.486661e+14
9.439247e+14
9.509987e+14
8.089466e+14
7.918754e+14
7.809139e+14
7.77666e+14
7.910309e+14
8.096143e+14
8.084553e+14
8.078495e+14
8.114613e+14
8.166941e+14
8.242769e+14
8.360051e+14
8.539662e+14
8.793909e+14
9.117094e+14
9.479102e+14
9.830813e+14
1.009789e+15
1.015472e+15
1.010594e+15
1.000151e+15
1.011382e+15
1.003248e+15
1.0075e+15
8.165929e+14
8.010647e+14
7.870754e+14
7.900654e+14
8.008462e+14
8.155161e+14
8.200867e+14
8.196643e+14
8.215682e+14
8.261128e+14
8.354964e+14
8.523879e+14
8.787184e+14
9.149593e+14
9.583348e+14
1.005124e+15
1.048459e+15
1.077383e+15
1.079823e+15
1.065246e+15
1.079368e+15
1.081516e+15
1.066651e+15
1.065763e+15
8.225977e+14
8.072246e+14
7.910425e+14
7.895765e+14
7.978297e+14
8.120803e+14
8.221777e+14
8.239167e+14
8.268703e+14
8.35142e+14
8.522958e+14
8.806128e+14
9.203481e+14
9.70639e+14
1.025769e+15
1.082999e+15
1.13212e+15
1.158707e+15
1.162707e+15
1.159886e+15
1.164374e+15
1.153217e+15
1.13205e+15
1.125274e+15
7.898927e+14
8.072783e+14
7.878829e+14
7.856605e+14
7.854496e+14
8.07735e+14
8.18877e+14
8.24338e+14
8.335556e+14
8.535363e+14
8.865344e+14
9.314858e+14
9.867675e+14
1.051576e+15
1.115301e+15
1.18082e+15
1.229526e+15
1.250553e+15
1.246531e+15
1.260443e+15
1.251407e+15
1.221078e+15
1.202869e+15
1.192517e+15
8.104049e+14
7.915343e+14
7.786646e+14
7.792562e+14
7.889842e+14
8.080803e+14
8.299651e+14
8.618206e+14
9.026583e+14
9.54846e+14
1.014956e+15
1.081721e+15
1.156888e+15
1.220617e+15
1.292563e+15
1.332944e+15
1.366179e+15
1.372113e+15
1.347359e+15
1.327152e+15
1.276038e+15
1.248178e+15
7.964196e+14
8.22782e+14
8.066422e+14
8.042903e+14
8.100919e+14
8.494746e+14
8.882399e+14
9.436486e+14
9.993941e+14
1.05916e+15
1.122735e+15
1.19262e+15
1.273882e+15
1.326295e+15
1.412381e+15
1.434742e+15
1.457446e+15
1.447216e+15
1.426743e+15
1.399534e+15
1.342175e+15
1.297726e+15
8.058073e+14
8.692211e+14
8.724753e+14
8.981163e+14
9.244197e+14
9.784723e+14
1.047347e+15
1.108312e+15
1.174526e+15
1.234569e+15
1.300342e+15
1.390924e+15
1.424725e+15
1.501556e+15
1.504441e+15
1.494868e+15
1.524548e+15
1.517339e+15
1.474861e+15
1.342121e+15
8.751127e+14
9.771962e+14
1.015409e+15
1.032247e+15
1.087945e+15
1.132065e+15
1.18378e+15
1.248073e+15
1.325268e+15
1.389496e+15
1.471179e+15
1.486116e+15
1.545524e+15
1.584924e+15
1.579678e+15
1.62521e+15
1.586872e+15
1.449244e+15
9.66268e+14
1.125547e+15
1.128874e+15
1.196177e+15
1.229578e+15
1.265444e+15
1.307138e+15
1.371623e+15
1.430583e+15
1.503956e+15
1.558659e+15
1.641066e+15
1.678899e+15
1.647389e+15
1.681028e+15
1.557481e+15
1.110174e+15
1.171387e+15
1.301501e+15
1.320501e+15
1.341406e+15
1.384027e+15
1.44829e+15
1.514894e+15
1.585167e+15
1.646715e+15
1.709004e+15
1.737517e+15
1.683534e+15
1.674517e+15
1.243534e+15
1.352263e+15
1.371128e+15
1.410506e+15
1.468932e+15
1.532831e+15
1.605189e+15
1.673175e+15
1.734692e+15
1.726201e+15
1.28322e+15
1.177228e+15
1.123924e+15
1.067792e+15
1.007532e+15
9.57419e+14
9.333626e+14
9.491446e+14
1.192003e+15
1.233818e+15
1.254478e+15
1.2285e+15
1.15047e+15
1.098737e+15
1.045267e+15
9.888743e+14
9.416684e+14
9.184872e+14
9.224698e+14
9.016778e+14
8.829102e+14
8.609991e+14
1.12429e+15
1.140883e+15
1.198777e+15
1.228043e+15
1.20348e+15
1.137044e+15
1.089729e+15
1.040952e+15
9.871881e+14
9.389473e+14
9.103795e+14
9.041771e+14
8.823858e+14
8.520005e+14
8.355815e+14
7.283481e+14
1.014122e+15
1.043014e+15
1.097801e+15
1.115036e+15
1.168842e+15
1.207918e+15
1.205926e+15
1.150592e+15
1.105312e+15
1.059566e+15
1.007045e+15
9.571401e+14
9.237463e+14
9.077766e+14
8.726138e+14
8.138116e+14
7.967191e+14
7.201249e+14
5.962735e+14
5.275672e+14
9.63469e+14
9.820547e+14
1.0102e+15
1.060644e+15
1.098289e+15
1.175532e+15
1.199071e+15
1.19593e+15
1.153476e+15
1.115778e+15
1.077768e+15
1.029296e+15
9.771344e+14
9.353568e+14
9.091419e+14
8.760741e+14
8.291925e+14
7.931136e+14
6.761553e+14
5.70832e+14
5.278053e+14
3.740594e+14
9.518663e+14
9.515879e+14
9.475071e+14
9.754927e+14
1.046588e+15
1.088573e+15
1.151574e+15
1.172354e+15
1.179022e+15
1.153458e+15
1.125267e+15
1.095169e+15
1.052299e+15
1.000057e+15
9.522827e+14
9.156472e+14
8.741431e+14
8.300264e+14
7.943134e+14
7.167522e+14
5.496693e+14
4.977367e+14
4.005253e+14
3.022973e+14
9.114135e+14
9.165867e+14
9.150817e+14
9.711929e+14
1.037946e+15
1.060917e+15
1.127136e+15
1.154885e+15
1.168083e+15
1.149369e+15
1.12072e+15
1.098518e+15
1.0624e+15
1.0145e+15
9.7194e+14
9.362848e+14
8.953771e+14
8.493727e+14
8.051823e+14
7.355863e+14
6.456009e+14
5.373117e+14
4.536142e+14
3.770741e+14
9.058452e+14
9.148267e+14
8.883982e+14
9.177342e+14
9.651814e+14
1.014582e+15
1.057131e+15
1.118547e+15
1.146457e+15
1.14993e+15
1.143297e+15
1.125351e+15
1.107918e+15
1.082567e+15
1.043076e+15
1.006103e+15
9.704291e+14
9.281695e+14
8.817047e+14
8.319381e+14
7.654753e+14
6.792487e+14
6.337108e+14
5.69633e+14
5.025802e+14
4.386597e+14
9.300295e+14
9.121438e+14
8.886779e+14
8.951457e+14
9.12074e+14
9.491404e+14
1.01934e+15
1.06402e+15
1.105898e+15
1.134416e+15
1.137984e+15
1.136785e+15
1.121618e+15
1.119037e+15
1.102915e+15
1.052621e+15
1.02268e+15
9.904769e+14
9.576275e+14
9.143855e+14
8.65161e+14
8.073699e+14
7.387578e+14
6.590155e+14
6.262778e+14
5.999035e+14
5.678416e+14
5.467892e+14
9.093286e+14
8.920286e+14
8.656868e+14
8.872836e+14
8.950279e+14
9.642495e+14
1.037856e+15
1.080341e+15
1.115444e+15
1.142391e+15
1.148995e+15
1.153371e+15
1.149282e+15
1.149629e+15
1.11074e+15
1.078531e+15
1.068699e+15
1.007247e+15
9.57073e+14
8.993108e+14
8.51942e+14
8.096696e+14
7.774764e+14
7.394511e+14
6.825849e+14
6.871043e+14
6.655381e+14
6.470773e+14
8.941495e+14
8.693791e+14
8.631676e+14
8.8021e+14
8.893479e+14
9.909214e+14
1.054772e+15
1.083237e+15
1.107552e+15
1.110292e+15
1.096656e+15
1.08577e+15
1.086969e+15
1.094408e+15
1.091002e+15
1.092266e+15
1.056882e+15
1.034933e+15
1.038377e+15
9.970399e+14
9.600059e+14
9.453646e+14
9.210927e+14
8.832117e+14
8.120496e+14
7.666507e+14
7.45106e+14
7.279818e+14
9.327387e+14
9.187325e+14
8.697325e+14
8.579226e+14
8.627972e+14
8.807735e+14
1.003778e+15
1.060664e+15
1.074041e+15
1.062029e+15
1.032214e+15
9.988542e+14
9.995814e+14
1.026518e+15
1.048565e+15
1.072565e+15
1.101892e+15
1.118395e+15
1.119564e+15
1.091203e+15
1.057443e+15
1.037696e+15
9.976219e+14
9.74943e+14
9.459878e+14
9.00831e+14
8.239407e+14
8.005967e+14
7.715088e+14
7.351975e+14
9.150935e+14
9.00437e+14
8.639566e+14
8.531007e+14
8.560487e+14
8.776022e+14
9.846678e+14
1.058304e+15
1.067438e+15
9.964375e+14
9.078068e+14
8.924726e+14
9.835343e+14
1.030534e+15
1.057863e+15
1.073475e+15
1.083223e+15
1.087891e+15
1.092354e+15
1.101209e+15
1.093292e+15
1.074637e+15
1.042017e+15
1.02769e+15
1.004122e+15
9.643444e+14
8.799868e+14
8.485928e+14
7.951466e+14
7.551212e+14
9.104973e+14
8.91015e+14
8.598712e+14
8.511357e+14
8.559423e+14
8.802657e+14
9.686057e+14
1.051906e+15
1.080342e+15
1.018466e+15
9.156238e+14
9.118748e+14
9.941192e+14
1.047387e+15
1.078881e+15
1.101943e+15
1.122952e+15
1.141184e+15
1.154523e+15
1.161015e+15
1.156944e+15
1.142266e+15
1.105803e+15
1.083393e+15
1.066122e+15
1.023221e+15
9.356799e+14
8.991155e+14
8.379003e+14
7.908579e+14
9.118188e+14
8.884733e+14
8.601753e+14
8.530914e+14
8.599846e+14
8.850781e+14
9.567955e+14
1.036738e+15
1.082345e+15
1.073915e+15
1.045676e+15
1.064321e+15
1.086811e+15
1.103455e+15
1.117803e+15
1.133495e+15
1.151219e+15
1.170715e+15
1.188581e+15
1.202286e+15
1.206609e+15
1.196284e+15
1.173345e+15
1.145231e+15
1.124902e+15
1.078899e+15
9.921171e+14
9.509845e+14
8.867497e+14
8.373519e+14
9.107246e+14
8.883874e+14
8.629942e+14
8.578229e+14
8.660857e+14
8.900345e+14
9.474707e+14
1.017412e+15
1.070819e+15
1.09595e+15
1.105561e+15
1.1189e+15
1.12933e+15
1.13727e+15
1.146549e+15
1.160834e+15
1.180481e+15
1.204508e+15
1.228772e+15
1.249265e+15
1.2598e+15
1.253869e+15
1.233188e+15
1.208564e+15
1.183994e+15
1.132586e+15
1.047016e+15
1.000006e+15
9.368638e+14
8.851242e+14
9.093775e+14
8.882951e+14
8.654294e+14
8.625351e+14
8.712036e+14
8.927096e+14
9.380896e+14
9.967504e+14
1.049089e+15
1.082963e+15
1.106221e+15
1.12217e+15
1.132478e+15
1.141612e+15
1.154907e+15
1.175624e+15
1.203824e+15
1.237274e+15
1.271538e+15
1.301008e+15
1.31767e+15
1.314059e+15
1.29645e+15
1.279732e+15
1.248105e+15
1.185888e+15
1.099339e+15
1.042943e+15
9.799658e+14
9.28927e+14
9.194631e+14
8.958512e+14
8.722157e+14
8.693721e+14
8.754399e+14
8.926251e+14
9.273325e+14
9.766271e+14
1.023627e+15
1.058038e+15
1.083468e+15
1.100825e+15
1.114776e+15
1.131074e+15
1.154714e+15
1.187901e+15
1.229404e+15
1.275373e+15
1.321089e+15
1.359763e+15
1.380496e+15
1.376772e+15
1.360461e+15
1.34462e+15
1.309074e+15
1.233532e+15
1.14756e+15
1.077048e+15
1.013467e+15
9.661056e+14
9.157336e+14
9.095377e+14
8.837947e+14
8.763431e+14
8.772169e+14
8.89728e+14
9.162229e+14
9.553041e+14
9.957995e+14
1.028479e+15
1.050666e+15
1.069999e+15
1.091889e+15
1.122144e+15
1.163081e+15
1.21315e+15
1.269341e+15
1.327276e+15
1.383102e+15
1.42847e+15
1.448895e+15
1.446026e+15
1.43829e+15
1.415108e+15
1.361326e+15
1.270904e+15
1.190782e+15
1.098371e+15
1.041513e+15
9.961499e+14
9.063547e+14
8.846453e+14
8.831767e+14
8.797289e+14
8.827881e+14
8.991553e+14
9.258425e+14
9.600452e+14
9.851349e+14
1.006539e+15
1.038692e+15
1.08146e+15
1.135324e+15
1.197236e+15
1.262647e+15
1.329729e+15
1.395312e+15
1.457503e+15
1.504117e+15
1.518458e+15
1.514105e+15
1.503104e+15
1.475934e+15
1.397863e+15
1.307096e+15
1.22983e+15
1.109517e+15
1.050579e+15
9.125621e+14
8.862981e+14
8.598339e+14
8.667604e+14
8.670403e+14
8.776511e+14
8.984528e+14
9.242362e+14
9.537644e+14
9.919522e+14
1.04778e+15
1.118065e+15
1.193316e+15
1.266976e+15
1.337064e+15
1.406037e+15
1.472866e+15
1.536689e+15
1.578467e+15
1.588643e+15
1.585559e+15
1.56511e+15
1.52249e+15
1.422509e+15
1.332562e+15
1.209302e+15
1.124313e+15
1.073821e+15
9.176611e+14
9.209286e+14
8.927941e+14
8.937286e+14
8.968561e+14
9.014685e+14
9.204113e+14
9.495404e+14
9.933355e+14
1.054821e+15
1.128733e+15
1.205806e+15
1.28162e+15
1.350388e+15
1.41547e+15
1.481265e+15
1.547132e+15
1.610801e+15
1.64363e+15
1.648239e+15
1.633191e+15
1.611843e+15
1.560923e+15
1.468584e+15
1.369267e+15
1.218115e+15
1.147139e+15
1.080027e+15
9.034688e+14
9.47301e+14
9.277325e+14
9.482752e+14
9.673075e+14
9.924308e+14
1.039568e+15
1.101426e+15
1.171228e+15
1.24054e+15
1.306098e+15
1.362818e+15
1.419818e+15
1.481363e+15
1.546352e+15
1.614373e+15
1.674315e+15
1.694768e+15
1.69748e+15
1.67202e+15
1.652672e+15
1.611098e+15
1.488591e+15
1.328286e+15
1.262593e+15
1.15162e+15
9.764895e+14
9.915103e+14
1.000546e+15
1.044961e+15
1.100948e+15
1.153465e+15
1.214021e+15
1.279434e+15
1.340394e+15
1.387364e+15
1.424085e+15
1.477873e+15
1.539021e+15
1.605219e+15
1.67835e+15
1.736094e+15
1.741765e+15
1.738962e+15
1.708999e+15
1.711217e+15
1.638106e+15
1.455184e+15
1.381467e+15
1.291794e+15
1.005936e+15
1.073895e+15
1.104825e+15
1.110641e+15
1.185503e+15
1.262187e+15
1.306001e+15
1.36021e+15
1.409249e+15
1.442227e+15
1.480657e+15
1.539685e+15
1.604507e+15
1.673161e+15
1.735839e+15
1.784416e+15
1.78784e+15
1.784685e+15
1.758345e+15
1.740342e+15
1.629323e+15
1.517581e+15
1.435432e+15
1.330457e+15
1.049159e+15
1.191057e+15
1.201392e+15
1.24548e+15
1.322945e+15
1.385602e+15
1.436193e+15
1.467065e+15
1.485429e+15
1.523496e+15
1.587589e+15
1.653338e+15
1.721416e+15
1.78269e+15
1.828763e+15
1.839746e+15
1.823423e+15
1.783956e+15
1.753551e+15
1.681984e+15
1.564266e+15
1.477264e+15
1.173702e+15
1.238009e+15
1.322852e+15
1.362526e+15
1.391629e+15
1.464385e+15
1.514059e+15
1.525408e+15
1.565061e+15
1.62969e+15
1.693151e+15
1.75714e+15
1.817424e+15
1.863032e+15
1.859238e+15
1.812655e+15
1.795593e+15
1.802833e+15
1.736268e+15
1.631238e+15
1.296549e+15
1.427773e+15
1.459717e+15
1.489582e+15
1.506585e+15
1.512421e+15
1.550379e+15
1.609517e+15
1.670833e+15
1.734771e+15
1.797444e+15
1.856003e+15
1.875268e+15
1.847964e+15
1.822464e+15
1.873174e+15
1.426234e+15
1.507456e+15
1.525016e+15
1.558654e+15
1.559881e+15
1.595131e+15
1.65518e+15
1.713171e+15
1.770184e+15
1.825621e+15
1.883451e+15
1.907808e+15
1.88465e+15
1.925155e+15
1.595638e+15
1.588941e+15
1.619169e+15
1.677588e+15
1.732684e+15
1.789906e+15
1.846538e+15
1.972014e+15
1.261186e+15
1.120415e+15
1.05691e+15
9.838316e+14
9.234421e+14
9.495752e+14
1.262249e+15
1.272432e+15
1.276837e+15
1.270091e+15
1.194598e+15
1.112049e+15
1.051299e+15
9.852748e+14
9.312872e+14
9.237068e+14
9.449869e+14
9.438373e+14
9.553329e+14
9.86004e+14
1.162482e+15
1.167689e+15
1.189913e+15
1.253382e+15
1.271692e+15
1.253786e+15
1.199913e+15
1.126993e+15
1.068629e+15
1.007436e+15
9.582325e+14
9.450677e+14
9.407015e+14
9.339024e+14
9.345512e+14
9.387419e+14
9.338044e+14
9.483014e+14
1.106725e+15
1.099728e+15
1.144767e+15
1.17217e+15
1.259755e+15
1.295048e+15
1.278373e+15
1.242847e+15
1.180435e+15
1.125581e+15
1.066227e+15
1.01493e+15
9.866345e+14
9.631832e+14
9.476188e+14
9.304796e+14
9.125899e+14
8.750961e+14
8.407162e+14
8.138635e+14
1.062676e+15
1.055691e+15
1.081635e+15
1.134366e+15
1.197217e+15
1.293017e+15
1.334067e+15
1.320396e+15
1.284994e+15
1.230522e+15
1.180631e+15
1.12136e+15
1.064523e+15
1.023179e+15
9.87996e+14
9.596309e+14
9.27719e+14
8.912512e+14
8.242779e+14
7.451379e+14
6.733452e+14
6.008223e+14
1.049395e+15
1.031895e+15
1.033437e+15
1.089007e+15
1.15236e+15
1.225655e+15
1.316408e+15
1.358215e+15
1.350451e+15
1.320793e+15
1.2771e+15
1.235342e+15
1.176208e+15
1.111916e+15
1.05649e+15
1.006279e+15
9.64138e+14
9.204714e+14
8.646639e+14
7.93893e+14
7.072265e+14
6.150226e+14
5.35044e+14
4.779359e+14
1.040238e+15
1.021724e+15
1.020373e+15
1.039881e+15
1.099293e+15
1.16508e+15
1.236346e+15
1.32226e+15
1.365327e+15
1.366158e+15
1.345639e+15
1.314104e+15
1.282394e+15
1.228082e+15
1.15952e+15
1.092417e+15
1.028597e+15
9.675512e+14
9.134176e+14
8.47547e+14
7.733561e+14
6.87973e+14
6.038301e+14
5.281802e+14
4.713881e+14
4.386516e+14
1.044961e+15
1.007236e+15
1.007649e+15
1.018255e+15
1.043482e+15
1.101748e+15
1.16175e+15
1.22941e+15
1.308097e+15
1.349997e+15
1.360251e+15
1.3516e+15
1.333907e+15
1.313844e+15
1.269079e+15
1.202624e+15
1.133418e+15
1.070791e+15
1.004311e+15
9.434363e+14
8.678992e+14
7.921449e+14
7.030832e+14
6.109147e+14
5.197282e+14
4.422249e+14
4.512612e+14
4.257955e+14
1.073447e+15
1.027793e+15
9.950531e+14
9.967993e+14
1.013189e+15
1.041598e+15
1.088601e+15
1.143281e+15
1.213795e+15
1.296056e+15
1.343592e+15
1.36659e+15
1.369388e+15
1.36218e+15
1.350853e+15
1.317229e+15
1.260784e+15
1.192266e+15
1.12671e+15
1.057227e+15
9.918225e+14
9.169218e+14
8.354903e+14
7.570746e+14
6.697385e+14
5.613649e+14
4.713671e+14
4.927473e+14
4.492281e+14
4.06259e+14
1.024862e+15
1.000337e+15
9.89852e+14
9.969861e+14
1.006482e+15
1.029064e+15
1.070863e+15
1.138125e+15
1.213817e+15
1.290441e+15
1.337859e+15
1.365331e+15
1.380701e+15
1.382658e+15
1.375781e+15
1.354345e+15
1.310274e+15
1.252741e+15
1.18882e+15
1.119002e+15
1.05166e+15
9.802266e+14
9.028408e+14
8.194537e+14
7.536326e+14
6.805508e+14
6.002847e+14
5.450088e+14
5.594164e+14
4.661716e+14
1.041923e+15
1.009147e+15
9.962814e+14
9.890402e+14
9.891404e+14
9.940085e+14
1.01968e+15
1.075756e+15
1.15595e+15
1.233295e+15
1.297238e+15
1.340241e+15
1.361424e+15
1.371096e+15
1.369285e+15
1.374355e+15
1.362015e+15
1.315269e+15
1.275555e+15
1.226653e+15
1.172888e+15
1.112387e+15
1.045795e+15
9.763139e+14
9.035565e+14
8.248488e+14
7.635575e+14
7.198367e+14
6.607445e+14
6.374041e+14
5.90485e+14
5.94375e+14
1.0259e+15
1.000115e+15
9.913232e+14
9.840273e+14
9.845569e+14
9.843223e+14
1.025972e+15
1.108085e+15
1.199788e+15
1.279599e+15
1.334309e+15
1.366148e+15
1.379921e+15
1.388079e+15
1.391168e+15
1.396684e+15
1.363882e+15
1.33396e+15
1.313546e+15
1.244456e+15
1.182695e+15
1.116809e+15
1.055896e+15
9.985794e+14
9.552413e+14
9.151831e+14
8.666442e+14
8.343543e+14
7.874323e+14
7.253228e+14
7.056585e+14
6.91234e+14
1.019838e+15
9.980902e+14
9.933903e+14
9.830216e+14
9.795607e+14
9.891674e+14
1.042768e+15
1.153028e+15
1.251588e+15
1.321351e+15
1.355766e+15
1.364991e+15
1.359393e+15
1.352209e+15
1.347475e+15
1.350231e+15
1.341864e+15
1.338171e+15
1.29885e+15
1.273629e+15
1.267033e+15
1.225255e+15
1.188591e+15
1.164737e+15
1.136168e+15
1.09456e+15
1.031345e+15
9.683671e+14
9.009315e+14
8.258664e+14
7.894326e+14
7.714443e+14
1.005239e+15
9.999617e+14
9.924405e+14
9.825656e+14
9.805573e+14
9.959706e+14
1.055896e+15
1.182082e+15
1.284955e+15
1.333365e+15
1.327672e+15
1.297502e+15
1.260757e+15
1.256726e+15
1.288104e+15
1.313033e+15
1.338724e+15
1.367071e+15
1.379987e+15
1.373404e+15
1.334829e+15
1.302369e+15
1.283985e+15
1.245679e+15
1.215428e+15
1.17844e+15
1.124281e+15
1.044987e+15
9.671727e+14
8.704921e+14
7.860078e+14
7.675033e+14
1.022858e+15
1.004289e+15
1.006958e+15
9.96086e+14
9.870651e+14
9.868883e+14
1.005017e+15
1.064129e+15
1.186024e+15
1.300379e+15
1.338991e+15
1.277957e+15
1.198733e+15
1.173691e+15
1.253698e+15
1.311511e+15
1.337512e+15
1.351462e+15
1.35803e+15
1.357717e+15
1.356753e+15
1.360682e+15
1.347358e+15
1.327313e+15
1.300094e+15
1.280247e+15
1.249315e+15
1.1978e+15
1.111372e+15
1.03006e+15
9.268849e+14
8.026189e+14
7.442384e+14
6.621366e+14
1.002426e+15
9.847219e+14
9.95822e+14
9.930611e+14
9.902014e+14
9.955502e+14
1.016079e+15
1.070593e+15
1.177492e+15
1.301588e+15
1.35504e+15
1.301385e+15
1.188091e+15
1.157283e+15
1.274762e+15
1.341378e+15
1.37562e+15
1.398185e+15
1.416796e+15
1.430139e+15
1.436645e+15
1.434652e+15
1.423016e+15
1.403612e+15
1.372577e+15
1.344389e+15
1.312743e+15
1.258081e+15
1.16695e+15
1.076681e+15
9.534956e+14
8.224725e+14
7.189517e+14
6.300613e+14
1.000185e+15
9.834175e+14
9.922646e+14
9.91399e+14
9.931723e+14
1.004759e+15
1.029235e+15
1.079392e+15
1.167277e+15
1.282421e+15
1.361795e+15
1.361188e+15
1.325148e+15
1.349613e+15
1.385229e+15
1.409736e+15
1.426391e+15
1.44041e+15
1.454053e+15
1.466891e+15
1.476644e+15
1.481053e+15
1.476295e+15
1.459683e+15
1.432985e+15
1.401427e+15
1.365502e+15
1.30624e+15
1.212422e+15
1.116613e+15
9.859171e+14
8.540348e+14
7.343911e+14
6.399762e+14
9.932375e+14
9.78885e+14
9.895711e+14
9.918521e+14
9.966036e+14
1.012966e+15
1.041074e+15
1.088939e+15
1.161843e+15
1.256277e+15
1.341983e+15
1.383632e+15
1.399423e+15
1.424471e+15
1.444709e+15
1.45587e+15
1.464027e+15
1.473913e+15
1.486795e+15
1.501712e+15
1.515781e+15
1.525455e+15
1.525932e+15
1.513037e+15
1.487521e+15
1.455013e+15
1.412982e+15
1.345793e+15
1.248057e+15
1.147766e+15
1.017727e+15
8.915693e+14
7.716676e+14
6.799383e+14
9.84281e+14
9.717107e+14
9.862834e+14
9.936119e+14
1.000227e+15
1.018595e+15
1.048453e+15
1.094379e+15
1.156852e+15
1.234922e+15
1.311563e+15
1.369551e+15
1.406456e+15
1.432396e+15
1.449508e+15
1.460563e+15
1.471563e+15
1.486259e+15
1.505342e+15
1.527351e+15
1.549363e+15
1.566897e+15
1.573574e+15
1.564128e+15
1.540132e+15
1.506971e+15
1.456933e+15
1.37799e+15
1.274919e+15
1.168087e+15
1.03953e+15
9.22473e+14
8.097969e+14
7.197748e+14
1.014263e+15
9.805982e+14
9.936399e+14
1.001486e+15
1.008459e+15
1.024957e+15
1.052397e+15
1.094028e+15
1.149206e+15
1.214464e+15
1.279001e+15
1.3352e+15
1.376805e+15
1.405728e+15
1.426629e+15
1.444792e+15
1.465036e+15
1.489818e+15
1.519126e+15
1.55118e+15
1.583211e+15
1.609491e+15
1.621498e+15
1.613802e+15
1.589282e+15
1.551188e+15
1.490945e+15
1.398473e+15
1.292012e+15
1.176208e+15
1.048907e+15
9.406455e+14
8.359404e+14
7.401184e+14
9.969967e+14
9.970515e+14
1.005021e+15
1.012059e+15
1.024077e+15
1.047363e+15
1.083744e+15
1.132759e+15
1.188209e+15
1.244605e+15
1.298827e+15
1.339483e+15
1.370464e+15
1.398599e+15
1.428303e+15
1.46166e+15
1.498935e+15
1.539664e+15
1.582407e+15
1.624779e+15
1.658315e+15
1.672373e+15
1.663922e+15
1.635733e+15
1.588397e+15
1.509662e+15
1.404149e+15
1.298717e+15
1.172242e+15
1.052925e+15
9.445597e+14
8.246635e+14
9.943186e+14
9.730114e+14
9.874482e+14
1.001671e+15
1.010617e+15
1.02832e+15
1.057726e+15
1.101005e+15
1.149765e+15
1.202622e+15
1.251054e+15
1.296069e+15
1.339134e+15
1.383431e+15
1.429361e+15
1.47626e+15
1.524074e+15
1.574082e+15
1.625939e+15
1.677105e+15
1.713153e+15
1.724234e+15
1.710524e+15
1.670414e+15
1.611738e+15
1.510096e+15
1.400186e+15
1.295438e+15
1.160831e+15
1.049987e+15
9.172603e+14
8.431071e+14
1.001274e+15
9.661102e+14
9.752946e+14
9.890514e+14
9.999525e+14
1.013228e+15
1.036363e+15
1.076337e+15
1.12512e+15
1.176262e+15
1.230623e+15
1.289077e+15
1.348504e+15
1.40642e+15
1.461445e+15
1.513426e+15
1.565143e+15
1.620526e+15
1.679097e+15
1.736095e+15
1.767511e+15
1.773539e+15
1.751036e+15
1.696181e+15
1.622772e+15
1.500372e+15
1.39417e+15
1.277492e+15
1.151398e+15
1.043266e+15
9.087425e+14
8.463384e+14
1.033742e+15
9.963217e+14
9.952893e+14
1.008277e+15
1.016212e+15
1.028821e+15
1.048994e+15
1.086861e+15
1.137812e+15
1.195685e+15
1.260673e+15
1.328143e+15
1.393696e+15
1.452643e+15
1.505589e+15
1.555634e+15
1.608689e+15
1.668985e+15
1.733178e+15
1.792257e+15
1.81197e+15
1.813372e+15
1.778703e+15
1.712908e+15
1.630886e+15
1.501505e+15
1.395572e+15
1.274619e+15
1.162048e+15
1.036622e+15
9.061531e+14
8.616896e+14
1.041453e+15
1.022589e+15
1.036718e+15
1.059751e+15
1.078175e+15
1.099804e+15
1.144161e+15
1.199825e+15
1.259662e+15
1.320096e+15
1.382612e+15
1.438263e+15
1.491553e+15
1.538487e+15
1.587959e+15
1.645161e+15
1.711627e+15
1.780134e+15
1.836247e+15
1.842666e+15
1.84533e+15
1.802737e+15
1.7312e+15
1.652659e+15
1.520621e+15
1.402982e+15
1.290453e+15
1.167916e+15
1.005042e+15
9.333688e+14
1.074301e+15
1.080405e+15
1.066896e+15
1.113464e+15
1.148636e+15
1.184915e+15
1.233844e+15
1.278332e+15
1.317983e+15
1.370803e+15
1.426868e+15
1.470454e+15
1.51711e+15
1.556717e+15
1.610507e+15
1.673024e+15
1.744591e+15
1.816811e+15
1.869799e+15
1.871683e+15
1.877098e+15
1.830039e+15
1.765552e+15
1.699639e+15
1.556781e+15
1.430773e+15
1.303833e+15
1.150025e+15
1.058892e+15
9.663823e+14
1.107892e+15
1.1326e+15
1.179997e+15
1.231511e+15
1.262209e+15
1.313787e+15
1.337692e+15
1.359876e+15
1.413679e+15
1.462484e+15
1.493977e+15
1.538147e+15
1.573242e+15
1.631459e+15
1.6982e+15
1.773754e+15
1.850092e+15
1.900333e+15
1.907051e+15
1.912442e+15
1.876745e+15
1.818807e+15
1.740167e+15
1.584217e+15
1.455084e+15
1.327546e+15
1.199372e+15
1.084295e+15
1.148574e+15
1.231661e+15
1.283607e+15
1.330416e+15
1.377376e+15
1.393595e+15
1.408862e+15
1.466981e+15
1.502184e+15
1.521355e+15
1.564267e+15
1.595881e+15
1.658811e+15
1.728415e+15
1.805929e+15
1.883711e+15
1.937932e+15
1.960715e+15
1.9561e+15
1.910822e+15
1.84085e+15
1.754642e+15
1.590333e+15
1.465274e+15
1.348272e+15
1.260619e+15
1.230269e+15
1.313725e+15
1.371095e+15
1.431176e+15
1.445388e+15
1.47027e+15
1.528043e+15
1.552352e+15
1.565669e+15
1.608041e+15
1.639155e+15
1.705057e+15
1.774078e+15
1.852676e+15
1.929191e+15
1.973847e+15
1.989145e+15
1.967125e+15
1.908907e+15
1.830556e+15
1.745056e+15
1.587299e+15
1.49185e+15
1.421222e+15
1.316574e+15
1.4084e+15
1.419614e+15
1.464402e+15
1.506269e+15
1.562463e+15
1.594264e+15
1.605152e+15
1.644145e+15
1.672575e+15
1.735285e+15
1.800177e+15
1.87301e+15
1.943256e+15
1.977681e+15