/*--------------------------------*- C++ -*----------------------------------*\
  =========                 |
  \\      /  F ield         | OpenFOAM: The Open Source CFD Toolbox
   \\    /   O peration     | Website:  https://openfoam.org
    \\  /    A nd           | Version:  6
     \\/     M anipulation  |
\*---------------------------------------------------------------------------*/
FoamFile
{
    version     2.0;
    format      ascii;
    class       volScalarField;
    location    "49.8/region0/neutronTransport";
    object      precursor2.dnp;
}
// * * * * * * * * * * * * * * * * * * * * * * * * * * * * * * * * * * * * * //

dimensions      [0 -3 0 0 0 0 0];

internalField   nonuniform List<scalar> 
203709
(
2.733876e+14
3.007732e+14
3.007306e+14
2.734357e+14
2.857367e+14
3.198568e+14
3.959601e+14
3.917879e+14
3.917323e+14
3.959153e+14
3.197883e+14
2.857145e+14
2.79193e+14
3.210109e+14
4.011303e+14
3.999814e+14
4.113531e+14
4.141836e+14
4.141607e+14
4.113074e+14
3.999029e+14
4.010678e+14
3.209435e+14
2.791396e+14
2.792351e+14
3.89943e+14
3.982535e+14
4.138683e+14
4.219782e+14
4.291123e+14
4.322652e+14
4.322678e+14
4.290668e+14
4.219024e+14
4.13804e+14
3.981861e+14
3.898927e+14
2.791934e+14
3.210479e+14
3.982668e+14
4.16249e+14
4.290067e+14
4.386657e+14
4.45643e+14
4.491107e+14
4.491127e+14
4.455937e+14
4.385982e+14
4.289435e+14
4.161712e+14
3.98186e+14
3.209744e+14
2.858165e+14
4.011878e+14
4.139136e+14
4.29025e+14
4.421681e+14
4.525371e+14
4.597276e+14
4.632912e+14
4.63286e+14
4.597019e+14
4.524967e+14
4.420868e+14
4.289257e+14
4.138148e+14
4.010917e+14
2.857274e+14
3.199189e+14
4.000383e+14
4.220394e+14
4.387115e+14
4.525829e+14
4.633506e+14
4.705138e+14
4.738969e+14
4.738938e+14
4.705104e+14
4.633021e+14
4.524938e+14
4.386305e+14
4.219604e+14
3.999511e+14
3.198517e+14
2.735892e+14
3.961119e+14
4.114838e+14
4.292344e+14
4.457745e+14
4.598504e+14
4.706078e+14
4.772658e+14
4.805472e+14
4.805251e+14
4.772112e+14
4.704992e+14
4.597399e+14
4.456807e+14
4.291545e+14
4.114131e+14
3.960728e+14
2.734543e+14
3.009148e+14
3.919276e+14
4.143212e+14
4.324344e+14
4.492764e+14
4.634364e+14
4.740421e+14
4.806393e+14
4.842122e+14
4.840776e+14
4.805377e+14
4.73931e+14
4.63342e+14
4.491843e+14
4.323521e+14
4.142759e+14
3.918684e+14
3.008205e+14
3.009672e+14
3.920309e+14
4.143786e+14
4.324476e+14
4.492864e+14
4.634514e+14
4.740417e+14
4.806508e+14
4.843149e+14
4.841789e+14
4.805683e+14
4.73943e+14
4.633394e+14
4.491987e+14
4.323728e+14
4.14304e+14
3.919442e+14
3.008965e+14
2.735695e+14
3.962548e+14
4.115844e+14
4.293127e+14
4.458329e+14
4.598914e+14
4.706469e+14
4.773359e+14
4.806551e+14
4.806038e+14
4.772743e+14
4.70568e+14
4.597889e+14
4.457319e+14
4.292144e+14
4.114852e+14
3.96117e+14
2.735275e+14
3.200058e+14
4.001709e+14
4.221815e+14
4.388543e+14
4.526941e+14
4.634594e+14
4.706309e+14
4.740473e+14
4.740006e+14
4.706117e+14
4.634037e+14
4.526134e+14
4.387451e+14
4.220609e+14
4.000725e+14
3.199476e+14
2.859194e+14
4.013562e+14
4.140637e+14
4.291808e+14
4.423059e+14
4.52685e+14
4.598608e+14
4.634749e+14
4.634506e+14
4.598793e+14
4.526722e+14
4.422797e+14
4.291292e+14
4.139976e+14
4.012774e+14
2.858431e+14
3.211836e+14
3.984197e+14
4.164149e+14
4.291851e+14
4.388535e+14
4.458621e+14
4.495423e+14
4.495308e+14
4.458572e+14
4.388515e+14
4.291761e+14
4.164021e+14
3.984226e+14
3.211526e+14
2.793862e+14
3.901706e+14
3.984587e+14
4.141037e+14
4.222119e+14
4.293818e+14
4.327268e+14
4.327246e+14
4.29375e+14
4.222053e+14
4.140779e+14
3.984243e+14
3.901423e+14
2.792967e+14
2.794262e+14
3.212471e+14
4.014368e+14
4.002412e+14
4.116875e+14
4.14635e+14
4.146623e+14
4.116779e+14
4.002486e+14
4.013931e+14
3.211603e+14
2.793267e+14
2.860003e+14
3.201071e+14
3.963732e+14
3.923417e+14
3.923913e+14
3.963639e+14
3.200859e+14
2.859348e+14
2.737226e+14
3.011004e+14
3.011195e+14
2.737052e+14
2.290471e+14
2.603428e+14
2.709446e+14
2.782192e+14
2.827647e+14
2.827585e+14
2.78201e+14
2.709073e+14
2.602921e+14
2.290123e+14
2.33651e+14
2.722429e+14
3.467382e+14
3.580563e+14
3.709723e+14
3.851946e+14
3.964464e+14
3.964372e+14
3.851841e+14
3.708856e+14
3.578707e+14
3.464771e+14
2.72001e+14
2.334406e+14
2.39182e+14
3.410705e+14
3.602337e+14
3.879269e+14
4.14203e+14
4.360669e+14
4.64299e+14
4.875796e+14
4.875558e+14
4.642431e+14
4.358766e+14
4.139238e+14
3.876595e+14
3.599514e+14
3.4084e+14
2.390431e+14
2.415728e+14
3.474946e+14
3.787192e+14
4.128099e+14
4.481412e+14
4.984376e+14
5.607205e+14
6.226183e+14
6.448118e+14
6.447579e+14
6.224163e+14
5.604645e+14
4.981904e+14
4.479146e+14
4.125684e+14
3.784784e+14
3.472182e+14
2.414451e+14
2.392168e+14
3.474779e+14
3.825687e+14
4.224977e+14
4.888388e+14
5.688129e+14
6.548506e+14
7.181369e+14
7.6524e+14
8.417114e+14
8.416316e+14
7.650693e+14
7.178779e+14
6.54522e+14
5.685353e+14
4.885504e+14
4.222761e+14
3.823201e+14
3.472266e+14
2.390818e+14
2.337625e+14
3.412424e+14
3.787746e+14
4.225344e+14
5.133205e+14
6.345212e+14
7.177744e+14
7.862666e+14
8.964472e+14
9.45792e+14
9.748915e+14
9.748204e+14
9.455884e+14
8.961557e+14
7.859563e+14
7.174436e+14
6.341725e+14
5.130253e+14
4.222647e+14
3.785399e+14
3.410163e+14
2.33625e+14
2.723176e+14
3.603229e+14
4.12873e+14
4.888798e+14
6.345375e+14
7.50878e+14
8.831717e+14
9.564321e+14
1.013669e+15
1.049015e+15
1.067004e+15
1.066951e+15
1.04885e+15
1.013444e+15
9.561617e+14
8.828608e+14
7.505858e+14
6.342931e+14
4.886589e+14
4.127214e+14
3.60195e+14
2.721983e+14
2.293033e+14
3.469295e+14
3.88022e+14
4.482455e+14
5.688734e+14
7.179187e+14
8.832431e+14
9.826706e+14
1.04684e+15
1.091228e+15
1.119421e+15
1.13333e+15
1.133298e+15
1.11931e+15
1.091072e+15
1.046649e+15
9.824497e+14
8.830284e+14
7.177558e+14
5.687682e+14
4.481521e+14
3.87891e+14
3.466981e+14
2.290872e+14
2.606429e+14
3.583932e+14
4.143686e+14
4.986456e+14
6.551178e+14
7.865195e+14
9.566107e+14
1.046937e+15
1.105179e+15
1.14448e+15
1.169325e+15
1.181438e+15
1.18142e+15
1.169258e+15
1.144355e+15
1.104988e+15
1.046694e+15
9.563399e+14
7.86269e+14
6.548936e+14
4.984022e+14
4.141842e+14
3.581003e+14
2.603754e+14
2.712675e+14
3.714014e+14
4.36329e+14
5.609288e+14
7.185195e+14
8.967991e+14
1.013987e+15
1.091496e+15
1.144677e+15
1.18115e+15
1.204266e+15
1.215556e+15
1.215538e+15
1.204199e+15
1.180999e+15
1.144453e+15
1.091247e+15
1.013722e+15
8.965094e+14
7.181593e+14
5.607829e+14
4.361746e+14
3.710829e+14
2.709982e+14
2.785486e+14
3.856908e+14
4.647796e+14
6.23113e+14
7.65757e+14
9.462931e+14
1.049492e+15
1.119908e+15
1.169804e+15
1.204592e+15
1.226623e+15
1.237359e+15
1.237263e+15
1.226384e+15
1.204245e+15
1.169439e+15
1.119623e+15
1.049282e+15
9.460912e+14
7.655117e+14
6.229308e+14
4.645317e+14
3.854005e+14
2.783348e+14
2.830737e+14
3.969063e+14
4.880766e+14
6.454415e+14
8.423903e+14
9.75539e+14
1.067633e+15
1.133955e+15
1.182048e+15
1.216091e+15
1.237679e+15
1.248242e+15
1.248049e+15
1.2373e+15
1.215629e+15
1.181625e+15
1.133646e+15
1.067441e+15
9.754075e+14
8.422424e+14
6.452886e+14
4.879161e+14
3.967188e+14
2.829186e+14
2.830329e+14
3.968407e+14
4.880193e+14
6.454331e+14
8.424689e+14
9.756465e+14
1.067734e+15
1.134035e+15
1.182109e+15
1.216141e+15
1.237752e+15
1.248376e+15
1.248188e+15
1.237398e+15
1.2157e+15
1.18168e+15
1.133707e+15
1.067527e+15
9.755268e+14
8.423683e+14
6.453167e+14
4.879019e+14
3.967076e+14
2.829132e+14
2.78451e+14
3.856148e+14
4.648403e+14
6.232804e+14
7.659174e+14
9.46565e+14
1.049786e+15
1.120162e+15
1.17e+15
1.204791e+15
1.226876e+15
1.237676e+15
1.237561e+15
1.226629e+15
1.204462e+15
1.169655e+15
1.119875e+15
1.049595e+15
9.464639e+14
7.658755e+14
6.231834e+14
4.647421e+14
3.85531e+14
2.783643e+14
2.712009e+14
3.714083e+14
4.365328e+14
5.612258e+14
7.187866e+14
8.972006e+14
1.014446e+15
1.091958e+15
1.145101e+15
1.181562e+15
1.2047e+15
1.216027e+15
1.215973e+15
1.204616e+15
1.181431e+15
1.144941e+15
1.09181e+15
1.014345e+15
8.971527e+14
7.187818e+14
5.611002e+14
4.363995e+14
3.713595e+14
2.711401e+14
2.606278e+14
3.584744e+14
4.146245e+14
4.988846e+14
6.555288e+14
7.870012e+14
9.571742e+14
1.047505e+15
1.105723e+15
1.145024e+15
1.169897e+15
1.182066e+15
1.182077e+15
1.169984e+15
1.145137e+15
1.105831e+15
1.047592e+15
9.572264e+14
7.869759e+14
6.554555e+14
4.988537e+14
4.145105e+14
3.584331e+14
2.605734e+14
2.293145e+14
3.470737e+14
3.882886e+14
4.485002e+14
5.693066e+14
7.184089e+14
8.838155e+14
9.832721e+14
1.047479e+15
1.091929e+15
1.120219e+15
1.1342e+15
1.134252e+15
1.120395e+15
1.092196e+15
1.047784e+15
9.835647e+14
8.840282e+14
7.184463e+14
5.692665e+14
4.48497e+14
3.881939e+14
3.470207e+14
2.29274e+14
2.725195e+14
3.605545e+14
4.131101e+14
4.892143e+14
6.350389e+14
7.514523e+14
8.838832e+14
9.572684e+14
1.014624e+15
1.050114e+15
1.068158e+15
1.068216e+15
1.05028e+15
1.01488e+15
9.575674e+14
8.841917e+14
7.516833e+14
6.351121e+14
4.892243e+14
4.131484e+14
3.604807e+14
2.723735e+14
2.339425e+14
3.414224e+14
3.790255e+14
4.228597e+14
5.137802e+14
6.351681e+14
7.186239e+14
7.87281e+14
8.976259e+14
9.47152e+14
9.763377e+14
9.76396e+14
9.472573e+14
8.9776e+14
7.873801e+14
7.187453e+14
6.352706e+14
5.138062e+14
4.22847e+14
3.790431e+14
3.413697e+14
2.337511e+14
2.394391e+14
3.478658e+14
3.829756e+14
4.229082e+14
4.893392e+14
5.695188e+14
6.558893e+14
7.19314e+14
7.665547e+14
8.431884e+14
8.432443e+14
7.666067e+14
7.193111e+14
6.558219e+14
5.695287e+14
4.893482e+14
4.22886e+14
3.829299e+14
3.478232e+14
2.393306e+14
2.418404e+14
3.478709e+14
3.791358e+14
4.133265e+14
4.48746e+14
4.990827e+14
5.615646e+14
6.23818e+14
6.460834e+14
6.460943e+14
6.237504e+14
5.615151e+14
4.990957e+14
4.486767e+14
4.132414e+14
3.790722e+14
3.478256e+14
2.417795e+14
2.393885e+14
3.415381e+14
3.607069e+14
3.8843e+14
4.147652e+14
4.367968e+14
4.65202e+14
4.885228e+14
4.885112e+14
4.651506e+14
4.366854e+14
4.147267e+14
3.884285e+14
3.606711e+14
3.414769e+14
2.393437e+14
2.339729e+14
2.725839e+14
3.472594e+14
3.587079e+14
3.717105e+14
3.859718e+14
3.972464e+14
3.97242e+14
3.859417e+14
3.716349e+14
3.586225e+14
3.472709e+14
2.725908e+14
2.339416e+14
2.29391e+14
2.607477e+14
2.7136e+14
2.786439e+14
2.832224e+14
2.832152e+14
2.786778e+14
2.713911e+14
2.607565e+14
2.293643e+14
1.940832e+14
2.200583e+14
2.265697e+14
2.290716e+14
2.290121e+14
2.263907e+14
2.197398e+14
1.938068e+14
1.938848e+14
2.325394e+14
2.546499e+14
3.207589e+14
3.327574e+14
3.397781e+14
3.429694e+14
3.42903e+14
3.395664e+14
3.324065e+14
3.20492e+14
2.544586e+14
2.323659e+14
1.938232e+14
2.138443e+14
3.110449e+14
3.408173e+14
3.758154e+14
4.140971e+14
4.318767e+14
4.428032e+14
4.479235e+14
4.478559e+14
4.425962e+14
4.315319e+14
4.136716e+14
3.754481e+14
3.404741e+14
3.107286e+14
2.137896e+14
2.004077e+14
2.490851e+14
3.345935e+14
3.977412e+14
4.658927e+14
5.422672e+14
5.811309e+14
6.037767e+14
6.188451e+14
6.266418e+14
6.265462e+14
6.185593e+14
6.033078e+14
5.805093e+14
5.415801e+14
4.653124e+14
3.973216e+14
3.341933e+14
2.488822e+14
2.00233e+14
2.023208e+14
3.050366e+14
3.541697e+14
4.405848e+14
5.52359e+14
6.315802e+14
6.97836e+14
8.02396e+14
8.512282e+14
8.799717e+14
8.942435e+14
8.941224e+14
8.796237e+14
8.506854e+14
8.017282e+14
6.972145e+14
6.309253e+14
5.516669e+14
4.399888e+14
3.538166e+14
3.046611e+14
2.021344e+14
2.004368e+14
3.051269e+14
3.657689e+14
4.585094e+14
5.928557e+14
6.917977e+14
8.264163e+14
9.134865e+14
9.890206e+14
1.045105e+15
1.083117e+15
1.102026e+15
1.101879e+15
1.082708e+15
1.044423e+15
9.881338e+14
9.125127e+14
8.253838e+14
6.908475e+14
5.920117e+14
4.579501e+14
3.652536e+14
3.046974e+14
2.002174e+14
2.492526e+14
3.543449e+14
4.58621e+14
6.024462e+14
7.15266e+14
8.738872e+14
9.902065e+14
1.085009e+15
1.165983e+15
1.231421e+15
1.278056e+15
1.297158e+15
1.296976e+15
1.277519e+15
1.230598e+15
1.164986e+15
1.083926e+15
9.890617e+14
8.727627e+14
7.142657e+14
6.014861e+14
4.579554e+14
3.538721e+14
2.489513e+14
2.14148e+14
3.347785e+14
4.407447e+14
5.931392e+14
7.153432e+14
8.882492e+14
1.026106e+15
1.14714e+15
1.2516e+15
1.339843e+15
1.405697e+15
1.4525e+15
1.479441e+15
1.47925e+15
1.451949e+15
1.404855e+15
1.338808e+15
1.250449e+15
1.145932e+15
1.024942e+15
8.871398e+14
7.144167e+14
5.922806e+14
4.401542e+14
3.343441e+14
2.138433e+14
1.94052e+14
3.113177e+14
3.980428e+14
5.526964e+14
6.922918e+14
8.742541e+14
1.026269e+15
1.169427e+15
1.299719e+15
1.405951e+15
1.493523e+15
1.566553e+15
1.617899e+15
1.645618e+15
1.64545e+15
1.617411e+15
1.565809e+15
1.492607e+15
1.404903e+15
1.298617e+15
1.168343e+15
1.025196e+15
8.732356e+14
6.914035e+14
5.518737e+14
3.975877e+14
3.109101e+14
1.937823e+14
2.328191e+14
3.411952e+14
4.662666e+14
6.322493e+14
8.270479e+14
9.907053e+14
1.147375e+15
1.299793e+15
1.429972e+15
1.544971e+15
1.638e+15
1.710292e+15
1.75886e+15
1.783628e+15
1.783496e+15
1.758482e+15
1.709738e+15
1.637316e+15
1.544192e+15
1.429164e+15
1.298995e+15
1.146563e+15
9.898949e+14
8.262269e+14
6.314085e+14
4.658039e+14
3.408453e+14
2.325345e+14
2.549443e+14
3.761867e+14
5.42677e+14
6.987532e+14
9.14286e+14
1.085612e+15
1.251919e+15
1.406161e+15
1.545091e+15
1.664411e+15
1.757121e+15
1.825519e+15
1.870553e+15
1.893006e+15
1.892926e+15
1.870318e+15
1.825165e+15
1.756684e+15
1.663926e+15
1.5446e+15
1.405686e+15
1.251409e+15
1.085007e+15
9.135737e+14
6.979662e+14
5.422814e+14
3.758907e+14
2.546843e+14
1.942991e+14
3.211929e+14
4.144633e+14
5.817188e+14
8.034845e+14
9.900303e+14
1.166743e+15
1.340402e+15
1.493955e+15
1.63831e+15
1.757293e+15
1.847745e+15
1.912987e+15
1.955395e+15
1.976328e+15
1.976286e+15
1.955255e+15
1.912743e+15
1.847415e+15
1.756893e+15
1.637864e+15
1.493478e+15
1.339876e+15
1.166103e+15
9.892543e+14
8.026264e+14
5.812618e+14
4.141437e+14
3.20766e+14
1.94053e+14
2.201948e+14
3.330883e+14
4.323731e+14
6.045816e+14
8.524971e+14
1.046361e+15
1.232385e+15
1.406486e+15
1.567212e+15
1.710858e+15
1.825977e+15
1.9133e+15
1.976038e+15
2.016645e+15
2.036631e+15
2.036579e+15
2.016481e+15
1.975753e+15
1.912948e+15
1.825599e+15
1.710473e+15
1.566812e+15
1.406034e+15
1.23187e+15
1.045625e+15
8.516763e+14
6.040522e+14
4.319804e+14
3.327589e+14
2.199789e+14
2.267981e+14
3.40183e+14
4.434032e+14
6.198398e+14
8.814502e+14
1.084682e+15
1.279401e+15
1.453612e+15
1.618846e+15
1.759715e+15
1.87138e+15
1.9562e+15
2.01718e+15
2.056591e+15
2.075896e+15
2.075732e+15
2.056154e+15
2.016576e+15
1.955586e+15
1.870942e+15
1.75944e+15
1.61862e+15
1.453325e+15
1.278979e+15
1.084021e+15
8.807314e+14
6.193134e+14
4.430278e+14
3.398677e+14
2.265508e+14
2.29405e+14
3.435116e+14
4.48649e+14
6.277933e+14
8.959017e+14
1.10382e+15
1.29885e+15
1.480924e+15
1.64691e+15
1.784789e+15
1.894097e+15
1.977384e+15
2.037543e+15
2.076439e+15
2.095447e+15
2.095184e+15
2.075787e+15
2.036724e+15
1.976642e+15
1.893597e+15
1.784535e+15
1.64677e+15
1.480743e+15
1.298518e+15
1.103302e+15
8.953101e+14
6.273201e+14
4.48289e+14
3.431828e+14
2.291569e+14
2.294321e+14
3.435399e+14
4.486682e+14
6.278204e+14
8.959207e+14
1.103873e+15
1.298979e+15
1.481113e+15
1.647127e+15
1.784998e+15
1.894269e+15
1.977517e+15
2.037666e+15
2.076585e+15
2.095632e+15
2.09538e+15
2.075961e+15
2.036868e+15
1.976769e+15
1.893734e+15
1.78471e+15
1.646987e+15
1.48097e+15
1.298709e+15
1.103469e+15
8.95453e+14
6.274107e+14
4.483515e+14
3.432412e+14
2.292076e+14
2.26899e+14
3.403042e+14
4.434891e+14
6.199321e+14
8.81518e+14
1.084905e+15
1.279854e+15
1.454162e+15
1.619457e+15
1.760323e+15
1.871912e+15
1.956625e+15
2.017613e+15
2.057086e+15
2.076446e+15
2.076268e+15
2.056632e+15
2.017012e+15
1.956033e+15
1.871464e+15
1.760071e+15
1.619342e+15
1.45406e+15
1.279639e+15
1.084611e+15
8.811623e+14
6.195371e+14
4.431974e+14
3.400336e+14
2.266953e+14
2.203854e+14
3.332865e+14
4.325271e+14
6.047736e+14
8.52633e+14
1.046741e+15
1.233088e+15
1.407333e+15
1.568128e+15
1.711805e+15
1.826908e+15
1.914174e+15
1.976863e+15
2.017476e+15
2.037474e+15
2.037403e+15
2.017305e+15
1.976629e+15
1.913938e+15
1.826738e+15
1.711739e+15
1.568134e+15
1.407319e+15
1.23296e+15
1.046557e+15
8.523773e+14
6.043416e+14
4.322317e+14
3.330339e+14
2.201959e+14
1.945144e+14
3.213565e+14
4.147508e+14
5.820799e+14
8.036842e+14
9.905137e+14
1.167492e+15
1.341392e+15
1.495057e+15
1.639475e+15
1.758447e+15
1.848858e+15
1.914074e+15
1.956507e+15
1.977497e+15
1.977545e+15
1.956661e+15
1.914303e+15
1.849125e+15
1.758723e+15
1.639733e+15
1.495277e+15
1.341555e+15
1.167589e+15
9.904645e+14
8.035532e+14
5.816095e+14
4.144576e+14
3.211756e+14
1.9434e+14
2.55116e+14
3.764804e+14
5.43149e+14
6.989421e+14
9.148212e+14
1.086322e+15
1.252917e+15
1.407314e+15
1.54631e+15
1.66567e+15
1.75844e+15
1.826934e+15
1.872102e+15
1.894686e+15
1.894811e+15
1.872469e+15
1.827495e+15
1.759115e+15
1.666366e+15
1.546929e+15
1.407792e+15
1.253304e+15
1.086599e+15
9.148613e+14
6.989626e+14
5.426834e+14
3.761946e+14
2.549543e+14
2.329102e+14
3.414156e+14
4.666679e+14
6.325797e+14
8.276213e+14
9.913681e+14
1.148283e+15
1.300951e+15
1.431302e+15
1.546493e+15
1.639744e+15
1.712261e+15
1.76106e+15
1.78601e+15
1.78614e+15
1.761434e+15
1.712837e+15
1.640463e+15
1.547284e+15
1.43206e+15
1.30159e+15
1.148813e+15
9.917106e+14
8.276738e+14
6.326131e+14
4.66376e+14
3.412362e+14
2.328385e+14
1.940743e+14
3.116025e+14
3.984247e+14
5.531351e+14
6.928551e+14
8.749621e+14
1.027244e+15
1.170724e+15
1.301317e+15
1.407868e+15
1.495773e+15
1.569085e+15
1.620716e+15
1.648656e+15
1.648753e+15
1.620968e+15
1.569456e+15
1.496235e+15
1.40842e+15
1.30188e+15
1.171235e+15
1.027668e+15
8.752142e+14
6.927989e+14
5.531413e+14
3.981857e+14
3.113945e+14
1.941065e+14
2.141612e+14
3.350497e+14
4.411628e+14
5.936165e+14
7.161429e+14
8.893301e+14
1.027531e+15
1.1489e+15
1.253727e+15
1.342386e+15
1.408566e+15
1.455666e+15
1.482837e+15
1.482897e+15
1.455795e+15
1.408729e+15
1.342598e+15
1.254029e+15
1.149224e+15
1.027841e+15
8.895878e+14
7.162945e+14
5.936878e+14
4.41104e+14
3.34942e+14
2.141283e+14
2.494034e+14
3.546638e+14
4.590851e+14
6.031619e+14
7.162164e+14
8.7537e+14
9.920937e+14
1.087252e+15
1.168544e+15
1.234341e+15
1.281348e+15
1.300683e+15
1.300691e+15
1.281356e+15
1.234368e+15
1.168628e+15
1.087348e+15
9.922144e+14
8.755139e+14
7.16345e+14
6.032132e+14
4.590485e+14
3.545572e+14
2.493181e+14
2.006445e+14
3.054215e+14
3.661678e+14
4.590996e+14
5.938794e+14
6.932115e+14
8.281738e+14
9.156276e+14
9.915142e+14
1.047924e+15
1.086227e+15
1.105299e+15
1.105277e+15
1.086195e+15
1.047859e+15
9.914628e+14
9.156403e+14
8.282717e+14
6.932784e+14
5.939017e+14
4.59091e+14
3.661152e+14
3.053449e+14
2.005644e+14
2.024838e+14
3.054484e+14
3.547549e+14
4.412307e+14
5.532785e+14
6.328534e+14
6.995644e+14
8.044878e+14
8.535386e+14
8.824857e+14
8.968716e+14
8.968329e+14
8.824778e+14
8.535417e+14
8.044753e+14
6.995238e+14
6.329681e+14
5.534114e+14
4.412774e+14
3.547176e+14
3.053967e+14
2.024454e+14
2.006591e+14
2.49508e+14
3.350949e+14
3.984828e+14
4.667394e+14
5.433555e+14
5.823331e+14
6.050706e+14
6.203107e+14
6.28485e+14
6.283957e+14
6.204123e+14
6.052254e+14
5.824735e+14
5.434807e+14
4.668227e+14
3.984888e+14
3.350909e+14
2.494339e+14
2.006351e+14
2.142144e+14
3.1157e+14
3.414902e+14
3.765634e+14
4.148512e+14
4.326481e+14
4.43656e+14
4.489694e+14
4.488737e+14
4.436785e+14
4.32664e+14
4.148475e+14
3.765134e+14
3.414046e+14
3.116218e+14
2.141701e+14
1.940951e+14
2.329689e+14
2.551283e+14
3.214352e+14
3.333204e+14
3.403679e+14
3.438039e+14
3.437613e+14
3.403258e+14
3.332452e+14
3.213975e+14
2.550682e+14
2.328777e+14
1.941378e+14
1.944745e+14
2.203442e+14
2.268711e+14
2.295073e+14
2.294806e+14
2.26824e+14
2.202577e+14
1.943103e+14
1.7223e+14
1.940989e+14
1.989845e+14
1.989199e+14
1.939002e+14
1.720723e+14
1.655517e+14
2.058284e+14
2.303087e+14
2.581844e+14
3.206792e+14
3.342413e+14
3.394523e+14
3.393043e+14
3.338484e+14
3.201859e+14
2.579909e+14
2.301597e+14
2.056452e+14
1.654722e+14
1.669027e+14
2.160728e+14
3.000672e+14
3.510679e+14
3.958727e+14
4.601381e+14
4.956992e+14
5.104724e+14
5.176617e+14
5.174572e+14
5.099289e+14
4.950784e+14
4.596779e+14
3.953916e+14
3.504849e+14
2.996573e+14
2.15902e+14
1.668652e+14
1.867296e+14
2.899132e+14
3.628096e+14
4.65744e+14
5.257025e+14
5.851229e+14
6.383872e+14
7.269414e+14
7.610511e+14
7.746396e+14
7.744213e+14
7.604407e+14
7.260868e+14
6.374953e+14
5.8411e+14
5.247207e+14
4.646693e+14
3.623248e+14
2.895084e+14
1.866745e+14
2.000936e+14
3.220705e+14
4.188197e+14
5.35574e+14
6.282035e+14
7.557169e+14
8.384702e+14
9.020336e+14
9.552053e+14
9.878466e+14
1.002869e+15
1.002641e+15
9.871893e+14
9.542001e+14
9.008243e+14
8.371887e+14
7.544799e+14
6.271017e+14
5.344803e+14
4.18205e+14
3.215871e+14
1.999373e+14
2.075396e+14
3.483261e+14
4.824207e+14
5.857323e+14
6.87814e+14
8.547502e+14
9.745354e+14
1.069148e+15
1.136333e+15
1.187304e+15
1.220341e+15
1.236312e+15
1.236069e+15
1.21963e+15
1.186183e+15
1.134905e+15
1.067533e+15
9.729288e+14
8.533462e+14
6.866849e+14
5.846119e+14
4.815199e+14
3.477705e+14
2.072949e+14
2.001815e+14
3.484011e+14
5.039249e+14
6.237902e+14
7.930993e+14
9.331972e+14
1.073402e+15
1.190464e+15
1.287774e+15
1.369833e+15
1.43013e+15
1.468572e+15
1.487195e+15
1.486929e+15
1.4678e+15
1.428926e+15
1.368317e+15
1.286065e+15
1.188663e+15
1.071635e+15
9.315343e+14
7.916477e+14
6.226397e+14
5.028461e+14
3.478571e+14
1.999416e+14
1.868847e+14
3.221859e+14
4.826852e+14
6.238798e+14
8.138266e+14
9.803642e+14
1.135144e+15
1.272109e+15
1.40038e+15
1.509289e+15
1.598794e+15
1.665016e+15
1.707902e+15
1.728742e+15
1.728445e+15
1.707047e+15
1.663669e+15
1.597078e+15
1.507344e+15
1.398311e+15
1.270024e+15
1.133138e+15
9.785678e+14
8.123038e+14
6.227703e+14
4.818237e+14
3.217489e+14
1.866463e+14
1.670617e+14
2.900782e+14
4.192204e+14
5.860347e+14
7.934492e+14
9.806212e+14
1.156527e+15
1.313039e+15
1.464774e+15
1.602747e+15
1.719236e+15
1.813875e+15
1.885291e+15
1.932015e+15
1.954092e+15
1.953757e+15
1.931048e+15
1.883798e+15
1.812013e+15
1.717145e+15
1.600522e+15
1.462501e+15
1.310793e+15
1.154373e+15
9.787412e+14
7.919359e+14
5.849778e+14
4.186112e+14
2.896659e+14
1.668289e+14
2.16307e+14
3.632554e+14
5.358661e+14
6.8856e+14
9.338655e+14
1.13575e+15
1.313386e+15
1.485793e+15
1.647351e+15
1.791318e+15
1.913809e+15
2.012937e+15
2.087986e+15
2.138424e+15
2.164033e+15
2.163691e+15
2.137436e+15
2.086471e+15
2.011061e+15
1.911702e+15
1.789083e+15
1.645066e+15
1.483499e+15
1.311146e+15
1.133645e+15
9.320793e+14
6.872624e+14
5.350084e+14
3.627308e+14
2.160599e+14
1.658081e+14
3.003316e+14
4.660254e+14
6.288753e+14
8.558382e+14
1.074479e+15
1.27313e+15
1.465503e+15
1.647679e+15
1.814865e+15
1.963327e+15
2.090016e+15
2.193595e+15
2.274257e+15
2.329581e+15
2.357939e+15
2.357639e+15
2.328712e+15
2.272928e+15
2.191952e+15
2.088164e+15
1.961358e+15
1.812823e+15
1.645569e+15
1.463352e+15
1.271013e+15
1.072536e+15
8.542565e+14
6.276126e+14
4.653781e+14
2.999332e+14
1.65704e+14
2.059754e+14
3.513729e+14
5.261926e+14
7.568757e+14
9.759155e+14
1.191973e+15
1.401774e+15
1.603761e+15
1.791852e+15
1.963514e+15
2.115722e+15
2.248373e+15
2.357741e+15
2.442181e+15
2.499453e+15
2.528422e+15
2.528189e+15
2.498791e+15
2.441198e+15
2.356538e+15
2.247028e+15
2.114295e+15
1.962022e+15
1.79026e+15
1.602037e+15
1.399908e+15
1.19011e+15
9.743147e+14
7.554516e+14
5.253153e+14
3.508863e+14
2.057844e+14
2.306243e+14
3.964325e+14
5.860464e+14
8.400213e+14
1.070839e+15
1.289706e+15
1.51104e+15
1.720474e+15
1.914514e+15
2.09038e+15
2.24855e+15
2.386606e+15
2.499304e+15
2.584798e+15
2.642105e+15
2.670832e+15
2.670696e+15
2.641711e+15
2.584199e+15
2.498574e+15
2.385816e+15
2.247736e+15
2.089531e+15
1.913524e+15
1.719217e+15
1.509426e+15
1.287942e+15
1.069247e+15
8.384962e+14
5.849148e+14
3.95671e+14
2.302142e+14
2.586454e+14
4.611881e+14
6.398326e+14
9.039234e+14
1.138428e+15
1.372156e+15
1.600923e+15
1.815417e+15
2.013919e+15
2.19423e+15
2.358169e+15
2.499534e+15
2.613446e+15
2.698735e+15
2.755377e+15
2.783611e+15
2.783541e+15
2.755161e+15
2.698382e+15
2.612995e+15
2.499011e+15
2.357588e+15
2.19357e+15
2.013095e+15
1.814265e+15
1.599337e+15
1.370375e+15
1.136748e+15
9.022791e+14
6.384112e+14
4.59913e+14
2.580285e+14
1.725763e+14
3.212115e+14
4.969138e+14
7.287178e+14
9.573834e+14
1.189783e+15
1.432842e+15
1.667567e+15
1.887257e+15
2.089355e+15
2.275248e+15
2.442969e+15
2.585398e+15
2.699127e+15
2.783676e+15
2.839497e+15
2.867213e+15
2.867127e+15
2.839243e+15
2.783279e+15
2.698688e+15
2.584957e+15
2.442536e+15
2.274787e+15
2.08874e+15
1.886284e+15
1.666125e+15
1.431175e+15
1.188122e+15
9.557e+14
7.270868e+14
4.955323e+14
3.20392e+14
1.721262e+14
1.943397e+14
3.34872e+14
5.117074e+14
7.629705e+14
9.902478e+14
1.223158e+15
1.471678e+15
1.710928e+15
1.934541e+15
2.140332e+15
2.331038e+15
2.500667e+15
2.643208e+15
2.756438e+15
2.840204e+15
2.895315e+15
2.922542e+15
2.922314e+15
2.8947e+15
2.83937e+15
2.755626e+15
2.642693e+15
2.500405e+15
2.330841e+15
2.139969e+15
1.933786e+15
1.709723e+15
1.470251e+15
1.221682e+15
9.887364e+14
7.614671e+14
5.104506e+14
3.340616e+14
1.939945e+14
1.993386e+14
3.402206e+14
5.189663e+14
7.767383e+14
1.005522e+15
1.239438e+15
1.490667e+15
1.732226e+15
1.957211e+15
2.166582e+15
2.359975e+15
2.53012e+15
2.672333e+15
2.785041e+15
2.868457e+15
2.923292e+15
2.950299e+15
2.949949e+15
2.922381e+15
2.867309e+15
2.784031e+15
2.671713e+15
2.529876e+15
2.359881e+15
2.166351e+15
1.956626e+15
1.731268e+15
1.489515e+15
1.238225e+15
1.004273e+15
7.755068e+14
5.180002e+14
3.395569e+14
1.9902e+14
1.993544e+14
3.402791e+14
5.190971e+14
7.768138e+14
1.005582e+15
1.239483e+15
1.490718e+15
1.732341e+15
1.957444e+15
2.166906e+15
2.360326e+15
2.530448e+15
2.672603e+15
2.785251e+15
2.868656e+15
2.923517e+15
2.95056e+15
2.950222e+15
2.922635e+15
2.86753e+15
2.784233e+15
2.671932e+15
2.530145e+15
2.360208e+15
2.166711e+15
1.956982e+15
1.731607e+15
1.489829e+15
1.238529e+15
1.004598e+15
7.758273e+14
5.182657e+14
3.397267e+14
1.991005e+14
1.944718e+14
3.349969e+14
5.118388e+14
7.631062e+14
9.904005e+14
1.223291e+15
1.471826e+15
1.711268e+15
1.935221e+15
2.141255e+15
2.332036e+15
2.501627e+15
2.644055e+15
2.757135e+15
2.84091e+15
2.896085e+15
2.923353e+15
2.923103e+15
2.895423e+15
2.840045e+15
2.756328e+15
2.643504e+15
2.501372e+15
2.331942e+15
2.141123e+15
1.934903e+15
1.710762e+15
1.471178e+15
1.222545e+15
9.896463e+14
7.623503e+14
5.111858e+14
3.34556e+14
1.942452e+14
1.727608e+14
3.21192e+14
4.969113e+14
7.288496e+14
9.575903e+14
1.190018e+15
1.433091e+15
1.668098e+15
1.888282e+15
2.090726e+15
2.276741e+15
2.444475e+15
2.586879e+15
2.700532e+15
2.784987e+15
2.840777e+15
2.868477e+15
2.868374e+15
2.840508e+15
2.784639e+15
2.700226e+15
2.586719e+15
2.444492e+15
2.276848e+15
2.090783e+15
1.888187e+15
1.667844e+15
1.432671e+15
1.18943e+15
9.570286e+14
7.283111e+14
4.964917e+14
3.209222e+14
1.72592e+14
2.587308e+14
4.610607e+14
6.399988e+14
9.041986e+14
1.138805e+15
1.372521e+15
1.601601e+15
1.816616e+15
2.015516e+15
2.196021e+15
2.360042e+15
2.501389e+15
2.615237e+15
2.70047e+15
2.757118e+15
2.785423e+15
2.785495e+15
2.757331e+15
2.700802e+15
2.615666e+15
2.501881e+15
2.360553e+15
2.196506e+15
2.015906e+15
1.816846e+15
1.601621e+15
1.372335e+15
1.138357e+15
9.038127e+14
6.396463e+14
4.608859e+14
2.585266e+14
2.307101e+14
3.965919e+14
5.863002e+14
8.40298e+14
1.071332e+15
1.290183e+15
1.511825e+15
1.721708e+15
1.916146e+15
2.092271e+15
2.250566e+15
2.388689e+15
2.501467e+15
2.587089e+15
2.644582e+15
2.67355e+15
2.673738e+15
2.645128e+15
2.58793e+15
2.50251e+15
2.389809e+15
2.251629e+15
2.09319e+15
1.9169e+15
1.722237e+15
1.512072e+15
1.290214e+15
1.071027e+15
8.400869e+14
5.860175e+14
3.963375e+14
2.304984e+14
2.062097e+14
3.517065e+14
5.266326e+14
7.571732e+14
9.764269e+14
1.192603e+15
1.402667e+15
1.604987e+15
1.793465e+15
1.965487e+15
2.117995e+15
2.250937e+15
2.360616e+15
2.445392e+15
2.503026e+15
2.532367e+15
2.532559e+15
2.503585e+15
2.446265e+15
2.36173e+15
2.252185e+15
2.119245e+15
1.966626e+15
1.794422e+15
1.605666e+15
1.403026e+15
1.192765e+15
9.763211e+14
7.571208e+14
5.262949e+14
3.513934e+14
2.059624e+14
1.660051e+14
3.005929e+14
4.666222e+14
6.291636e+14
8.562624e+14
1.075211e+15
1.274163e+15
1.466892e+15
1.649519e+15
1.817189e+15
1.966116e+15
2.09326e+15
2.197304e+15
2.278425e+15
2.33421e+15
2.363001e+15
2.363129e+15
2.334577e+15
2.279e+15
2.198059e+15
2.094148e+15
1.96704e+15
1.81807e+15
1.650275e+15
1.467431e+15
1.274464e+15
1.07543e+15
8.56328e+14
6.292337e+14
4.661371e+14
3.004115e+14
1.658261e+14
2.164686e+14
3.634658e+14
5.363758e+14
6.887973e+14
9.346272e+14
1.136835e+15
1.314908e+15
1.487842e+15
1.649983e+15
1.794527e+15
1.917582e+15
2.017281e+15
2.092867e+15
2.143809e+15
2.169856e+15
2.169909e+15
2.14396e+15
2.093113e+15
2.017645e+15
1.918067e+15
1.795074e+15
1.650537e+15
1.488336e+15
1.31529e+15
1.137113e+15
9.3482e+14
6.889914e+14
5.36271e+14
3.633344e+14
2.163424e+14
1.671215e+14
2.903361e+14
4.195534e+14
5.867256e+14
7.943254e+14
9.817555e+14
1.158115e+15
1.3152e+15
1.467597e+15
1.60623e+15
1.723345e+15
1.818575e+15
1.890551e+15
1.937781e+15
1.960254e+15
1.960239e+15
1.937747e+15
1.89053e+15
1.818623e+15
1.723482e+15
1.606445e+15
1.467844e+15
1.315431e+15
1.158287e+15
9.818382e+14
7.942993e+14
5.865983e+14
4.19419e+14
2.902515e+14
1.671391e+14
1.86959e+14
3.225652e+14
4.832827e+14
6.245583e+14
8.148299e+14
9.818964e+14
1.137302e+15
1.274935e+15
1.403837e+15
1.513398e+15
1.603502e+15
1.670241e+15
1.713563e+15
1.734712e+15
1.734653e+15
1.713421e+15
1.67005e+15
1.603325e+15
1.5133e+15
1.40383e+15
1.274928e+15
1.137291e+15
9.819191e+14
8.148487e+14
6.245765e+14
4.830482e+14
3.224337e+14
1.869691e+14
2.003041e+14
3.487229e+14
5.046869e+14
6.24551e+14
7.945286e+14
9.351101e+14
1.075919e+15
1.193565e+15
1.291511e+15
1.374111e+15
1.434845e+15
1.473654e+15
1.492536e+15
1.492453e+15
1.47349e+15
1.434629e+15
1.373876e+15
1.291306e+15
1.193437e+15
1.075757e+15
9.349402e+14
7.944537e+14
6.245287e+14
5.045963e+14
3.486584e+14
2.002641e+14
2.076767e+14
3.487364e+14
4.834264e+14
5.869552e+14
6.894015e+14
8.569298e+14
9.771816e+14
1.072266e+15
1.139908e+15
1.191244e+15
1.224607e+15
1.240876e+15
1.240761e+15
1.224447e+15
1.191039e+15
1.139683e+15
1.072082e+15
9.769889e+14
8.566595e+14
6.890617e+14
5.868422e+14
4.833666e+14
3.487088e+14
2.076532e+14
2.002554e+14
3.225143e+14
4.198006e+14
5.366836e+14
6.294976e+14
7.576927e+14
8.409704e+14
9.049949e+14
9.584788e+14
9.91345e+14
1.00651e+15
1.006378e+15
9.911166e+14
9.581699e+14
9.04667e+14