/*--------------------------------*- C++ -*----------------------------------*\
  =========                 |
  \\      /  F ield         | OpenFOAM: The Open Source CFD Toolbox
   \\    /   O peration     | Website:  https://openfoam.org
    \\  /    A nd           | Version:  6
     \\/     M anipulation  |
\*---------------------------------------------------------------------------*/
FoamFile
{
    version     2.0;
    format      ascii;
    class       volScalarField;
    location    "49.8/region0/neutronTransport";
    object      precursor0.dnp;
}
// * * * * * * * * * * * * * * * * * * * * * * * * * * * * * * * * * * * * * //

dimensions      [0 -3 0 0 0 0 0];

internalField   nonuniform List<scalar> 
203709
(
5.962313e+14
6.559566e+14
6.558637e+14
5.963362e+14
6.231635e+14
6.97576e+14
8.635498e+14
8.544506e+14
8.543293e+14
8.634522e+14
6.974265e+14
6.231151e+14
6.088923e+14
7.000931e+14
8.748254e+14
8.723198e+14
8.971203e+14
9.032935e+14
9.032435e+14
8.970208e+14
8.721486e+14
8.746892e+14
6.999461e+14
6.087759e+14
6.08984e+14
8.504271e+14
8.685515e+14
9.026057e+14
9.202927e+14
9.358514e+14
9.427275e+14
9.427333e+14
9.357521e+14
9.201274e+14
9.024655e+14
8.684044e+14
8.503175e+14
6.088931e+14
7.001736e+14
8.685804e+14
9.077979e+14
9.356212e+14
9.566864e+14
9.719032e+14
9.794659e+14
9.794703e+14
9.717958e+14
9.565392e+14
9.354832e+14
9.076282e+14
8.684042e+14
7.000133e+14
6.233376e+14
8.749509e+14
9.027046e+14
9.356611e+14
9.643249e+14
9.869386e+14
1.00262e+15
1.010392e+15
1.010381e+15
1.002564e+15
9.868505e+14
9.641475e+14
9.354445e+14
9.024891e+14
8.747413e+14
6.231432e+14
6.977114e+14
8.724439e+14
9.204261e+14
9.567863e+14
9.870385e+14
1.010522e+15
1.026144e+15
1.033522e+15
1.033515e+15
1.026137e+15
1.010416e+15
9.868443e+14
9.566096e+14
9.202539e+14
8.722537e+14
6.97565e+14
5.96671e+14
8.638809e+14
8.974054e+14
9.361177e+14
9.7219e+14
1.002888e+15
1.026349e+15
1.040869e+15
1.048026e+15
1.047978e+15
1.04075e+15
1.026112e+15
1.002647e+15
9.719854e+14
9.359434e+14
8.972512e+14
8.637956e+14
5.963767e+14
6.562653e+14
8.547554e+14
9.035936e+14
9.430966e+14
9.798273e+14
1.010709e+15
1.033839e+15
1.048227e+15
1.056019e+15
1.055725e+15
1.048005e+15
1.033597e+15
1.010503e+15
9.796265e+14
9.42917e+14
9.034947e+14
8.546263e+14
6.560598e+14
6.563798e+14
8.549807e+14
9.037187e+14
9.431255e+14
9.798492e+14
1.010742e+15
1.033838e+15
1.048252e+15
1.056243e+15
1.055946e+15
1.048072e+15
1.033623e+15
1.010497e+15
9.796579e+14
9.429624e+14
9.03556e+14
8.547915e+14
6.562255e+14
5.96628e+14
8.641926e+14
8.976248e+14
9.362885e+14
9.723174e+14
1.002978e+15
1.026434e+15
1.041022e+15
1.048261e+15
1.048149e+15
1.040888e+15
1.026262e+15
1.002754e+15
9.720971e+14
9.360741e+14
8.974085e+14
8.63892e+14
5.965363e+14
6.979009e+14
8.727331e+14
9.207361e+14
9.570979e+14
9.872809e+14
1.010759e+15
1.0264e+15
1.03385e+15
1.033748e+15
1.026358e+15
1.010637e+15
9.871049e+14
9.568596e+14
9.20473e+14
8.725185e+14
6.97774e+14
6.235619e+14
8.753181e+14
9.030319e+14
9.360009e+14
9.646255e+14
9.872611e+14
1.002911e+15
1.010793e+15
1.01074e+15
1.002951e+15
9.872332e+14
9.645683e+14
9.358884e+14
9.028879e+14
8.751464e+14
6.233956e+14
7.004696e+14
8.689139e+14
9.081597e+14
9.360103e+14
9.57096e+14
9.723811e+14
9.804072e+14
9.803821e+14
9.723704e+14
9.570916e+14
9.359907e+14
9.081317e+14
8.689202e+14
7.004021e+14
6.093137e+14
8.509235e+14
8.68999e+14
9.031192e+14
9.208023e+14
9.364392e+14
9.437344e+14
9.437295e+14
9.364244e+14
9.207879e+14
9.030629e+14
8.68924e+14
8.508618e+14
6.091185e+14
6.094008e+14
7.006081e+14
8.75494e+14
8.728864e+14
8.978498e+14
9.04278e+14
9.043374e+14
8.978287e+14
8.729026e+14
8.753987e+14
7.004188e+14
6.091839e+14
6.237384e+14
6.98122e+14
8.644506e+14
8.556585e+14
8.557666e+14
8.644304e+14
6.980756e+14
6.235955e+14
5.969619e+14
6.566701e+14
6.567119e+14
5.969239e+14
4.995291e+14
5.677819e+14
5.909034e+14
6.067685e+14
6.166818e+14
6.166682e+14
6.067289e+14
5.908221e+14
5.676713e+14
4.994532e+14
5.095697e+14
5.937348e+14
7.562018e+14
7.808854e+14
8.090538e+14
8.400713e+14
8.646104e+14
8.645903e+14
8.400484e+14
8.088648e+14
7.804807e+14
7.556322e+14
5.932072e+14
5.091109e+14
5.216322e+14
7.43841e+14
7.85634e+14
8.460301e+14
9.033358e+14
9.510186e+14
1.01259e+15
1.063363e+15
1.063311e+15
1.012468e+15
9.506037e+14
9.027269e+14
8.454471e+14
7.850185e+14
7.433384e+14
5.213294e+14
5.268464e+14
7.578512e+14
8.25949e+14
9.002975e+14
9.773515e+14
1.087043e+15
1.222876e+15
1.357869e+15
1.406271e+15
1.406153e+15
1.357428e+15
1.222318e+15
1.086504e+15
9.768573e+14
8.997709e+14
8.254239e+14
7.572485e+14
5.265678e+14
5.217081e+14
7.578148e+14
8.343446e+14
9.214257e+14
1.066109e+15
1.240525e+15
1.428164e+15
1.566185e+15
1.668913e+15
1.835689e+15
1.835515e+15
1.66854e+15
1.565621e+15
1.427448e+15
1.239919e+15
1.06548e+15
9.209423e+14
8.338024e+14
7.572668e+14
5.214137e+14
5.098128e+14
7.442159e+14
8.260698e+14
9.215057e+14
1.119501e+15
1.383828e+15
1.565395e+15
1.71477e+15
1.955063e+15
2.062679e+15
2.126142e+15
2.125987e+15
2.062235e+15
1.954427e+15
1.714093e+15
1.564673e+15
1.383068e+15
1.118857e+15
9.209175e+14
8.25558e+14
7.437227e+14
5.09513e+14
5.938978e+14
7.858286e+14
9.004351e+14
1.066198e+15
1.383863e+15
1.637591e+15
1.92611e+15
2.085884e+15
2.210712e+15
2.287798e+15
2.327031e+15
2.326914e+15
2.287438e+15
2.210221e+15
2.085294e+15
1.925432e+15
1.636953e+15
1.38333e+15
1.065717e+15
9.001044e+14
7.855497e+14
5.936377e+14
5.000878e+14
7.566188e+14
8.462376e+14
9.775791e+14
1.240657e+15
1.56571e+15
1.926266e+15
2.143107e+15
2.283053e+15
2.37986e+15
2.441346e+15
2.471681e+15
2.47161e+15
2.441103e+15
2.379519e+15
2.282638e+15
2.142625e+15
1.925798e+15
1.565354e+15
1.240427e+15
9.773753e+14
8.459519e+14
7.561143e+14
4.996164e+14
5.684364e+14
7.816201e+14
9.036969e+14
1.087497e+15
1.428747e+15
1.715321e+15
2.086273e+15
2.283266e+15
2.410286e+15
2.495998e+15
2.550182e+15
2.576598e+15
2.576561e+15
2.550037e+15
2.495725e+15
2.409869e+15
2.282735e+15
2.085683e+15
1.714775e+15
1.428258e+15
1.086966e+15
9.032948e+14
7.809813e+14
5.678529e+14
5.916075e+14
8.099898e+14
9.515903e+14
1.22333e+15
1.56702e+15
1.95583e+15
2.211405e+15
2.380446e+15
2.496427e+15
2.575972e+15
2.626385e+15
2.651008e+15
2.650967e+15
2.62624e+15
2.575642e+15
2.495938e+15
2.379901e+15
2.210828e+15
1.955198e+15
1.566234e+15
1.223012e+15
9.512537e+14
8.092951e+14
5.910201e+14
6.074869e+14
8.411534e+14
1.013638e+15
1.358948e+15
1.67004e+15
2.063772e+15
2.288838e+15
2.442408e+15
2.551226e+15
2.627097e+15
2.675143e+15
2.698556e+15
2.698349e+15
2.674621e+15
2.626339e+15
2.55043e+15
2.441788e+15
2.28838e+15
2.063331e+15
1.669505e+15
1.35855e+15
1.013098e+15
8.405204e+14
6.070207e+14
6.173556e+14
8.656134e+14
1.064447e+15
1.407644e+15
1.83717e+15
2.127554e+15
2.328403e+15
2.473043e+15
2.577929e+15
2.652173e+15
2.699256e+15
2.722292e+15
2.72187e+15
2.698428e+15
2.651167e+15
2.577008e+15
2.472369e+15
2.327984e+15
2.127267e+15
1.836847e+15
1.407311e+15
1.064097e+15
8.652043e+14
6.170175e+14
6.172668e+14
8.654702e+14
1.064322e+15
1.407626e+15
1.837341e+15
2.127788e+15
2.328622e+15
2.473219e+15
2.578062e+15
2.652283e+15
2.699415e+15
2.722585e+15
2.722175e+15
2.698643e+15
2.651321e+15
2.577127e+15
2.472504e+15
2.328171e+15
2.127527e+15
1.837122e+15
1.407372e+15
1.064066e+15
8.651799e+14
6.170058e+14
6.072741e+14
8.409876e+14
1.013771e+15
1.359313e+15
1.67039e+15
2.064365e+15
2.28948e+15
2.442962e+15
2.551655e+15
2.62753e+15
2.675694e+15
2.69925e+15
2.698997e+15
2.675157e+15
2.626813e+15
2.550902e+15
2.442337e+15
2.289062e+15
2.064144e+15
1.670299e+15
1.359101e+15
1.013557e+15
8.408049e+14
6.07085e+14
5.914623e+14
8.100047e+14
9.520349e+14
1.223978e+15
1.567602e+15
1.956706e+15
2.212406e+15
2.381451e+15
2.497351e+15
2.576871e+15
2.627332e+15
2.652034e+15
2.651917e+15
2.627149e+15
2.576583e+15
2.497003e+15
2.38113e+15
2.212186e+15
1.956601e+15
1.567592e+15
1.223704e+15
9.517441e+14
8.098983e+14
5.913297e+14
5.684034e+14
7.817973e+14
9.042549e+14
1.088018e+15
1.429643e+15
1.716372e+15
2.087502e+15
2.284506e+15
2.411472e+15
2.497184e+15
2.551431e+15
2.577968e+15
2.577993e+15
2.55162e+15
2.49743e+15
2.411707e+15
2.284695e+15
2.087616e+15
1.716317e+15
1.429484e+15
1.087951e+15
9.040064e+14
7.817071e+14
5.682847e+14
5.001123e+14
7.569334e+14
8.468189e+14
9.781346e+14
1.241601e+15
1.566779e+15
1.927514e+15
2.144419e+15
2.284447e+15
2.38139e+15
2.443088e+15
2.473578e+15
2.473691e+15
2.44347e+15
2.381972e+15
2.285113e+15
2.145057e+15
1.927978e+15
1.56686e+15
1.241514e+15
9.781276e+14
8.466125e+14
7.568178e+14
5.000238e+14
5.943382e+14
7.863337e+14
9.009523e+14
1.066928e+15
1.384957e+15
1.638843e+15
1.927662e+15
2.087708e+15
2.212796e+15
2.290194e+15
2.329547e+15
2.329673e+15
2.290557e+15
2.213353e+15
2.08836e+15
1.928335e+15
1.639347e+15
1.385117e+15
1.06695e+15
9.010359e+14
7.861728e+14
5.940196e+14
5.102055e+14
7.446084e+14
8.266172e+14
9.222152e+14
1.120504e+15
1.385239e+15
1.567248e+15
1.716982e+15
1.957633e+15
2.065645e+15
2.129296e+15
2.129423e+15
2.065874e+15
1.957926e+15
1.717198e+15
1.567512e+15
1.385462e+15
1.12056e+15
9.221875e+14
8.266555e+14
7.444934e+14
5.097881e+14
5.221929e+14
7.586608e+14
8.35232e+14
9.22321e+14
1.0672e+15
1.242064e+15
1.43043e+15
1.568753e+15
1.67178e+15
1.838911e+15
1.839032e+15
1.671893e+15
1.568746e+15
1.430283e+15
1.242086e+15
1.06722e+15
9.222724e+14
8.351321e+14
7.58568e+14
5.219564e+14
5.2743e+14
7.586721e+14
8.268577e+14
9.014242e+14
9.786707e+14
1.08845e+15
1.224717e+15
1.360485e+15
1.409044e+15
1.409068e+15
1.360338e+15
1.224609e+15
1.088478e+15
9.785195e+14
9.012385e+14
8.26719e+14
7.585733e+14
5.272972e+14
5.220826e+14
7.448608e+14
7.866661e+14
8.471274e+14
9.045619e+14
9.526107e+14
1.01456e+15
1.06542e+15
1.065395e+15
1.014447e+15
9.523677e+14
9.044779e+14
8.471241e+14
7.865879e+14
7.447272e+14
5.219848e+14
5.102718e+14
5.944786e+14
7.573385e+14
7.823064e+14
8.106639e+14
8.417663e+14
8.66355e+14
8.663456e+14
8.417007e+14
8.10499e+14
7.821201e+14
7.573634e+14
5.944935e+14
5.102035e+14
5.00279e+14
5.68665e+14
5.918094e+14
6.076947e+14
6.176801e+14
6.176642e+14
6.077688e+14
5.918772e+14
5.686842e+14
5.002208e+14
4.232762e+14
4.799253e+14
4.941262e+14
4.995825e+14
4.994527e+14
4.937357e+14
4.792306e+14
4.226735e+14
4.228436e+14
5.071454e+14
5.553663e+14
6.995435e+14
7.25711e+14
7.410224e+14
7.479822e+14
7.478375e+14
7.405606e+14
7.249456e+14
6.989614e+14
5.54949e+14
5.067671e+14
4.227092e+14
4.663734e+14
6.783582e+14
7.432888e+14
8.196163e+14
9.031048e+14
9.418804e+14
9.657099e+14
9.768768e+14
9.767294e+14
9.652585e+14
9.411283e+14
9.021768e+14
8.18815e+14
7.425404e+14
6.776683e+14
4.66254e+14
4.370693e+14
5.4323e+14
7.297153e+14
8.674341e+14
1.016066e+15
1.182631e+15
1.267389e+15
1.316777e+15
1.34964e+15
1.366644e+15
1.366435e+15
1.349017e+15
1.315755e+15
1.266033e+15
1.181133e+15
1.0148e+15
8.665191e+14
7.288424e+14
5.427874e+14
4.366884e+14
4.412417e+14
6.652546e+14
7.72409e+14
9.608718e+14
1.20464e+15
1.377414e+15
1.521911e+15
1.749946e+15
1.856444e+15
1.919131e+15
1.950257e+15
1.949992e+15
1.918372e+15
1.855261e+15
1.74849e+15
1.520556e+15
1.375986e+15
1.203131e+15
9.59572e+14
7.716389e+14
6.644358e+14
4.408351e+14
4.371329e+14
6.654516e+14
7.977058e+14
9.999636e+14
1.29296e+15
1.508742e+15
1.802332e+15
1.992224e+15
2.156956e+15
2.279272e+15
2.362171e+15
2.40341e+15
2.403088e+15
2.36128e+15
2.277783e+15
2.155022e+15
1.9901e+15
1.80008e+15
1.50667e+15
1.291119e+15
9.987439e+14
7.96582e+14
6.645149e+14
4.366544e+14
5.435952e+14
7.727913e+14
1.000207e+15
1.313876e+15
1.559924e+15
1.905862e+15
2.159542e+15
2.366297e+15
2.542893e+15
2.685608e+15
2.787314e+15
2.828974e+15
2.828577e+15
2.786142e+15
2.683812e+15
2.54072e+15
2.363936e+15
2.157046e+15
1.903409e+15
1.557743e+15
1.311782e+15
9.987554e+14
7.717599e+14
5.429381e+14
4.670357e+14
7.301187e+14
9.612205e+14
1.293578e+15
1.560093e+15
1.937183e+15
2.237835e+15
2.501799e+15
2.729615e+15
2.922065e+15
3.065685e+15
3.167758e+15
3.226514e+15
3.226097e+15
3.166557e+15
3.063849e+15
2.919808e+15
2.727105e+15
2.499164e+15
2.235298e+15
1.934764e+15
1.558072e+15
1.291705e+15
9.599328e+14
7.291715e+14
4.663711e+14
4.232082e+14
6.78953e+14
8.680919e+14
1.205376e+15
1.50982e+15
1.906662e+15
2.238191e+15
2.550404e+15
2.834559e+15
3.066241e+15
3.257226e+15
3.416497e+15
3.528477e+15
3.588929e+15
3.588564e+15
3.527412e+15
3.414875e+15
3.255227e+15
3.063954e+15
2.832156e+15
2.548041e+15
2.235851e+15
1.90444e+15
1.507883e+15
1.203582e+15
8.670994e+14
6.780642e+14
4.2262e+14
5.077553e+14
7.441131e+14
1.016881e+15
1.378873e+15
1.80371e+15
2.16063e+15
2.502311e+15
2.834721e+15
3.118628e+15
3.369428e+15
3.572316e+15
3.729977e+15
3.8359e+15
3.889916e+15
3.889629e+15
3.835076e+15
3.72877e+15
3.570824e+15
3.367731e+15
3.116866e+15
2.83298e+15
2.50054e+15
2.158863e+15
1.801919e+15
1.37704e+15
1.015872e+15
7.433499e+14
5.071348e+14
5.560083e+14
8.20426e+14
1.183525e+15
1.523912e+15
1.993967e+15
2.367612e+15
2.730311e+15
3.066698e+15
3.36969e+15
3.629916e+15
3.832107e+15
3.981276e+15
4.079491e+15
4.128458e+15
4.128285e+15
4.078979e+15
3.980505e+15
3.831154e+15
3.628858e+15
3.36862e+15
3.065663e+15
2.729199e+15
2.366293e+15
1.992414e+15
1.522195e+15
1.182662e+15
8.197804e+14
5.554414e+14
4.23747e+14
7.004898e+14
9.039034e+14
1.268671e+15
1.75232e+15
2.159158e+15
2.54455e+15
2.923284e+15
3.258168e+15
3.572991e+15
3.832482e+15
4.029748e+15
4.172035e+15
4.264523e+15
4.310177e+15
4.310083e+15
4.264218e+15
4.171503e+15
4.029028e+15
3.83161e+15
3.572019e+15
3.257128e+15
2.922137e+15
2.543156e+15
2.157466e+15
1.750449e+15
1.267675e+15
9.032064e+14
6.995589e+14
4.232105e+14
4.80223e+14
7.264326e+14
9.42963e+14
1.318533e+15
1.859212e+15
2.28201e+15
2.687709e+15
3.067406e+15
3.417935e+15
3.731212e+15
3.982275e+15
4.172717e+15
4.309543e+15
4.398103e+15
4.441691e+15
4.441577e+15
4.397744e+15
4.308922e+15
4.171949e+15
3.981451e+15
3.730373e+15
3.417062e+15
3.066421e+15
2.686586e+15
2.280406e+15
1.857422e+15
1.317378e+15
9.421066e+14
7.257142e+14
4.797523e+14
4.946241e+14
7.419056e+14
9.670185e+14
1.351809e+15
1.922356e+15
2.365584e+15
2.790247e+15
3.170184e+15
3.530543e+15
3.837763e+15
4.081295e+15
4.266279e+15
4.39927e+15
4.485222e+15
4.527323e+15
4.526966e+15
4.484268e+15
4.397953e+15
4.264938e+15
4.080339e+15
3.837165e+15
3.530051e+15
3.169558e+15
2.789327e+15
2.364142e+15
1.920788e+15
1.350661e+15
9.661997e+14
7.412177e+14
4.940849e+14
5.003096e+14
7.491649e+14
9.78459e+14
1.369155e+15
1.953873e+15
2.407322e+15
2.832663e+15
3.229749e+15
3.591747e+15
3.892449e+15
4.130838e+15
4.312479e+15
4.44368e+15
4.528509e+15
4.569962e+15
4.569388e+15
4.527085e+15
4.441894e+15
4.310861e+15
4.129747e+15
3.891895e+15
3.591442e+15
3.229353e+15
2.831938e+15
2.406192e+15
1.952583e+15
1.368123e+15
9.77674e+14
7.484478e+14
4.997685e+14
5.003686e+14
7.492265e+14
9.78501e+14
1.369214e+15
1.953914e+15
2.407439e+15
2.832945e+15
3.23016e+15
3.59222e+15
3.892904e+15
4.131213e+15
4.312769e+15
4.443948e+15
4.528826e+15
4.570365e+15
4.569816e+15
4.527465e+15
4.442208e+15
4.311137e+15
4.130047e+15
3.892275e+15
3.591915e+15
3.229848e+15
2.832355e+15
2.406557e+15
1.952894e+15
1.368321e+15
9.778102e+14
7.485751e+14
4.998792e+14
4.948443e+14
7.421697e+14
9.672059e+14
1.35201e+15
1.922503e+15
2.366071e+15
2.791234e+15
3.171384e+15
3.531875e+15
3.839089e+15
4.082455e+15
4.267206e+15
4.400215e+15
4.4863e+15
4.528524e+15
4.528136e+15
4.485312e+15
4.398902e+15
4.265914e+15
4.081477e+15
3.83854e+15
3.531624e+15
3.171161e+15
2.790767e+15
2.36543e+15
1.921728e+15
1.351149e+15
9.665697e+14
7.415797e+14
4.944001e+14
4.806387e+14
7.268648e+14
9.432988e+14
1.318951e+15
1.859508e+15
2.282838e+15
2.689242e+15
3.069254e+15
3.419931e+15
3.733277e+15
3.984306e+15
4.174624e+15
4.311343e+15
4.399914e+15
4.443529e+15
4.443375e+15
4.399543e+15
4.310833e+15
4.174109e+15
3.983936e+15
3.733134e+15
3.419945e+15
3.069223e+15
2.688964e+15
2.282438e+15
1.85895e+15
1.318009e+15
9.426545e+14
7.263139e+14
4.802255e+14
4.242166e+14
7.008468e+14
9.045305e+14
1.269459e+15
1.752756e+15
2.160212e+15
2.546185e+15
2.925444e+15
3.260572e+15
3.575532e+15
3.834999e+15
4.032175e+15
4.174405e+15
4.266948e+15
4.312726e+15
4.31283e+15
4.267284e+15
4.174905e+15
4.032759e+15
3.835602e+15
3.576095e+15
3.261051e+15
2.925799e+15
2.546396e+15
2.160105e+15
1.75247e+15
1.268433e+15
9.038909e+14
7.004522e+14
4.238363e+14
5.563828e+14
8.210666e+14
1.184554e+15
1.524324e+15
1.995134e+15
2.36916e+15
2.732489e+15
3.069213e+15
3.37235e+15
3.632662e+15
3.834983e+15
3.984363e+15
4.082868e+15
4.132124e+15
4.132394e+15
4.08367e+15
3.985586e+15
3.836456e+15
3.63418e+15
3.373698e+15
3.070254e+15
2.733332e+15
2.369765e+15
1.995222e+15
1.524368e+15
1.183539e+15
8.204432e+14
5.5603e+14
5.07954e+14
7.445937e+14
1.017756e+15
1.379594e+15
1.80496e+15
2.162076e+15
2.504291e+15
2.837244e+15
3.121528e+15
3.372749e+15
3.57612e+15
3.734272e+15
3.840698e+15
3.895111e+15
3.895394e+15
3.841513e+15
3.735528e+15
3.577687e+15
3.374473e+15
3.123181e+15
2.838639e+15
2.505446e+15
2.162823e+15
1.805075e+15
1.379667e+15
1.01712e+15
7.442023e+14
5.077978e+14
4.232568e+14
6.795742e+14
8.689247e+14
1.206333e+15
1.511048e+15
1.908206e+15
2.240317e+15
2.553234e+15
2.838044e+15
3.070421e+15
3.262132e+15
3.42202e+15
3.534621e+15
3.595555e+15
3.595767e+15
3.535172e+15
3.422828e+15
3.26314e+15
3.071624e+15
2.83927e+15
2.554348e+15
2.241242e+15
1.908756e+15
1.510926e+15
1.206346e+15
8.684037e+14
6.791206e+14
4.233271e+14
4.670644e+14
7.307101e+14
9.621324e+14
1.294619e+15
1.561837e+15
1.939541e+15
2.240943e+15
2.505638e+15
2.734255e+15
2.92761e+15
3.071943e+15
3.174663e+15
3.23392e+15
3.234051e+15
3.174945e+15
3.072299e+15
2.928074e+15
2.734914e+15
2.506344e+15
2.24162e+15
1.940103e+15
1.562167e+15
1.294774e+15
9.620041e+14
7.304753e+14
4.669926e+14
5.439242e+14
7.734866e+14
1.001219e+15
1.315436e+15
1.561997e+15
1.909095e+15
2.163658e+15
2.371189e+15
2.548478e+15
2.691977e+15
2.794494e+15
2.83666e+15
2.836679e+15
2.79451e+15
2.692034e+15
2.548662e+15
2.371398e+15
2.163921e+15
1.909409e+15
1.562278e+15
1.315548e+15
1.001139e+15
7.732541e+14
5.43738e+14
4.375858e+14
6.660941e+14
7.985757e+14
1.001251e+15
1.295192e+15
1.511826e+15
1.806165e+15
1.996893e+15
2.162394e+15
2.28542e+15
2.368954e+15
2.410549e+15
2.410501e+15
2.368884e+15
2.285276e+15
2.162282e+15
1.996921e+15
1.806379e+15
1.511971e+15
1.295241e+15
1.001232e+15
7.984611e+14
6.659269e+14
4.374112e+14
4.415972e+14
6.661528e+14
7.736854e+14
9.622805e+14
1.206646e+15
1.380191e+15
1.525681e+15
1.754508e+15
1.861483e+15
1.924614e+15
1.955988e+15
1.955904e+15
1.924597e+15
1.86149e+15
1.754481e+15
1.525592e+15
1.380441e+15
1.206935e+15
9.623824e+14
7.736039e+14
6.6604e+14
4.415135e+14
4.376176e+14
5.441521e+14
7.308088e+14
8.690515e+14
1.017912e+15
1.185005e+15
1.270011e+15
1.319599e+15
1.352836e+15
1.370664e+15
1.370469e+15
1.353058e+15
1.319937e+15
1.270317e+15
1.185278e+15
1.018094e+15
8.690645e+14
7.308e+14
5.439907e+14
4.375654e+14
4.671804e+14
6.795033e+14
7.447562e+14
8.212475e+14
9.047494e+14
9.435627e+14
9.675699e+14
9.791579e+14
9.78949e+14
9.676188e+14
9.435974e+14
9.047414e+14
8.211384e+14
7.445695e+14
6.796162e+14
4.670837e+14
4.233022e+14
5.08082e+14
5.564095e+14
7.010184e+14
7.269387e+14
7.423086e+14
7.498023e+14
7.497094e+14
7.422169e+14
7.267748e+14
7.00936e+14
5.562784e+14
5.078833e+14
4.233952e+14
4.241297e+14
4.805489e+14
4.947833e+14
5.005328e+14
5.004744e+14
4.946806e+14
4.803603e+14
4.237716e+14
3.756167e+14
4.233106e+14
4.339656e+14
4.338246e+14
4.228771e+14
3.752726e+14
3.610519e+14
4.488914e+14
5.022804e+14
5.630747e+14
6.993696e+14
7.289473e+14
7.403118e+14
7.399891e+14
7.280903e+14
6.982938e+14
5.626527e+14
5.019556e+14
4.484918e+14
3.608786e+14
3.639982e+14
4.712333e+14
6.544169e+14
7.656444e+14
8.633591e+14
1.003516e+15
1.081071e+15
1.11329e+15
1.128969e+15
1.128523e+15
1.112104e+15
1.079717e+15
1.002512e+15
8.6231e+14
7.643729e+14
6.535229e+14
4.708609e+14
3.639166e+14
4.072387e+14
6.322721e+14
7.912518e+14
1.015742e+15
1.146505e+15
1.276095e+15
1.392259e+15
1.585387e+15
1.659777e+15
1.689412e+15
1.688936e+15
1.658446e+15
1.583523e+15
1.390314e+15
1.273886e+15
1.144364e+15
1.013398e+15
7.901946e+14
6.313891e+14
4.071185e+14
4.363844e+14
7.02404e+14
9.134044e+14
1.168034e+15
1.37005e+15
1.648144e+15
1.82862e+15
1.967246e+15
2.083208e+15
2.154396e+15
2.187158e+15
2.186662e+15
2.152962e+15
2.081016e+15
1.964609e+15
1.825826e+15
1.645446e+15
1.367647e+15
1.165649e+15
9.120638e+14
7.013496e+14
4.360435e+14
4.526234e+14
7.596647e+14
1.052112e+15
1.277424e+15
1.500054e+15
1.864126e+15
2.125365e+15
2.331706e+15
2.478231e+15
2.589393e+15
2.661443e+15
2.696274e+15
2.695744e+15
2.659893e+15
2.586948e+15
2.475116e+15
2.328184e+15
2.121861e+15
1.861064e+15
1.497592e+15
1.274981e+15
1.050147e+15
7.58453e+14
4.520896e+14
4.365761e+14
7.598284e+14
1.09901e+15
1.360425e+15
1.729671e+15
2.035211e+15
2.340984e+15
2.596283e+15
2.808507e+15
2.987471e+15
3.118971e+15
3.20281e+15
3.243426e+15
3.242846e+15
3.201126e+15
3.116347e+15
2.984163e+15
2.804781e+15
2.592356e+15
2.337129e+15
2.031584e+15
1.726505e+15
1.357916e+15
1.096658e+15
7.58642e+14
4.360527e+14
4.075769e+14
7.026557e+14
1.052689e+15
1.36062e+15
1.774875e+15
2.138077e+15
2.475636e+15
2.774343e+15
3.05409e+15
3.291611e+15
3.486812e+15
3.631235e+15
3.724766e+15
3.770216e+15
3.769568e+15
3.722901e+15
3.628298e+15
3.483069e+15
3.287369e+15
3.049577e+15
2.769798e+15
2.471263e+15
2.13416e+15
1.771554e+15
1.3582e+15
1.05081e+15
7.017025e+14
4.070571e+14
3.64345e+14
6.326319e+14
9.142782e+14
1.278084e+15
1.730434e+15
2.138638e+15
2.522272e+15
2.863609e+15
3.194527e+15
3.495432e+15
3.749484e+15
3.955882e+15
4.111632e+15
4.213534e+15
4.261681e+15
4.260951e+15
4.211424e+15
4.108377e+15
3.951821e+15
3.744923e+15
3.49058e+15
3.189569e+15
2.85871e+15
2.517573e+15
2.134538e+15
1.727134e+15
1.275779e+15
9.129497e+14
6.317327e+14
3.638373e+14
4.717441e+14
7.922242e+14
1.168671e+15
1.501681e+15
2.036668e+15
2.476959e+15
2.864364e+15
3.240367e+15
3.59271e+15
3.906686e+15
4.173829e+15
4.390017e+15
4.55369e+15
4.663692e+15
4.719541e+15
4.718795e+15
4.661537e+15
4.550386e+15
4.385925e+15
4.169232e+15
3.901812e+15
3.587725e+15
3.235364e+15
2.859479e+15
2.472368e+15
2.032773e+15
1.498851e+15
1.1668e+15
7.910799e+14
4.712052e+14
3.616111e+14
6.549934e+14
1.016355e+15
1.371515e+15
1.866498e+15
2.343332e+15
2.776571e+15
3.196117e+15
3.593424e+15
3.95804e+15
4.281822e+15
4.558118e+15
4.784013e+15
4.95993e+15
5.080586e+15
5.142432e+15
5.141778e+15
5.078691e+15
4.957031e+15
4.780429e+15
4.55408e+15
4.277527e+15
3.953588e+15
3.588823e+15
3.191426e+15
2.771953e+15
2.339094e+15
1.863049e+15
1.368761e+15
1.014943e+15
6.541246e+14
3.613841e+14
4.492119e+14
7.663095e+14
1.147574e+15
1.650671e+15
2.128375e+15
2.599575e+15
3.057131e+15
3.497645e+15
3.907852e+15
4.282229e+15
4.61418e+15
4.903479e+15
5.142e+15
5.326156e+15
5.45106e+15
5.514239e+15
5.51373e+15
5.449616e+15
5.324011e+15
5.139376e+15
4.900546e+15
4.611068e+15
4.278976e+15
3.904379e+15
3.493884e+15
3.05306e+15
2.595513e+15
2.124884e+15
1.647565e+15
1.145661e+15
7.652483e+14
4.487955e+14
5.029687e+14
8.6458e+14
1.278109e+15
1.832003e+15
2.335393e+15
2.812721e+15
3.295428e+15
3.752184e+15
4.175366e+15
4.558913e+15
4.903866e+15
5.204952e+15
5.450734e+15
5.637188e+15
5.762169e+15
5.82482e+15
5.824524e+15
5.76131e+15
5.635882e+15
5.449143e+15
5.203229e+15
4.902091e+15
4.55706e+15
4.173205e+15
3.749442e+15
3.291909e+15
2.808873e+15
2.331922e+15
1.828677e+15
1.275641e+15
8.629194e+14
5.020744e+14
5.6408e+14
1.005806e+15
1.395412e+15
1.971367e+15
2.482798e+15
2.992536e+15
3.491455e+15
3.959245e+15
4.392157e+15
4.785399e+15
5.142934e+15
5.451237e+15
5.699668e+15
5.885674e+15
6.009204e+15
6.07078e+15
6.070627e+15
6.008734e+15
5.884903e+15
5.698683e+15
5.450096e+15
5.141665e+15
4.783958e+15
4.390361e+15
3.956733e+15
3.487996e+15
2.988652e+15
2.479136e+15
1.967781e+15
1.392312e+15
1.003025e+15
5.627346e+14
3.763717e+14
7.005304e+14
1.08372e+15
1.589261e+15
2.087958e+15
2.594799e+15
3.124886e+15
3.636799e+15
4.115921e+15
4.556677e+15
4.962091e+15
5.327873e+15
5.638498e+15
5.886528e+15
6.070921e+15
6.192661e+15
6.253108e+15
6.252921e+15
6.192107e+15
6.070056e+15
5.885571e+15
5.637536e+15
5.326929e+15
4.961086e+15
4.555334e+15
4.113799e+15
3.633654e+15
3.121251e+15
2.591177e+15
2.084287e+15
1.585704e+15
1.080707e+15
6.987433e+14
3.753902e+14
4.238357e+14
7.303227e+14
1.115983e+15
1.663963e+15
2.159632e+15
2.667587e+15
3.209583e+15
3.731364e+15
4.219042e+15
4.667852e+15
5.083763e+15
5.453707e+15
5.764576e+15
6.011519e+15
6.194204e+15
6.314396e+15
6.373775e+15
6.373278e+15
6.313055e+15
6.192385e+15
6.009748e+15
5.763451e+15
5.453135e+15
5.083333e+15
4.667061e+15
4.217397e+15
3.728736e+15
3.206471e+15
2.664367e+15
2.156336e+15
1.660684e+15
1.113242e+15
7.285554e+14
4.230828e+14
4.347378e+14
7.419875e+14
1.131814e+15
1.693989e+15
2.192944e+15
2.703092e+15
3.250997e+15
3.777814e+15
4.268484e+15
4.7251e+15
5.146871e+15
5.517941e+15
5.828093e+15
6.073899e+15
6.25582e+15
6.37541e+15
6.43431e+15
6.433546e+15
6.373424e+15
6.253318e+15
6.071696e+15
5.826741e+15
5.51741e+15
5.146667e+15
4.724598e+15
4.267208e+15
3.775725e+15
3.248484e+15
2.700446e+15
2.19022e+15
1.691304e+15
1.129707e+15
7.4054e+14
4.340429e+14
4.347722e+14
7.421151e+14
1.132099e+15
1.694154e+15
2.193074e+15
2.703189e+15
3.251108e+15
3.778064e+15
4.268991e+15
4.725808e+15
5.147638e+15
5.518657e+15
5.828682e+15
6.074358e+15
6.256256e+15
6.375902e+15
6.434879e+15
6.434142e+15
6.373978e+15
6.2538e+15
6.072137e+15
5.82722e+15
5.517996e+15
5.14738e+15
4.725382e+15
4.267985e+15
3.776464e+15
3.24917e+15
2.701109e+15
2.190928e+15
1.692002e+15
1.130286e+15
7.409103e+14
4.342184e+14
4.241238e+14
7.305951e+14
1.11627e+15
1.664259e+15
2.159966e+15
2.667876e+15
3.209907e+15
3.732107e+15
4.220526e+15
4.669866e+15
5.085939e+15
5.4558e+15
5.766422e+15
6.013039e+15
6.195744e+15
6.316074e+15
6.375543e+15
6.374997e+15
6.314631e+15
6.193858e+15
6.011277e+15
5.765221e+15
5.455245e+15
5.085734e+15
4.669576e+15
4.219832e+15
3.731002e+15
3.208493e+15
2.666249e+15
2.158321e+15
1.662611e+15
1.114846e+15
7.296334e+14
4.236296e+14
3.767743e+14
7.00488e+14
1.083714e+15
1.589549e+15
2.08841e+15
2.595312e+15
3.12543e+15
3.637958e+15
4.118156e+15
4.559667e+15
4.965347e+15
5.331158e+15
5.641728e+15
5.889593e+15
6.073781e+15
6.195453e+15
6.255864e+15
6.25564e+15
6.194868e+15
6.073021e+15
5.888925e+15
5.641377e+15
5.331196e+15
4.965579e+15
4.559791e+15
4.117949e+15
3.637403e+15
3.124514e+15
2.594029e+15
2.087185e+15
1.588374e+15
1.082799e+15
6.998996e+14
3.76406e+14
5.642663e+14
1.005528e+15
1.395774e+15
1.971968e+15
2.483621e+15
2.993333e+15
3.492932e+15
3.961859e+15
4.395641e+15
4.789305e+15
5.147019e+15
5.455281e+15
5.703572e+15
5.889457e+15
6.013001e+15
6.074733e+15
6.074888e+15
6.013465e+15
5.890183e+15
5.704508e+15
5.456355e+15
5.148132e+15
4.790363e+15
4.396492e+15
3.962362e+15
3.492977e+15
2.992927e+15
2.482645e+15
1.971126e+15
1.395005e+15
1.005147e+15
5.63821e+14
5.03156e+14
8.649276e+14
1.278663e+15
1.832607e+15
2.33647e+15
2.813761e+15
3.297141e+15
3.754875e+15
4.178925e+15
4.563035e+15
4.908261e+15
5.209495e+15
5.455452e+15
5.642184e+15
5.767572e+15
5.830747e+15
5.831157e+15
5.768762e+15
5.644018e+15
5.457726e+15
5.211937e+15
4.910581e+15
4.565041e+15
4.180569e+15
3.756028e+15
3.29768e+15
2.813829e+15
2.335805e+15
1.832146e+15
1.278046e+15
8.643728e+14
5.026942e+14
4.497229e+14
7.67037e+14
1.148534e+15
1.65132e+15
2.12949e+15
2.600949e+15
3.059077e+15
3.500318e+15
3.91137e+15
4.286533e+15
4.619138e+15
4.909071e+15
5.14827e+15
5.333158e+15
5.458853e+15
5.522842e+15
5.523261e+15
5.460071e+15
5.335062e+15
5.150698e+15
4.911793e+15
4.621863e+15
4.289017e+15
3.913456e+15
3.501799e+15
3.05986e+15
2.601303e+15
2.12926e+15
1.651205e+15
1.147797e+15
7.663541e+14
4.491837e+14
3.620407e+14
6.555633e+14
1.017657e+15
1.372144e+15
1.867424e+15
2.344929e+15
2.778824e+15
3.199146e+15
3.597438e+15
3.96311e+15
4.287903e+15
4.565194e+15
4.792103e+15
4.96902e+15
5.090682e+15
5.15347e+15
5.153749e+15
5.091482e+15
4.970273e+15
4.79375e+15
4.56713e+15
4.28992e+15
3.965031e+15
3.599087e+15
3.200322e+15
2.779479e+15
2.345406e+15
1.867567e+15
1.372296e+15
1.016599e+15
6.551678e+14
3.616502e+14
4.720965e+14
7.92683e+14
1.169782e+15
1.502199e+15
2.038329e+15
2.479325e+15
2.867685e+15
3.244836e+15
3.598449e+15
3.913686e+15
4.182058e+15
4.399489e+15
4.564337e+15
4.675436e+15
4.732241e+15
4.732358e+15
4.675764e+15
4.564873e+15
4.400283e+15
4.183115e+15
3.914878e+15
3.599658e+15
3.245914e+15
2.868517e+15
2.479932e+15
2.03875e+15
1.502622e+15
1.169554e+15
7.923964e+14
4.718214e+14
3.644754e+14
6.331944e+14
9.150044e+14
1.27959e+15
1.732345e+15
2.141112e+15
2.525734e+15
2.86832e+15
3.200684e+15
3.503029e+15
3.758446e+15
3.966133e+15
4.123105e+15
4.22611e+15
4.275121e+15
4.275088e+15
4.226034e+15
4.123059e+15
3.966238e+15
3.758744e+15
3.503497e+15
3.201223e+15
2.868825e+15
2.526109e+15
2.141292e+15
1.732288e+15
1.279313e+15
9.147113e+14
6.330097e+14
3.645138e+14
4.077391e+14
7.034828e+14
1.053992e+15
1.3621e+15
1.777063e+15
2.141419e+15
2.480342e+15
2.780508e+15
3.06163e+15
3.300572e+15
3.497079e+15
3.64263e+15
3.737111e+15
3.783236e+15
3.783107e+15
3.736802e+15
3.642214e+15
3.496694e+15
3.300358e+15
3.061614e+15
2.780492e+15
2.48032e+15
2.141468e+15
1.777104e+15
1.36214e+15
1.05348e+15
7.03196e+14
4.077612e+14
4.368433e+14
7.605301e+14
1.100672e+15
1.362084e+15
1.732788e+15
2.039383e+15
2.346474e+15
2.603048e+15
2.816657e+15
2.9968e+15
3.129254e+15
3.213894e+15
3.255074e+15
3.254892e+15
3.213535e+15
3.128784e+15
2.996288e+15
2.816211e+15
2.602768e+15
2.34612e+15
2.039012e+15
1.732625e+15
1.362035e+15
1.100475e+15
7.603894e+14
4.367561e+14
4.529224e+14
7.605595e+14
1.054305e+15
1.280091e+15
1.503516e+15
1.868879e+15
2.131136e+15
2.338507e+15
2.486026e+15
2.597985e+15
2.670746e+15
2.706227e+15
2.705978e+15
2.670398e+15
2.597538e+15
2.485535e+15
2.338105e+15
2.130716e+15
1.86829e+15
1.502775e+15
1.279845e+15
1.054175e+15
7.604994e+14
4.528711e+14
4.367373e+14
7.033717e+14
9.155435e+14
1.170454e+15
1.372872e+15
1.652453e+15
1.834073e+15
1.973704e+15
2.090347e+15
2.162025e+15
2.1951e+15
2.194812e+15
2.161527e+15
2.089674e+15
1.972989e+15
1.833592e+15