/*--------------------------------*- C++ -*----------------------------------*\
  =========                 |
  \\      /  F ield         | OpenFOAM: The Open Source CFD Toolbox
   \\    /   O peration     | Website:  https://openfoam.org
    \\  /    A nd           | Version:  6
     \\/     M anipulation  |
\*---------------------------------------------------------------------------*/
FoamFile
{
    version     2.0;
    format      ascii;
    class       volScalarField;
    location    "49.8/region0/neutronTransport";
    object      precursor4.dnp;
}
// * * * * * * * * * * * * * * * * * * * * * * * * * * * * * * * * * * * * * //

dimensions      [0 -3 0 0 0 0 0];

internalField   nonuniform List<scalar> 
203709
(
2.729871e+13
3.003447e+13
3.003124e+13
2.73057e+13
2.852856e+13
3.193736e+13
3.953824e+13
3.912243e+13
3.911815e+13
3.953717e+13
3.193519e+13
2.853202e+13
2.787237e+13
3.205005e+13
4.005259e+13
3.993881e+13
4.107504e+13
4.13586e+13
4.135748e+13
4.10737e+13
3.99362e+13
4.005385e+13
3.205189e+13
2.787773e+13
2.787165e+13
3.892921e+13
3.976035e+13
4.132125e+13
4.213328e+13
4.284718e+13
4.316346e+13
4.316523e+13
4.284685e+13
4.213306e+13
4.132598e+13
3.976807e+13
3.894217e+13
2.788414e+13
3.204392e+13
3.975595e+13
4.155323e+13
4.282927e+13
4.379633e+13
4.44953e+13
4.484352e+13
4.484566e+13
4.449648e+13
4.380018e+13
4.283818e+13
4.156504e+13
3.977129e+13
3.205839e+13
2.852344e+13
4.00432e+13
4.131504e+13
4.282576e+13
4.414028e+13
4.517808e+13
4.589878e+13
4.625714e+13
4.625865e+13
4.590319e+13
4.518676e+13
4.415071e+13
4.283975e+13
4.133357e+13
4.00653e+13
2.853758e+13
3.192601e+13
3.992485e+13
4.212149e+13
4.3787e+13
4.517413e+13
4.62527e+13
4.697201e+13
4.73132e+13
4.731504e+13
4.69791e+13
4.626159e+13
4.518484e+13
4.380267e+13
4.213945e+13
3.994252e+13
3.194225e+13
2.729995e+13
3.953143e+13
4.106492e+13
4.283643e+13
4.448738e+13
4.589339e+13
4.697041e+13
4.763952e+13
4.797121e+13
4.797118e+13
4.764058e+13
4.697013e+13
4.589639e+13
4.44944e+13
4.28469e+13
4.10783e+13
3.95497e+13
2.730514e+13
3.002638e+13
3.911264e+13
4.134691e+13
4.315372e+13
4.483428e+13
4.624881e+13
4.731083e+13
4.797394e+13
4.833495e+13
4.832446e+13
4.79722e+13
4.731247e+13
4.625491e+13
4.484178e+13
4.316271e+13
4.136027e+13
3.912567e+13
3.003624e+13
3.002957e+13
3.912038e+13
4.135105e+13
4.315376e+13
4.483284e+13
4.624653e+13
4.730712e+13
4.797257e+13
4.83437e+13
4.833355e+13
4.797449e+13
4.731316e+13
4.625418e+13
4.484232e+13
4.316314e+13
4.136073e+13
3.913055e+13
3.004145e+13
2.72933e+13
3.953931e+13
4.106858e+13
4.283682e+13
4.448478e+13
4.588842e+13
4.696454e+13
4.76371e+13
4.797436e+13
4.797392e+13
4.764386e+13
4.697488e+13
4.589856e+13
4.449509e+13
4.28466e+13
4.107793e+13
3.954589e+13
2.730683e+13
3.192581e+13
3.992624e+13
4.21216e+13
4.378543e+13
4.516797e+13
4.624502e+13
4.696442e+13
4.730964e+13
4.73092e+13
4.697429e+13
4.625668e+13
4.518025e+13
4.379604e+13
4.213096e+13
3.993704e+13
3.193873e+13
2.852227e+13
4.004248e+13
4.130984e+13
4.281892e+13
4.413019e+13
4.51681e+13
4.588672e+13
4.625013e+13
4.625061e+13
4.589716e+13
4.518051e+13
4.414526e+13
4.283392e+13
4.132445e+13
4.005624e+13
2.853253e+13
3.204004e+13
3.974794e+13
4.154413e+13
4.281939e+13
4.378548e+13
4.448641e+13
4.485547e+13
4.485647e+13
4.449237e+13
4.379593e+13
4.283301e+13
4.156034e+13
3.976763e+13
3.205503e+13
2.786877e+13
3.892426e+13
3.975081e+13
4.131198e+13
4.212164e+13
4.283806e+13
4.317331e+13
4.3175e+13
4.284308e+13
4.213022e+13
4.132197e+13
3.97624e+13
3.893888e+13
2.787572e+13
2.787146e+13
3.204416e+13
4.004476e+13
3.992612e+13
4.1069e+13
4.136454e+13
4.136914e+13
4.107354e+13
3.993549e+13
4.005233e+13
3.204745e+13
2.787483e+13
2.852717e+13
3.193034e+13
3.953864e+13
3.913794e+13
3.914451e+13
3.954255e+13
3.193414e+13
2.852827e+13
2.730337e+13
3.003505e+13
3.003777e+13
2.730381e+13
2.287487e+13
2.600129e+13
2.706047e+13
2.778741e+13
2.824204e+13
2.824241e+13
2.778875e+13
2.706241e+13
2.600476e+13
2.288071e+13
2.333137e+13
2.718624e+13
3.462859e+13
3.575938e+13
3.705005e+13
3.847145e+13
3.959661e+13
3.959739e+13
3.847563e+13
3.705045e+13
3.575454e+13
3.462117e+13
2.717839e+13
2.332567e+13
2.388076e+13
3.405695e+13
3.597075e+13
3.873794e+13
4.136321e+13
4.354794e+13
4.636926e+13
4.869678e+13
4.869683e+13
4.637059e+13
4.353963e+13
4.135065e+13
3.873082e+13
3.596643e+13
3.406146e+13
2.388447e+13
2.411687e+13
3.469446e+13
3.781292e+13
4.121732e+13
4.474695e+13
4.977125e+13
5.599338e+13
6.21784e+13
6.439845e+13
6.439696e+13
6.216907e+13
5.598392e+13
4.976558e+13
4.474586e+13
4.121841e+13
3.781613e+13
3.469584e+13
2.412207e+13
2.387978e+13
3.469084e+13
3.819508e+13
4.218324e+13
4.880937e+13
5.679714e+13
6.539235e+13
7.171353e+13
7.641891e+13
8.405959e+13
8.405596e+13
7.641408e+13
7.170501e+13
6.538067e+13
5.679432e+13
4.880582e+13
4.218654e+13
3.819725e+13
3.469334e+13
2.388488e+13
2.33335e+13
3.406687e+13
3.781559e+13
4.218597e+13
5.125518e+13
6.33666e+13
7.168268e+13
7.852297e+13
8.952787e+13
9.44556e+13
9.736293e+13
9.735782e+13
9.444214e+13
8.950974e+13
7.850731e+13
7.166814e+13
6.335255e+13
5.125074e+13
4.218393e+13
3.781807e+13
3.407211e+13
2.33402e+13
2.718167e+13
3.597046e+13
4.121791e+13
4.880892e+13
6.336197e+13
7.498589e+13
8.820267e+13
9.55221e+13
1.012407e+14
1.047713e+14
1.065681e+14
1.065635e+14
1.047578e+14
1.012246e+14
9.550748e+13
8.819077e+13
7.49815e+13
6.336581e+13
4.881458e+13
4.122969e+13
3.59847e+13
2.719307e+13
2.288317e+13
3.462805e+13
3.873201e+13
4.474413e+13
5.679116e+13
7.168128e+13
8.819698e+13
9.813174e+13
1.045456e+14
1.089837e+14
1.118031e+14
1.131943e+14
1.131925e+14
1.117978e+14
1.08981e+14
1.045484e+14
9.814119e+13
8.821576e+13
7.170905e+13
5.682262e+13
4.477127e+13
3.875286e+13
3.463996e+13
2.288628e+13
2.600878e+13
3.576741e+13
4.135741e+13
4.977232e+13
6.540145e+13
7.852659e+13
9.551635e+13
1.045417e+14
1.103639e+14
1.142953e+14
1.167836e+14
1.179987e+14
1.180005e+14
1.167894e+14
1.143076e+14
1.103832e+14
1.045691e+14
9.555149e+13
7.856485e+13
6.543846e+13
4.979472e+13
4.138007e+13
3.577842e+13
2.601286e+13
2.706756e+13
3.706177e+13
4.354503e+13
5.598806e+13
7.172908e+13
8.953277e+13
1.012353e+14
1.089772e+14
1.142924e+14
1.179445e+14
1.202659e+14
1.214039e+14
1.214076e+14
1.202776e+14
1.179639e+14
1.143179e+14
1.09008e+14
1.012674e+14
8.956016e+13
7.174314e+13
5.601622e+13
4.356828e+13
3.706877e+13
2.707083e+13
2.779329e+13
3.848609e+13
4.638211e+13
6.219632e+13
7.644323e+13
9.447077e+13
1.047729e+14
1.117998e+14
1.167813e+14
1.202655e+14
1.224822e+14
1.235698e+14
1.235684e+14
1.224815e+14
1.202659e+14
1.167856e+14
1.118096e+14
1.047868e+14
9.448477e+13
7.645384e+13
6.221406e+13
4.639365e+13
3.849277e+13
2.78001e+13
2.824401e+13
3.960437e+13
4.87053e+13
6.44223e+13
8.409227e+13
9.738989e+13
1.065813e+14
1.131978e+14
1.179982e+14
1.214063e+14
1.235795e+14
1.246532e+14
1.246473e+14
1.235781e+14
1.214103e+14
1.180069e+14
1.132086e+14
1.065935e+14
9.740257e+13
8.410604e+13
6.443976e+13
4.87236e+13
3.961817e+13
2.825455e+13
2.823918e+13
3.959704e+13
4.869799e+13
6.441819e+13
8.409523e+13
9.739681e+13
1.065914e+14
1.132035e+14
1.179975e+14
1.214021e+14
1.235792e+14
1.246626e+14
1.246612e+14
1.235916e+14
1.214234e+14
1.18019e+14
1.132194e+14
1.066033e+14
9.741224e+13
8.411437e+13
6.443815e+13
4.871847e+13
3.961368e+13
2.825151e+13
2.778135e+13
3.847595e+13
4.638296e+13
6.220371e+13
7.64461e+13
9.448488e+13
1.047895e+14
1.118106e+14
1.167832e+14
1.202609e+14
1.224804e+14
1.235801e+14
1.235884e+14
1.225084e+14
1.202969e+14
1.168161e+14
1.11837e+14
1.048111e+14
9.450757e+13
7.647264e+13
6.222538e+13
4.640384e+13
3.849634e+13
2.77961e+13
2.705747e+13
3.705753e+13
4.355592e+13
5.600311e+13
7.173645e+13
8.954856e+13
1.012511e+14
1.089862e+14
1.142916e+14
1.179364e+14
1.202563e+14
1.214009e+14
1.214101e+14
1.202878e+14
1.179786e+14
1.143349e+14
1.09025e+14
1.012839e+14
8.957745e+13
7.176602e+13
5.602075e+13
4.357135e+13
3.708023e+13
2.707405e+13
2.600219e+13
3.576645e+13
4.136857e+13
4.977778e+13
6.541706e+13
7.854061e+13
9.552633e+13
1.045432e+14
1.103564e+14
1.142833e+14
1.167715e+14
1.179926e+14
1.180011e+14
1.168015e+14
1.143273e+14
1.10407e+14
1.045931e+14
9.556888e+13
7.856799e+13
6.543696e+13
4.980068e+13
4.138299e+13
3.578773e+13
2.601802e+13
2.287724e+13
3.462884e+13
3.873978e+13
4.474723e+13
5.680484e+13
7.168989e+13
8.819993e+13
9.812695e+13
1.045355e+14
1.089724e+14
1.117969e+14
1.131942e+14
1.132026e+14
1.118243e+14
1.090155e+14
1.045881e+14
9.818193e+13
8.824791e+13
7.171945e+13
5.682433e+13
4.476931e+13
3.875267e+13
3.464625e+13
2.289138e+13
2.718785e+13
3.597194e+13
4.121487e+13
4.880898e+13
6.336342e+13
7.498134e+13
8.819553e+13
9.551662e+13
1.012387e+14
1.047797e+14
1.065814e+14
1.0659e+14
1.048047e+14
1.012778e+14
9.556427e+13
8.824672e+13
7.502518e+13
6.339278e+13
4.882958e+13
4.123796e+13
3.598376e+13
2.719096e+13
2.333819e+13
3.406178e+13
3.781181e+13
4.21834e+13
5.125399e+13
6.336412e+13
7.168914e+13
7.853804e+13
8.954668e+13
9.448844e+13
9.740244e+13
9.741183e+13
9.450944e+13
8.957642e+13
7.856814e+13
7.172394e+13
6.339808e+13
5.127683e+13
4.220067e+13
3.783113e+13
3.407397e+13
2.333415e+13
2.388568e+13
3.470165e+13
3.820199e+13
4.218396e+13
4.880996e+13
5.68074e+13
6.542298e+13
7.174995e+13
7.646272e+13
8.41094e+13
8.411832e+13
7.647751e+13
7.176326e+13
6.543356e+13
5.682636e+13
4.882908e+13
4.219875e+13
3.821329e+13
3.471203e+13
2.388683e+13
2.412461e+13
3.470086e+13
3.781805e+13
4.122754e+13
4.475981e+13
4.978026e+13
5.601203e+13
6.222195e+13
6.444382e+13
6.444692e+13
6.222123e+13
5.60159e+13
4.979202e+13
4.476414e+13
4.123084e+13
3.782274e+13
3.470685e+13
2.412746e+13
2.388099e+13
3.406964e+13
3.598038e+13
3.874404e+13
4.136974e+13
4.356672e+13
4.639971e+13
4.872618e+13
4.87263e+13
4.639813e+13
4.35607e+13
4.137205e+13
3.875015e+13
3.598292e+13
3.406922e+13
2.388136e+13
2.334074e+13
2.719114e+13
3.463743e+13
3.577799e+13
3.70739e+13
3.84959e+13
3.962073e+13
3.962121e+13
3.84954e+13
3.706989e+13
3.577349e+13
3.464257e+13
2.71946e+13
2.334024e+13
2.288137e+13
2.600753e+13
2.706491e+13
2.779089e+13
2.824762e+13
2.824739e+13
2.779566e+13
2.706997e+13
2.601052e+13
2.288017e+13
1.938696e+13
2.198228e+13
2.263268e+13
2.288294e+13
2.287792e+13
2.261768e+13
2.195546e+13
1.936551e+13
1.936558e+13
2.322798e+13
2.543716e+13
3.204289e+13
3.324128e+13
3.394256e+13
3.426196e+13
3.425701e+13
3.392683e+13
3.321613e+13
3.203124e+13
2.543114e+13
2.322507e+13
1.937243e+13
2.135736e+13
3.106754e+13
3.404262e+13
3.754038e+13
4.136583e+13
4.314227e+13
4.423417e+13
4.474679e+13
4.474252e+13
4.422148e+13
4.312237e+13
4.134511e+13
3.752966e+13
3.40359e+13
3.106529e+13
2.13685e+13
2.001278e+13
2.487443e+13
3.341571e+13
3.972413e+13
4.653454e+13
5.416746e+13
5.805246e+13
6.031606e+13
6.182287e+13
6.260437e+13
6.259944e+13
6.180905e+13
6.029573e+13
5.803e+13
5.41486e+13
4.652214e+13
3.972387e+13
3.341132e+13
2.48782e+13
2.001403e+13
2.020181e+13
3.045946e+13
3.536578e+13
4.399804e+13
5.51648e+13
6.308106e+13
6.970339e+13
8.015047e+13
8.503114e+13
8.790604e+13
8.93372e+13
8.933303e+13
8.789583e+13
8.501902e+13
8.014333e+13
6.970919e+13
6.309075e+13
5.516856e+13
4.399308e+13
3.5373e+13
3.045869e+13
2.02035e+13
2.001202e+13
3.046569e+13
3.652019e+13
4.578182e+13
5.920136e+13
6.908704e+13
8.253424e+13
9.123452e+13
9.878169e+13
1.043873e+14
1.081894e+14
1.100863e+14
1.100822e+14
1.081806e+14
1.043718e+14
9.876589e+13
9.122681e+13
8.253159e+13
6.908643e+13
5.920471e+13
4.578855e+13
3.651587e+13
3.046208e+13
2.001281e+13
2.4884e+13
3.537639e+13
4.578816e+13
6.015199e+13
7.142228e+13
8.72662e+13
9.888452e+13
1.083552e+14
1.164446e+14
1.229837e+14
1.276474e+14
1.295649e+14
1.295594e+14
1.276313e+14
1.229612e+14
1.164252e+14
1.083456e+14
9.888191e+13
8.726831e+13
7.14251e+13
6.014768e+13
4.578641e+13
3.53759e+13
2.488389e+13
2.13773e+13
3.342081e+13
4.399985e+13
5.921765e+13
7.142419e+13
8.869466e+13
1.02466e+14
1.14556e+14
1.2499e+14
1.338042e+14
1.403828e+14
1.450613e+14
1.477601e+14
1.477528e+14
1.450413e+14
1.403544e+14
1.337749e+14
1.249669e+14
1.145409e+14
1.02463e+14
8.869666e+13
7.143035e+13
5.92167e+13
4.40014e+13
3.342189e+13
2.137194e+13
1.937022e+13
3.107697e+13
3.97337e+13
5.517531e+13
6.911812e+13
8.729464e+13
1.024821e+14
1.16786e+14
1.298033e+14
1.404146e+14
1.4916e+14
1.564529e+14
1.615816e+14
1.643539e+14
1.643446e+14
1.615558e+14
1.564164e+14
1.491209e+14
1.403773e+14
1.297748e+14
1.167715e+14
1.024755e+14
8.729292e+13
6.91181e+13
5.516898e+13
3.97404e+13
3.107636e+13
1.93657e+13
2.323867e+13
3.405639e+13
4.654136e+13
6.311555e+13
8.257432e+13
9.892716e+13
1.145814e+14
1.298114e+14
1.428182e+14
1.543067e+14
1.635992e+14
1.708193e+14
1.756693e+14
1.781434e+14
1.781337e+14
1.756429e+14
1.707838e+14
1.635625e+14
1.542746e+14
1.427979e+14
1.298053e+14
1.145835e+14
9.893461e+13
8.258284e+13
6.311159e+13
4.655513e+13
3.406374e+13
2.323752e+13
2.544529e+13
3.754691e+13
5.416649e+13
6.975328e+13
9.128216e+13
1.084004e+14
1.250153e+14
1.404252e+14
1.543056e+14
1.662278e+14
1.754922e+14
1.823275e+14
1.868277e+14
1.890714e+14
1.890656e+14
1.868128e+14
1.823111e+14
1.754815e+14
1.662281e+14
1.543214e+14
1.40457e+14
1.250548e+14
1.084372e+14
9.131148e+13
6.976437e+13
5.420285e+13
3.756522e+13
2.544936e+13
1.939086e+13
3.205769e+13
4.136553e+13
5.80606e+13
8.020198e+13
9.883379e+13
1.164906e+14
1.338401e+14
1.491798e+14
1.636012e+14
1.754904e+14
1.845318e+14
1.910561e+14
1.953004e+14
1.973975e+14
1.973982e+14
1.953029e+14
1.910656e+14
1.845535e+14
1.755275e+14
1.636543e+14
1.492448e+14
1.339083e+14
1.165483e+14
9.887827e+13
8.022832e+13
5.810086e+13
4.138896e+13
3.205579e+13
1.938954e+13
2.197461e+13
3.324303e+13
4.315138e+13
6.034103e+13
8.508703e+13
1.044449e+14
1.230327e+14
1.404305e+14
1.564854e+14
1.708314e+14
1.823302e+14
1.910577e+14
1.973365e+14
2.014114e+14
2.034236e+14
2.034275e+14
2.014241e+14
1.973616e+14
1.910957e+14
1.823793e+14
1.708863e+14
1.56541e+14
1.404848e+14
1.230871e+14
1.044838e+14
8.511037e+13
6.036808e+13
4.316705e+13
3.325188e+13
2.19803e+13
2.263222e+13
3.394957e+13
4.425099e+13
6.186331e+13
8.797464e+13
1.082615e+14
1.277175e+14
1.451294e+14
1.61636e+14
1.757006e+14
1.868434e+14
1.953091e+14
2.014153e+14
2.053788e+14
2.073334e+14
2.073327e+14
2.053794e+14
2.0142e+14
1.953207e+14
1.868628e+14
1.757272e+14
1.61667e+14
1.451641e+14
1.277554e+14
1.082877e+14
8.7987e+13
6.18758e+13
4.426231e+13
3.39575e+13
2.263526e+13
2.289099e+13
3.428029e+13
4.477353e+13
6.265707e+13
8.941704e+13
1.101697e+14
1.296508e+14
1.478485e+14
1.644353e+14
1.782011e+14
1.891067e+14
1.974174e+14
2.034361e+14
2.073483e+14
2.092797e+14
2.092792e+14
2.073526e+14
2.034472e+14
1.974336e+14
1.891255e+14
1.782232e+14
1.644604e+14
1.478805e+14
1.296859e+14
1.101932e+14
8.94238e+13
6.266028e+13
4.477868e+13
3.428284e+13
2.289316e+13
2.289238e+13
3.428162e+13
4.477446e+13
6.265983e+13
8.941995e+13
1.101759e+14
1.296591e+14
1.478566e+14
1.644466e+14
1.782199e+14
1.891218e+14
1.974222e+14
2.034337e+14
2.073477e+14
2.092874e+14
2.092951e+14
2.073739e+14
2.034711e+14
1.974576e+14
1.891477e+14
1.782431e+14
1.644782e+14
1.478954e+14
1.296964e+14
1.102012e+14
8.942859e+13
6.266015e+13
4.47773e+13
3.428179e+13
2.289387e+13
2.263844e+13
3.395714e+13
4.425635e+13
6.187214e+13
8.798316e+13
1.082838e+14
1.277478e+14
1.451573e+14
1.616692e+14
1.75738e+14
1.868745e+14
1.953263e+14
2.014186e+14
2.05379e+14
2.073445e+14
2.073605e+14
2.054229e+14
2.014739e+14
1.953781e+14
1.869179e+14
1.75777e+14
1.617107e+14
1.45201e+14
1.277867e+14
1.083156e+14
8.800117e+13
6.18736e+13
4.426118e+13
3.39596e+13
2.264138e+13
2.198765e+13
3.325532e+13
4.316079e+13
6.035791e+13
8.509951e+13
1.044743e+14
1.230769e+14
1.404753e+14
1.565319e+14
1.708759e+14
1.823637e+14
1.910745e+14
1.973378e+14
2.01405e+14
2.034211e+14
2.034366e+14
2.014493e+14
1.973993e+14
1.911409e+14
1.824267e+14
1.709319e+14
1.565817e+14
1.405202e+14
1.231141e+14
1.04509e+14
8.512516e+13
6.035755e+13
4.316708e+13
3.326113e+13
2.19916e+13
1.940577e+13
3.206387e+13
4.138508e+13
5.809054e+13
8.021125e+13
9.885968e+13
1.165254e+14
1.338855e+14
1.492255e+14
1.636401e+14
1.755154e+14
1.845413e+14
1.910543e+14
1.952954e+14
1.973984e+14
1.974127e+14
1.953386e+14
1.911198e+14
1.846196e+14
1.755961e+14
1.637133e+14
1.49286e+14
1.339366e+14
1.165714e+14
9.889537e+13
8.024161e+13
5.80842e+13
4.139086e+13
3.20768e+13
1.940857e+13
2.545311e+13
3.756466e+13
5.420186e+13
6.975211e+13
9.129937e+13
1.084168e+14
1.250448e+14
1.404553e+14
1.543275e+14
1.662392e+14
1.75496e+14
1.823296e+14
1.868358e+14
1.8909e+14
1.891051e+14
1.868812e+14
1.824007e+14
1.755848e+14
1.663349e+14
1.544173e+14
1.405297e+14
1.25108e+14
1.084703e+14
9.133347e+13
6.978766e+13
5.419007e+13
3.75663e+13
2.54603e+13
2.323791e+13
3.406481e+13
4.656345e+13
6.312376e+13
8.258898e+13
9.893037e+13
1.145893e+14
1.298222e+14
1.428258e+14
1.543148e+14
1.636141e+14
1.70845e+14
1.75711e+14
1.781999e+14
1.782156e+14
1.757567e+14
1.709165e+14
1.637051e+14
1.544163e+14
1.429247e+14
1.299072e+14
1.14661e+14
9.898486e+13
8.261844e+13
6.315541e+13
4.656325e+13
3.407215e+13
2.325047e+13
1.936378e+13
3.109067e+13
3.975223e+13
5.518918e+13
6.913029e+13
8.729833e+13
1.024876e+14
1.167975e+14
1.298209e+14
1.404457e+14
1.492111e+14
1.565223e+14
1.616724e+14
1.644616e+14
1.644763e+14
1.617124e+14
1.565831e+14
1.492886e+14
1.40536e+14
1.299124e+14
1.16879e+14
1.02556e+14
8.734703e+13
6.914801e+13
5.521524e+13
3.975143e+13
3.109067e+13
1.938162e+13
2.136865e+13
3.343038e+13
4.401549e+13
5.922248e+13
7.144265e+13
8.871482e+13
1.024961e+14
1.145983e+14
1.250506e+14
1.338908e+14
1.404902e+14
1.451883e+14
1.479015e+14
1.479133e+14
1.452183e+14
1.405328e+14
1.339453e+14
1.251166e+14
1.146656e+14
1.025578e+14
8.876821e+13
7.148202e+13
5.925252e+13
4.402928e+13
3.343621e+13
2.137762e+13
2.48861e+13
3.538686e+13
4.580239e+13
6.017287e+13
7.144659e+13
8.731717e+13
9.895476e+13
1.084412e+14
1.16545e+14
1.231048e+14
1.27793e+14
1.297243e+14
1.29731e+14
1.278101e+14
1.231315e+14
1.165814e+14
1.084788e+14
9.899272e+13
8.73541e+13
7.147965e+13
6.019671e+13
4.581587e+13
3.539053e+13
2.4888e+13
2.00234e+13
3.047848e+13
3.653634e+13
4.580509e+13
5.924751e+13
6.91504e+13
8.260631e+13
9.132294e+13
9.888649e+13
1.045095e+14
1.083295e+14
1.102348e+14
1.102379e+14
1.083411e+14
1.045241e+14
9.890478e+13
9.134609e+13
8.263529e+13
6.917329e+13
5.92641e+13
4.581735e+13
3.654215e+13
3.048025e+13
2.002162e+13
2.020716e+13
3.048081e+13
3.539723e+13
4.402057e+13
5.519349e+13
6.312552e+13
6.977357e+13
8.023329e+13
8.512297e+13
8.801058e+13
8.944842e+13
8.944899e+13
8.802247e+13
8.514191e+13
8.025287e+13
6.97877e+13
6.315302e+13
5.522145e+13
4.403803e+13
3.540275e+13
3.048447e+13
2.020834e+13
2.002486e+13
2.489727e+13
3.343332e+13
3.975273e+13
4.655738e+13
5.419521e+13
5.807904e+13
6.034538e+13
6.186597e+13
6.268333e+13
6.267729e+13
6.18846e+13
6.037407e+13
5.81091e+13
5.422277e+13
4.657932e+13
3.976532e+13
3.344263e+13
2.489558e+13
2.002679e+13
2.137382e+13
3.108393e+13
3.406565e+13
3.756091e+13
4.137761e+13
4.315162e+13
4.424964e+13
4.478055e+13
4.477256e+13
4.425666e+13
4.316104e+13
4.138728e+13
3.756551e+13
3.406575e+13
3.10988e+13
2.137352e+13
1.936504e+13
2.324106e+13
2.544929e+13
3.206192e+13
3.324635e+13
3.394911e+13
3.429233e+13
3.428912e+13
3.39482e+13
3.32444e+13
3.206557e+13
2.544834e+13
2.323667e+13
1.937281e+13
1.939837e+13
2.197804e+13
2.262863e+13
2.289164e+13
2.288948e+13
2.262552e+13
2.197197e+13
1.93843e+13
1.720564e+13
1.939103e+13
1.987946e+13
1.987372e+13
1.937343e+13
1.719327e+13
1.653849e+13
2.056317e+13
2.300897e+13
2.579468e+13
3.204054e+13
3.339547e+13
3.391677e+13
3.390385e+13
3.336213e+13
3.200127e+13
2.578591e+13
2.300561e+13
2.05569e+13
1.654049e+13
1.667257e+13
2.158507e+13
2.997723e+13
3.50746e+13
3.955338e+13
4.597701e+13
4.953215e+13
5.100861e+13
5.172852e+13
5.171208e+13
5.096696e+13
4.949258e+13
4.59637e+13
3.953653e+13
3.504878e+13
2.996712e+13
2.158664e+13
1.668294e+13
1.865148e+13
2.895952e+13
3.624313e+13
4.652711e+13
5.252257e+13
5.846324e+13
6.378781e+13
7.263917e+13
7.604945e+13
7.741091e+13
7.739655e+13
7.601167e+13
7.259353e+13
6.375006e+13
5.842205e+13
5.248831e+13
4.648373e+13
3.623919e+13
2.895364e+13
1.866427e+13
1.998453e+13
3.216893e+13
4.183361e+13
5.349735e+13
6.275401e+13
7.549857e+13
8.377144e+13
9.012688e+13
9.5444e+13
9.87101e+13
1.002178e+14
1.002064e+14
9.867925e+13
9.540314e+13
9.008806e+13
8.374115e+13
7.547763e+13
6.273672e+13
5.346829e+13
4.182894e+13
3.21608e+13
1.998898e+13
2.072671e+13
3.478929e+13
4.818158e+13
5.850104e+13
6.870019e+13
8.537846e+13
9.735049e+13
1.06808e+14
1.135263e+14
1.186255e+14
1.219349e+14
1.235419e+14
1.235338e+14
1.219134e+14
1.185969e+14
1.134972e+14
1.06782e+14
9.733177e+13
8.537312e+13
6.86974e+13
5.848194e+13
4.816369e+13
3.477738e+13
2.072339e+13
1.999047e+13
3.479462e+13
5.032607e+13
6.229607e+13
7.920603e+13
9.3202e+13
1.072097e+14
1.189082e+14
1.286337e+14
1.368369e+14
1.42869e+14
1.467222e+14
1.485998e+14
1.485953e+14
1.467116e+14
1.428581e+14
1.368314e+14
1.286348e+14
1.189121e+14
1.072138e+14
9.319795e+13
7.919958e+13
6.228445e+13
5.029263e+13
3.478201e+13
1.998584e+13
1.866166e+13
3.217445e+13
4.820242e+13
6.230045e+13
8.126769e+13
9.790017e+13
1.133619e+14
1.270449e+14
1.398605e+14
1.50742e+14
1.596867e+14
1.663102e+14
1.706091e+14
1.727123e+14
1.7271e+14
1.706048e+14
1.663068e+14
1.596892e+14
1.507525e+14
1.398752e+14
1.270587e+14
1.133698e+14
9.790316e+13
8.126085e+13
6.22888e+13
4.818094e+13
3.216484e+13
1.865551e+13
1.668111e+13
2.896685e+13
4.186177e+13
5.851837e+13
7.922702e+13
9.79158e+13
1.154837e+14
1.311181e+14
1.462751e+14
1.600574e+14
1.716934e+14
1.811483e+14
1.882888e+14
1.929705e+14
1.951981e+14
1.951934e+14
1.929597e+14
1.882786e+14
1.811468e+14
1.717037e+14
1.60076e+14
1.462956e+14
1.311327e+14
1.154873e+14
9.791087e+13
7.921317e+13
5.850245e+13
4.185102e+13
2.895665e+13
1.667471e+13
2.159712e+13
3.627227e+13
5.350781e+13
6.875037e+13
9.324063e+13
1.133981e+14
1.311399e+14
1.483633e+14
1.645022e+14
1.788821e+14
1.911151e+14
2.01015e+14
2.085137e+14
2.135615e+14
2.161381e+14
2.161308e+14
2.135423e+14
2.084898e+14
2.009967e+14
1.911081e+14
1.788877e+14
1.645171e+14
1.483783e+14
1.311488e+14
1.133941e+14
9.32294e+13
6.873379e+13
5.34976e+13
3.626174e+13
2.159567e+13
1.655241e+13
2.998698e+13
4.653395e+13
6.279054e+13
8.544643e+13
1.072727e+14
1.271089e+14
1.463277e+14
1.645326e+14
1.812383e+14
1.960698e+14
2.087221e+14
2.190637e+14
2.271179e+14
2.326467e+14
2.354897e+14
2.354784e+14
2.326162e+14
2.27077e+14
2.190242e+14
2.086915e+14
1.960538e+14
1.812367e+14
1.645379e+14
1.463331e+14
1.27108e+14
1.072627e+14
8.543009e+13
6.275497e+13
4.652662e+13
2.998106e+13
1.656106e+13
2.056158e+13
3.508091e+13
5.253827e+13
7.55661e+13
9.742842e+13
1.189959e+14
1.399501e+14
1.601393e+14
1.78941e+14
1.960975e+14
2.11306e+14
2.245564e+14
2.354778e+14
2.439078e+14
2.496255e+14
2.525209e+14
2.525074e+14
2.49589e+14
2.438591e+14
2.3543e+14
2.245196e+14
2.11287e+14
1.960969e+14
1.789516e+14
1.601541e+14
1.399609e+14
1.189944e+14
9.741973e+13
7.553035e+13
5.251351e+13
3.507229e+13
2.056656e+13
2.302028e+13
3.957748e+13
5.85111e+13
8.386273e+13
1.068988e+14
1.287457e+14
1.508545e+14
1.717949e+14
1.911906e+14
2.08765e+14
2.245686e+14
2.383614e+14
2.496202e+14
2.581599e+14
2.638828e+14
2.667515e+14
2.667417e+14
2.638574e+14
2.581302e+14
2.495992e+14
2.383586e+14
2.245881e+14
2.088049e+14
1.912414e+14
1.718442e+14
1.508914e+14
1.287618e+14
1.069023e+14
8.382826e+13
5.846907e+13
3.954779e+13
2.300711e+13
2.581582e+13
4.604236e+13
6.387799e+13
9.023834e+13
1.136407e+14
1.369677e+14
1.598152e+14
1.812605e+14
2.011029e+14
2.191194e+14
2.354987e+14
2.496244e+14
2.610098e+14
2.695367e+14
2.752021e+14
2.780276e+14
2.780265e+14
2.752e+14
2.695429e+14
2.610351e+14
2.496752e+14
2.355757e+14
2.192147e+14
2.012021e+14
1.81347e+14
1.598777e+14
1.370006e+14
1.136497e+14
9.020597e+13
6.382075e+13
4.597373e+13
2.578708e+13
1.722096e+13
3.205968e+13
4.960554e+13
7.274891e+13
9.557234e+13
1.187638e+14
1.430178e+14
1.664507e+14
1.884121e+14
2.086203e+14
2.271964e+14
2.439493e+14
2.581773e+14
2.695448e+14
2.780046e+14
2.836035e+14
2.86392e+14
2.863959e+14
2.836174e+14
2.780361e+14
2.695989e+14
2.582519e+14
2.440362e+14
2.272891e+14
2.087131e+14
1.884953e+14
1.665091e+14
1.430441e+14
1.187643e+14
9.553628e+13
7.268456e+13
4.953628e+13
3.202341e+13
1.720053e+13
1.939183e+13
3.342036e+13
5.107823e+13
7.616469e+13
9.885091e+13
1.220942e+14
1.468917e+14
1.70768e+14
1.93115e+14
2.13698e+14
2.327604e+14
2.497015e+14
2.639265e+14
2.752273e+14
2.836141e+14
2.891554e+14
2.919116e+14
2.919125e+14
2.891604e+14
2.836272e+14
2.752522e+14
2.639651e+14
2.497521e+14
2.328204e+14
2.13764e+14
1.931787e+14
1.708078e+14
1.468978e+14
1.220778e+14
9.881157e+13
7.610698e+13
5.102256e+13
3.338796e+13
1.938582e+13
1.988947e+13
3.395162e+13
5.179865e+13
7.753475e+13
1.003734e+14
1.237194e+14
1.487881e+14
1.728921e+14
1.953659e+14
2.163044e+14
2.356445e+14
2.5264e+14
2.668313e+14
2.780765e+14
2.864185e+14
2.919307e+14
2.94674e+14
2.946774e+14
2.919426e+14
2.864395e+14
2.781047e+14
2.668651e+14
2.526814e+14
2.356941e+14
2.163654e+14
1.954248e+14
1.729233e+14
1.487831e+14
1.236911e+14
1.003305e+14
7.748638e+13
5.176466e+13
3.393179e+13
1.988505e+13
1.989009e+13
3.39552e+13
5.180751e+13
7.753715e+13
1.00376e+14
1.237236e+14
1.487958e+14
1.729065e+14
1.953834e+14
2.163197e+14
2.356613e+14
2.526665e+14
2.668573e+14
2.780886e+14
2.864187e+14
2.919291e+14
2.946791e+14
2.946929e+14
2.919676e+14
2.864705e+14
2.781377e+14
2.668968e+14
2.527099e+14
2.357192e+14
2.163881e+14
1.954461e+14
1.729435e+14
1.487998e+14
1.237038e+14
1.003427e+14
7.749827e+13
5.177615e+13
3.394086e+13
1.989152e+13
1.940242e+13
3.34265e+13
5.107935e+13
7.61632e+13
9.885555e+13
1.221051e+14
1.469115e+14
1.708073e+14
1.931642e+14
2.13746e+14
2.328129e+14
2.497603e+14
2.639811e+14
2.752638e+14
2.836285e+14
2.891574e+14
2.919191e+14
2.919391e+14
2.892099e+14
2.836951e+14
2.753299e+14
2.640433e+14
2.498238e+14
2.328825e+14
2.138186e+14
1.932304e+14
1.708571e+14
1.469379e+14
1.2211e+14
9.885062e+13
7.615112e+13
5.10667e+13
3.342289e+13
1.940571e+13
1.723589e+13
3.204864e+13
4.958726e+13
7.273885e+13
9.557415e+13
1.187787e+14
1.430429e+14
1.664991e+14
1.884782e+14
2.086932e+14
2.272724e+14
2.440252e+14
2.582413e+14
2.695861e+14
2.780208e+14
2.83603e+14
2.863904e+14
2.864076e+14
2.836514e+14
2.780905e+14
2.696673e+14
2.583264e+14
2.441092e+14
2.273529e+14
2.087668e+14
1.885438e+14
1.665565e+14
1.430862e+14
1.188035e+14
9.559666e+13
7.275504e+13
4.959995e+13
3.206018e+13
1.724047e+13
2.58154e+13
4.600876e+13
6.386766e+13
9.023888e+13
1.136592e+14
1.369902e+14
1.598566e+14
1.813194e+14
2.011758e+14
2.191973e+14
2.355711e+14
2.496802e+14
2.610442e+14
2.69553e+14
2.752107e+14
2.780424e+14
2.780594e+14
2.752606e+14
2.69631e+14
2.611429e+14
2.497889e+14
2.356778e+14
2.192938e+14
2.012602e+14
1.813931e+14
1.599199e+14
1.370432e+14
1.136922e+14
9.027615e+13
6.389584e+13
4.60414e+13
2.582393e+13
2.30201e+13
3.957484e+13
5.850807e+13
8.385764e+13
1.069172e+14
1.287617e+14
1.508848e+14
1.718339e+14
1.912415e+14
2.088209e+14
2.246182e+14
2.383997e+14
2.496492e+14
2.581874e+14
2.639193e+14
2.668072e+14
2.668274e+14
2.639791e+14
2.582823e+14
2.497713e+14
2.38536e+14
2.247525e+14
2.089408e+14
1.913457e+14
1.719216e+14
1.509558e+14
1.288235e+14
1.069534e+14
8.390187e+13
5.8534e+13
3.958877e+13
2.302272e+13
2.05769e+13
3.50975e+13
5.255485e+13
7.55609e+13
9.743995e+13
1.190128e+14
1.399758e+14
1.601657e+14
1.789724e+14
1.961329e+14
2.113424e+14
2.245977e+14
2.355308e+14
2.439801e+14
2.497238e+14
2.526489e+14
2.526711e+14
2.497892e+14
2.44084e+14
2.356659e+14
2.247512e+14
2.114975e+14
1.962738e+14
1.790937e+14
1.602646e+14
1.400528e+14
1.1908e+14
9.748499e+13
7.560818e+13
5.256389e+13
3.509669e+13
2.057109e+13
1.656619e+13
2.999967e+13
4.65689e+13
6.278775e+13
8.544599e+13
1.072882e+14
1.27133e+14
1.463547e+14
1.645663e+14
1.812844e+14
1.961322e+14
2.088073e+14
2.19179e+14
2.272655e+14
2.328277e+14
2.357016e+14
2.357218e+14
2.328862e+14
2.273582e+14
2.193008e+14
2.089495e+14
1.962798e+14
1.814239e+14
1.6469e+14
1.464564e+14
1.272127e+14
1.073602e+14
8.549958e+13
6.283359e+13
4.65523e+13
3.000311e+13
1.656134e+13
2.160437e+13
3.62767e+13
5.353163e+13
6.873872e+13
9.326144e+13
1.134261e+14
1.311804e+14
1.484207e+14
1.645838e+14
1.789916e+14
1.912565e+14
2.011931e+14
2.087273e+14
2.138073e+14
2.164096e+14
2.164249e+14
2.138509e+14
2.087957e+14
2.012839e+14
1.913642e+14
1.791058e+14
1.646961e+14
1.485262e+14
1.31274e+14
1.135065e+14
9.332598e+13
6.879332e+13
5.355029e+13
3.628425e+13
2.160498e+13
1.668123e+13
2.898081e+13
4.187718e+13
5.855815e+13
7.926841e+13
9.796072e+13
1.155442e+14
1.312017e+14
1.4639e+14
1.602051e+14
1.718743e+14
1.81363e+14
1.885364e+14
1.932473e+14
1.954949e+14
1.955047e+14
1.93276e+14
1.885822e+14
1.814245e+14
1.719473e+14
1.602848e+14
1.464719e+14
1.312819e+14
1.156161e+14
9.801753e+13
7.930477e+13
5.857309e+13
4.188315e+13
2.898579e+13
1.6691e+13
1.866195e+13
3.219924e+13
4.824035e+13
6.233465e+13
8.131297e+13
9.797021e+13
1.1346e+14
1.271747e+14
1.400179e+14
1.509326e+14
1.5991e+14
1.665625e+14
1.708857e+14
1.73003e+14
1.730088e+14
1.709051e+14
1.665939e+14
1.599523e+14
1.509863e+14
1.400806e+14
1.272377e+14
1.135199e+14
9.802554e+13
8.135674e+13
6.236525e+13
4.823712e+13
3.219896e+13
1.867028e+13
1.999477e+13
3.481098e+13
5.037521e+13
6.233002e+13
7.928008e+13
9.329277e+13
1.073259e+14
1.190484e+14
1.288058e+14
1.370372e+14
1.430933e+14
1.469683e+14
1.488601e+14
1.488627e+14
1.46984e+14
1.431216e+14
1.370753e+14
1.288533e+14
1.191037e+14
1.073766e+14
9.333442e+13
7.931905e+13
6.235962e+13
5.0388e+13
3.48178e+13
1.999699e+13
2.073071e+13
3.480961e+13
4.824806e+13
5.857065e+13
6.8783e+13
8.548544e+13
9.747176e+13
1.069472e+14
1.136897e+14
1.188108e+14
1.221432e+14
1.237738e+14
1.237717e+14
1.221556e+14
1.188354e+14
1.137243e+14
1.069924e+14
9.751444e+13
8.551597e+13
6.879239e+13
5.859231e+13
4.826532e+13
3.48206e+13
2.073394e+13
1.99887e+13
3.218912e+13
4.189242e+13
5.354936e+13
6.280247e+13
7.558518e+13
8.388656e+13
9.027099e+13
9.560749e+13
9.889004e+13
1.004089e+14
1.004031e+14
9.888951e+13
9.561237e+13