/*--------------------------------*- C++ -*----------------------------------*\
  =========                 |
  \\      /  F ield         | OpenFOAM: The Open Source CFD Toolbox
   \\    /   O peration     | Website:  https://openfoam.org
    \\  /    A nd           | Version:  6
     \\/     M anipulation  |
\*---------------------------------------------------------------------------*/
FoamFile
{
    version     2.0;
    format      ascii;
    class       volScalarField;
    location    "49.8/region0/neutronTransport";
    object      precursor5.dnp;
}
// * * * * * * * * * * * * * * * * * * * * * * * * * * * * * * * * * * * * * //

dimensions      [0 -3 0 0 0 0 0];

internalField   nonuniform List<scalar> 
203709
(
1.254919e+12
1.380626e+12
1.38043e+12
1.255139e+12
1.311604e+12
1.468224e+12
1.817558e+12
1.798406e+12
1.798151e+12
1.817352e+12
1.467909e+12
1.311502e+12
1.281567e+12
1.473522e+12
1.84129e+12
1.836016e+12
1.888215e+12
1.901208e+12
1.901103e+12
1.888006e+12
1.835656e+12
1.841003e+12
1.473212e+12
1.281322e+12
1.28176e+12
1.789938e+12
1.828085e+12
1.899761e+12
1.936987e+12
1.969734e+12
1.984207e+12
1.984219e+12
1.969526e+12
1.936639e+12
1.899465e+12
1.827775e+12
1.789707e+12
1.281569e+12
1.473691e+12
1.828146e+12
1.910689e+12
1.96925e+12
2.013587e+12
2.045615e+12
2.061532e+12
2.061541e+12
2.045388e+12
2.013277e+12
1.96896e+12
1.910332e+12
1.827775e+12
1.473354e+12
1.311971e+12
1.841554e+12
1.899969e+12
1.969334e+12
2.029664e+12
2.07726e+12
2.110267e+12
2.126624e+12
2.126601e+12
2.110149e+12
2.077075e+12
2.029291e+12
1.968878e+12
1.899515e+12
1.841113e+12
1.311562e+12
1.468509e+12
1.836277e+12
1.937268e+12
2.013797e+12
2.07747e+12
2.126897e+12
2.159778e+12
2.175307e+12
2.175293e+12
2.159762e+12
2.126674e+12
2.077062e+12
2.013425e+12
1.936906e+12
1.835877e+12
1.468201e+12
1.255844e+12
1.818254e+12
1.888815e+12
1.970295e+12
2.046218e+12
2.11083e+12
2.160209e+12
2.190771e+12
2.205834e+12
2.205732e+12
2.190521e+12
2.159711e+12
2.110323e+12
2.045788e+12
1.969928e+12
1.888491e+12
1.818075e+12
1.255225e+12
1.381275e+12
1.799048e+12
1.90184e+12
1.984984e+12
2.062293e+12
2.127291e+12
2.175974e+12
2.206257e+12
2.222657e+12
2.222039e+12
2.20579e+12
2.175464e+12
2.126857e+12
2.06187e+12
1.984606e+12
1.901632e+12
1.798776e+12
1.380843e+12
1.381516e+12
1.799522e+12
1.902103e+12
1.985045e+12
2.062339e+12
2.12736e+12
2.175972e+12
2.206309e+12
2.223128e+12
2.222504e+12
2.205931e+12
2.175519e+12
2.126846e+12
2.061936e+12
1.984701e+12
1.901761e+12
1.799124e+12
1.381191e+12
1.255753e+12
1.81891e+12
1.889277e+12
1.970654e+12
2.046486e+12
2.111018e+12
2.160389e+12
2.191093e+12
2.206329e+12
2.206094e+12
2.19081e+12
2.160027e+12
2.110548e+12
2.046023e+12
1.970203e+12
1.888822e+12
1.818278e+12
1.255561e+12
1.468908e+12
1.836886e+12
1.93792e+12
2.014453e+12
2.077981e+12
2.127396e+12
2.160316e+12
2.175998e+12
2.175783e+12
2.160227e+12
2.127141e+12
2.07761e+12
2.013952e+12
1.937367e+12
1.836434e+12
1.468641e+12
1.312443e+12
1.842327e+12
1.900658e+12
1.970049e+12
2.030297e+12
2.077939e+12
2.110878e+12
2.127468e+12
2.127356e+12
2.110963e+12
2.07788e+12
2.030176e+12
1.969812e+12
1.900354e+12
1.841965e+12
1.312093e+12
1.474314e+12
1.828848e+12
1.91145e+12
1.970069e+12
2.014449e+12
2.04662e+12
2.063513e+12
2.06346e+12
2.046598e+12
2.01444e+12
1.970028e+12
1.911391e+12
1.828861e+12
1.474172e+12
1.282454e+12
1.790982e+12
1.829027e+12
1.900841e+12
1.93806e+12
1.970972e+12
1.986326e+12
1.986316e+12
1.97094e+12
1.93803e+12
1.900723e+12
1.828869e+12
1.790852e+12
1.282043e+12
1.282637e+12
1.474606e+12
1.842697e+12
1.837209e+12
1.88975e+12
1.90328e+12
1.903405e+12
1.889706e+12
1.837243e+12
1.842497e+12
1.474207e+12
1.282181e+12
1.312814e+12
1.469373e+12
1.819454e+12
1.800948e+12
1.801176e+12
1.819411e+12
1.469276e+12
1.312513e+12
1.256456e+12
1.382127e+12
1.382215e+12
1.256376e+12
1.051385e+12
1.19504e+12
1.243705e+12
1.277097e+12
1.297962e+12
1.297933e+12
1.277013e+12
1.243534e+12
1.194807e+12
1.051225e+12
1.072518e+12
1.249664e+12
1.591617e+12
1.64357e+12
1.702857e+12
1.768141e+12
1.81979e+12
1.819748e+12
1.768093e+12
1.702459e+12
1.642718e+12
1.590418e+12
1.248554e+12
1.071552e+12
1.097906e+12
1.5656e+12
1.653564e+12
1.780683e+12
1.901297e+12
2.001658e+12
2.131251e+12
2.238114e+12
2.238005e+12
2.130994e+12
2.000784e+12
1.900016e+12
1.779456e+12
1.652269e+12
1.564542e+12
1.097269e+12
1.108881e+12
1.595088e+12
1.738417e+12
1.894902e+12
2.057082e+12
2.287955e+12
2.57385e+12
2.857976e+12
2.95985e+12
2.959603e+12
2.857049e+12
2.572675e+12
2.286821e+12
2.056042e+12
1.893794e+12
1.737312e+12
1.59382e+12
1.108294e+12
1.098066e+12
1.595012e+12
1.756088e+12
1.939372e+12
2.243894e+12
2.610996e+12
3.005931e+12
3.296431e+12
3.512646e+12
3.863669e+12
3.863303e+12
3.511863e+12
3.295242e+12
3.004422e+12
2.609722e+12
2.24257e+12
1.938355e+12
1.754947e+12
1.593858e+12
1.097446e+12
1.073029e+12
1.566389e+12
1.738672e+12
1.93954e+12
2.356272e+12
2.912614e+12
3.294767e+12
3.609163e+12
4.11492e+12
4.341426e+12
4.475e+12
4.474673e+12
4.340491e+12
4.113583e+12
3.607739e+12
3.293248e+12
2.911013e+12
2.354916e+12
1.938302e+12
1.737594e+12
1.565351e+12
1.072398e+12
1.250007e+12
1.653974e+12
1.895192e+12
2.244082e+12
2.912688e+12
3.446721e+12
4.053982e+12
4.390267e+12
4.652998e+12
4.815246e+12
4.897821e+12
4.897576e+12
4.814489e+12
4.651965e+12
4.389025e+12
4.052556e+12
3.44538e+12
2.911566e+12
2.243069e+12
1.894496e+12
1.653387e+12
1.24946e+12
1.05256e+12
1.592494e+12
1.78112e+12
2.057561e+12
2.611274e+12
3.295429e+12
4.05431e+12
4.510708e+12
4.805259e+12
5.009013e+12
5.138425e+12
5.202274e+12
5.202124e+12
5.137916e+12
5.008296e+12
4.804385e+12
4.509694e+12
4.053325e+12
3.294681e+12
2.610791e+12
2.057132e+12
1.780518e+12
1.591433e+12
1.051568e+12
1.196417e+12
1.645116e+12
1.902057e+12
2.28891e+12
3.007157e+12
3.610325e+12
4.391086e+12
4.805708e+12
5.073053e+12
5.253456e+12
5.367499e+12
5.423099e+12
5.42302e+12
5.367193e+12
5.25288e+12
5.072175e+12
4.80459e+12
4.389843e+12
3.609175e+12
3.006128e+12
2.287793e+12
1.901211e+12
1.643771e+12
1.195189e+12
1.245187e+12
1.704827e+12
2.002861e+12
2.574806e+12
3.298187e+12
4.116536e+12
4.654457e+12
5.010246e+12
5.254357e+12
5.421779e+12
5.527887e+12
5.579712e+12
5.579627e+12
5.527581e+12
5.421086e+12
5.253329e+12
5.0091e+12
4.653244e+12
4.115206e+12
3.296534e+12
2.574136e+12
2.002152e+12
1.703365e+12
1.24395e+12
1.278609e+12
1.770419e+12
2.133457e+12
2.860247e+12
3.515019e+12
4.343726e+12
4.817435e+12
5.140661e+12
5.369696e+12
5.529385e+12
5.630511e+12
5.67979e+12
5.679354e+12
5.629412e+12
5.527791e+12
5.368022e+12
5.139355e+12
4.81647e+12
4.342799e+12
3.513893e+12
2.859411e+12
2.132319e+12
1.769086e+12
1.277628e+12
1.29938e+12
1.821901e+12
2.240396e+12
2.962741e+12
3.866786e+12
4.477972e+12
4.900709e+12
5.205141e+12
5.425899e+12
5.582165e+12
5.681262e+12
5.729748e+12
5.72886e+12
5.67952e+12
5.580048e+12
5.42396e+12
5.203723e+12
4.899827e+12
4.477368e+12
3.866107e+12
2.962039e+12
2.239659e+12
1.82104e+12
1.298668e+12
1.299193e+12
1.8216e+12
2.240133e+12
2.962702e+12
3.867146e+12
4.478465e+12
4.901169e+12
5.20551e+12
5.426179e+12
5.582396e+12
5.681598e+12
5.730364e+12
5.729501e+12
5.679973e+12
5.580372e+12
5.424211e+12
5.204005e+12
4.900221e+12
4.477916e+12
3.866685e+12
2.962168e+12
2.239594e+12
1.820989e+12
1.298644e+12
1.278161e+12
1.77007e+12
2.133735e+12
2.861016e+12
3.515755e+12
4.344974e+12
4.818785e+12
5.141827e+12
5.3706e+12
5.530298e+12
5.631671e+12
5.681249e+12
5.680717e+12
5.630541e+12
5.528789e+12
5.369014e+12
5.140511e+12
4.817907e+12
4.34451e+12
3.515563e+12
2.86057e+12
2.133284e+12
1.769685e+12
1.277763e+12
1.244881e+12
1.704858e+12
2.003797e+12
2.576169e+12
3.299413e+12
4.118379e+12
4.656564e+12
5.012363e+12
5.256303e+12
5.423672e+12
5.529879e+12
5.581871e+12
5.581626e+12
5.529495e+12
5.423067e+12
5.255571e+12
5.011686e+12
4.656101e+12
4.118159e+12
3.299391e+12
2.575593e+12
2.003185e+12
1.704635e+12
1.244602e+12
1.196348e+12
1.645489e+12
1.903232e+12
2.290007e+12
3.009044e+12
3.612535e+12
4.393673e+12
4.808316e+12
5.075548e+12
5.255952e+12
5.370127e+12
5.425982e+12
5.426033e+12
5.370525e+12
5.256468e+12
5.076043e+12
4.808714e+12
4.393912e+12
3.612419e+12
3.008707e+12
2.289865e+12
1.902709e+12
1.645299e+12
1.196098e+12
1.052612e+12
1.593156e+12
1.782343e+12
2.05873e+12
2.613262e+12
3.297679e+12
4.056938e+12
4.513469e+12
4.808193e+12
5.012234e+12
5.142092e+12
5.206267e+12
5.206505e+12
5.142897e+12
5.013459e+12
4.809595e+12
4.514812e+12
4.057914e+12
3.297851e+12
2.613078e+12
2.058715e+12
1.781909e+12
1.592913e+12
1.052426e+12
1.250934e+12
1.655037e+12
1.896281e+12
2.245618e+12
2.91499e+12
3.449357e+12
4.057248e+12
4.394105e+12
4.657384e+12
4.820288e+12
4.903118e+12
4.903382e+12
4.821053e+12
4.658558e+12
4.395478e+12
4.058665e+12
3.450417e+12
2.915326e+12
2.245664e+12
1.896456e+12
1.654698e+12
1.250263e+12
1.073856e+12
1.567215e+12
1.739824e+12
1.941034e+12
2.358382e+12
2.915583e+12
3.298666e+12
3.61382e+12
4.120331e+12
4.347669e+12
4.481638e+12
4.481906e+12
4.348152e+12
4.120947e+12
3.614275e+12
3.299223e+12
2.916053e+12
2.358501e+12
1.940975e+12
1.739904e+12
1.566973e+12
1.072977e+12
1.099086e+12
1.596792e+12
1.757956e+12
1.941256e+12
2.246191e+12
2.614236e+12
3.010699e+12
3.301834e+12
3.518681e+12
3.870449e+12
3.870706e+12
3.51892e+12
3.301821e+12
3.010389e+12
2.614282e+12
2.246233e+12
1.941154e+12
1.757745e+12
1.596597e+12
1.098588e+12
1.110109e+12
1.596816e+12
1.74033e+12
1.897274e+12
2.059858e+12
2.290917e+12
2.577724e+12
2.863483e+12
2.965687e+12
2.965737e+12
2.863173e+12
2.577497e+12
2.290976e+12
2.05954e+12
1.896883e+12
1.740038e+12
1.596608e+12
1.109829e+12
1.098854e+12
1.567747e+12
1.655737e+12
1.782992e+12
1.903878e+12
2.005009e+12
2.135396e+12
2.242444e+12
2.242391e+12
2.13516e+12
2.004497e+12
1.903701e+12
1.782985e+12
1.655572e+12
1.567466e+12
1.098648e+12
1.073995e+12
1.25123e+12
1.594009e+12
1.64656e+12
1.706246e+12
1.771709e+12
1.823462e+12
1.823442e+12
1.771571e+12
1.705899e+12
1.646168e+12
1.594062e+12
1.251261e+12
1.073851e+12
1.052963e+12
1.196898e+12
1.245612e+12
1.279046e+12
1.300063e+12
1.30003e+12
1.279202e+12
1.245754e+12
1.196939e+12
1.05284e+12
8.908911e+11
1.010123e+12
1.040013e+12
1.051497e+12
1.051224e+12
1.039191e+12
1.008661e+12
8.896225e+11
8.899806e+11
1.067415e+12
1.168908e+12
1.472365e+12
1.527441e+12
1.559668e+12
1.574317e+12
1.574012e+12
1.558696e+12
1.52583e+12
1.47114e+12
1.16803e+12
1.066619e+12
8.896978e+11
9.815999e+11
1.427775e+12
1.564438e+12
1.725088e+12
1.900811e+12
1.982424e+12
2.032579e+12
2.056083e+12
2.055772e+12
2.031629e+12
1.980841e+12
1.898858e+12
1.723402e+12
1.562863e+12
1.426323e+12
9.813486e+11
9.199222e+11
1.143364e+12
1.535869e+12
1.825733e+12
2.138566e+12
2.489144e+12
2.667538e+12
2.771489e+12
2.840656e+12
2.876445e+12
2.876006e+12
2.839344e+12
2.769336e+12
2.664685e+12
2.48599e+12
2.135902e+12
1.823807e+12
1.534032e+12
1.142432e+12
9.191204e+11
9.287041e+11
1.400195e+12
1.625729e+12
2.022396e+12
2.535468e+12
2.899113e+12
3.203245e+12
3.683202e+12
3.907354e+12
4.039294e+12
4.104805e+12
4.104249e+12
4.037696e+12
3.904862e+12
3.680136e+12
3.200392e+12
2.896107e+12
2.532291e+12
2.01966e+12
1.624108e+12
1.398472e+12
9.278483e+11
9.20056e+11
1.40061e+12
1.678972e+12
2.104675e+12
2.721358e+12
3.175527e+12
3.793461e+12
4.193135e+12
4.539856e+12
4.7973e+12
4.971782e+12
5.058581e+12
5.057903e+12
4.969906e+12
4.794167e+12
4.535785e+12
4.188665e+12
3.788721e+12
3.171166e+12
2.717484e+12
2.102108e+12
1.676607e+12
1.398639e+12
9.190488e+11
1.144133e+12
1.626533e+12
2.105187e+12
2.765381e+12
3.283253e+12
4.011365e+12
4.545299e+12
4.980466e+12
5.352158e+12
5.652538e+12
5.866602e+12
5.954287e+12
5.953452e+12
5.864137e+12
5.648756e+12
5.347583e+12
4.975498e+12
4.540044e+12
4.006202e+12
3.278661e+12
2.760974e+12
2.102132e+12
1.624363e+12
1.14275e+12
9.829939e+11
1.536718e+12
2.02313e+12
2.72266e+12
3.283607e+12
4.077289e+12
4.710086e+12
5.265664e+12
5.745161e+12
6.150221e+12
6.452505e+12
6.667342e+12
6.79101e+12
6.790132e+12
6.664814e+12
6.448639e+12
6.145469e+12
5.739879e+12
5.260119e+12
4.704746e+12
4.072197e+12
3.279354e+12
2.718719e+12
2.02042e+12
1.534725e+12
9.815953e+11
8.90748e+11
1.429027e+12
1.827117e+12
2.537017e+12
3.177795e+12
4.013048e+12
4.710836e+12
5.367967e+12
5.966042e+12
6.453674e+12
6.855651e+12
7.190876e+12
7.426567e+12
7.553804e+12
7.553036e+12
7.424326e+12
7.187463e+12
6.851444e+12
6.448862e+12
5.960983e+12
5.362992e+12
4.705909e+12
4.008373e+12
3.173718e+12
2.533241e+12
1.825029e+12
1.427157e+12
8.895099e+11
1.068699e+12
1.566173e+12
2.140282e+12
2.902185e+12
3.79636e+12
4.547589e+12
5.266743e+12
5.966382e+12
6.563936e+12
7.091808e+12
7.518838e+12
7.850673e+12
8.073615e+12
8.187305e+12
8.186702e+12
8.071882e+12
7.848133e+12
7.515696e+12
7.088236e+12
6.560227e+12
5.962717e+12
5.263015e+12
4.543869e+12
3.792592e+12
2.898326e+12
2.138159e+12
1.564567e+12
1.067393e+12
1.170259e+12
1.726793e+12
2.491025e+12
3.207455e+12
4.196805e+12
4.983234e+12
5.746625e+12
6.454638e+12
7.092359e+12
7.640071e+12
8.065633e+12
8.379595e+12
8.586314e+12
8.689377e+12
8.689012e+12
8.585237e+12
8.377973e+12
8.063626e+12
7.637843e+12
7.090108e+12
6.452458e+12
5.744286e+12
4.980458e+12
4.193536e+12
3.203843e+12
2.489209e+12
1.725434e+12
1.169066e+12
8.918821e+11
1.474357e+12
1.902492e+12
2.670237e+12
3.688198e+12
4.544491e+12
5.355646e+12
6.152785e+12
6.857633e+12
7.520258e+12
8.066421e+12
8.481618e+12
8.781095e+12
8.97576e+12
9.07185e+12
9.071653e+12
8.975119e+12
8.779976e+12
8.480102e+12
8.064586e+12
7.518211e+12
6.855444e+12
6.150371e+12
5.352711e+12
4.540929e+12
3.684259e+12
2.66814e+12
1.901025e+12
1.472398e+12
8.907528e+11
1.01075e+12
1.52896e+12
1.984703e+12
2.775183e+12
3.913178e+12
4.803063e+12
5.656959e+12
6.456128e+12
7.193904e+12
7.853273e+12
8.381699e+12
8.782532e+12
9.070517e+12
9.256914e+12
9.348655e+12
9.348416e+12
9.256158e+12
9.06921e+12
8.780916e+12
8.379965e+12
7.851508e+12
7.192066e+12
6.454054e+12
5.654595e+12
4.799687e+12
3.909411e+12
2.772753e+12
1.9829e+12
1.527448e+12
1.009759e+12
1.041061e+12
1.561527e+12
2.035333e+12
2.845222e+12
4.04608e+12
4.978965e+12
5.872776e+12
6.672448e+12
7.430915e+12
8.077538e+12
8.590111e+12
8.979457e+12
9.25937e+12
9.440277e+12
9.528889e+12
9.528137e+12
9.43827e+12
9.256597e+12
8.976635e+12
8.5881e+12
8.076278e+12
7.429879e+12
6.671132e+12
5.870839e+12
4.97593e+12
4.042781e+12
2.842806e+12
2.03361e+12
1.560079e+12
1.039926e+12
1.053027e+12
1.576806e+12
2.059413e+12
2.881731e+12
4.112417e+12
5.066815e+12
5.962051e+12
6.797818e+12
7.559734e+12
8.192636e+12
8.694387e+12
9.076696e+12
9.352841e+12
9.531384e+12
9.618634e+12
9.617426e+12
9.528389e+12
9.349082e+12
9.073289e+12
8.69209e+12
8.191471e+12
7.559091e+12
6.796985e+12
5.960526e+12
5.064435e+12
4.109701e+12
2.879559e+12
2.057761e+12
1.575296e+12
1.051888e+12
1.053152e+12
1.576935e+12
2.059501e+12
2.881855e+12
4.112504e+12
5.06706e+12
5.962644e+12
6.798683e+12
7.56073e+12
8.193594e+12
8.695175e+12
9.077307e+12
9.353405e+12
9.532051e+12
9.619482e+12
9.618325e+12
9.529187e+12
9.349743e+12
9.073872e+12
8.692722e+12
8.192271e+12
7.560088e+12
6.798027e+12
5.961404e+12
5.065205e+12
4.110357e+12
2.879975e+12
2.058047e+12
1.575564e+12
1.052121e+12
1.041524e+12
1.562083e+12
2.035728e+12
2.845646e+12
4.046392e+12
4.979991e+12
5.874854e+12
6.674975e+12
7.433718e+12
8.080329e+12
8.592552e+12
8.981408e+12
9.261357e+12
9.442546e+12
9.531416e+12
9.5306e+12
9.440465e+12
9.258596e+12
8.978687e+12
8.590493e+12
8.079172e+12
7.43319e+12
6.674504e+12
5.87387e+12
4.978641e+12
4.044759e+12
2.843833e+12
2.034389e+12
1.560841e+12
1.040589e+12
1.011625e+12
1.52987e+12
1.985409e+12
2.776065e+12
3.913802e+12
4.804806e+12
5.660186e+12
6.460015e+12
7.198105e+12
7.85762e+12
8.385974e+12
8.786545e+12
9.074305e+12
9.260726e+12
9.352522e+12
9.3522e+12
9.259943e+12
9.073231e+12
8.785462e+12
8.385194e+12
7.857319e+12
7.198134e+12
6.459952e+12
5.659601e+12
4.803965e+12
3.912628e+12
2.774081e+12
1.984053e+12
1.52871e+12
1.010755e+12
8.928705e+11
1.475108e+12
1.903812e+12
2.671895e+12
3.689115e+12
4.54671e+12
5.359087e+12
6.157332e+12
6.862694e+12
7.525606e+12
8.071719e+12
8.486726e+12
8.786085e+12
8.980864e+12
9.077215e+12
9.077434e+12
8.981572e+12
8.787137e+12
8.487955e+12
8.072988e+12
7.526791e+12
6.863702e+12
6.15808e+12
5.35953e+12
4.546484e+12
3.688513e+12
2.669735e+12
1.902466e+12
1.474278e+12
8.920699e+11
1.171047e+12
1.728141e+12
2.493192e+12
3.208322e+12
4.199262e+12
4.986493e+12
5.751209e+12
6.459931e+12
7.097957e+12
7.64585e+12
8.071686e+12
8.386093e+12
8.593422e+12
8.697092e+12
8.697663e+12
8.59511e+12
8.388667e+12
8.074785e+12
7.649046e+12
7.100796e+12
6.462121e+12
5.752984e+12
4.987766e+12
4.199446e+12
3.208416e+12
2.491055e+12
1.726829e+12
1.170305e+12
1.069117e+12
1.567185e+12
2.142124e+12
2.903702e+12
3.798992e+12
4.550632e+12
5.27091e+12
5.971694e+12
6.570039e+12
7.098797e+12
7.526844e+12
7.859713e+12
8.083715e+12
8.198241e+12
8.198835e+12
8.08543e+12
7.862357e+12
7.53014e+12
7.102426e+12
6.573519e+12
5.974629e+12
5.273342e+12
4.552204e+12
3.799233e+12
2.903855e+12
2.140785e+12
1.566361e+12
1.068788e+12
8.908504e+11
1.430335e+12
1.82887e+12
2.539031e+12
3.180381e+12
4.016299e+12
4.715309e+12
5.373922e+12
5.973377e+12
6.462473e+12
6.865977e+12
7.202501e+12
7.439498e+12
7.567749e+12
7.568195e+12
7.440657e+12
7.204201e+12
6.868098e+12
6.465005e+12
5.975958e+12
5.376267e+12
4.717257e+12
4.017456e+12
3.180123e+12
2.539059e+12
1.827774e+12
1.42938e+12
8.909983e+11
9.830543e+11
1.537963e+12
2.02505e+12
2.72485e+12
3.287278e+12
4.082251e+12
4.716629e+12
5.273745e+12
5.754928e+12
6.161891e+12
6.465676e+12
6.681876e+12
6.806597e+12
6.806873e+12
6.682469e+12
6.466426e+12
6.162868e+12
5.756313e+12
5.27523e+12
4.718053e+12
4.083434e+12
3.287974e+12
2.725178e+12
2.024779e+12
1.537469e+12
9.829033e+11
1.144825e+12
1.627997e+12
2.107317e+12
2.768666e+12
3.287615e+12
4.018171e+12
4.553963e+12
4.990764e+12
5.363913e+12
5.665941e+12
5.881715e+12
5.970464e+12
5.970503e+12
5.881749e+12
5.666062e+12
5.3643e+12
4.991203e+12
4.554516e+12
4.018832e+12
3.288206e+12
2.768902e+12
2.107149e+12
1.627508e+12
1.144433e+12
9.210094e+11
1.401962e+12
1.680803e+12
2.107384e+12
2.726058e+12
3.182017e+12
3.801528e+12
4.202963e+12
4.551302e+12
4.81024e+12
4.98606e+12
5.073605e+12
5.073504e+12
4.985912e+12
4.809939e+12
4.551066e+12
4.203022e+12
3.801978e+12
3.182324e+12
2.72616e+12
2.107344e+12
1.680562e+12
1.401611e+12
9.206418e+11
9.294523e+11
1.402086e+12
1.628415e+12
2.025361e+12
2.539689e+12
2.904958e+12
3.211178e+12
3.692804e+12
3.917959e+12
4.050834e+12
4.116869e+12
4.116691e+12
4.050798e+12
3.917973e+12
3.692746e+12
3.210992e+12
2.905484e+12
2.540299e+12
2.025576e+12
1.628244e+12
1.401849e+12
9.292761e+11
9.210761e+11
1.145305e+12
1.538171e+12
1.829137e+12
2.142452e+12
2.49414e+12
2.673057e+12
2.777428e+12
2.847384e+12
2.884906e+12
2.884496e+12
2.84785e+12
2.778138e+12
2.673702e+12
2.494715e+12
2.142835e+12
1.829165e+12
1.538152e+12
1.144965e+12
9.209663e+11
9.832985e+11
1.430185e+12
1.567527e+12
1.728522e+12
1.904272e+12
1.985965e+12
2.036494e+12
2.060884e+12
2.060444e+12
2.036597e+12
1.986038e+12
1.904256e+12
1.728292e+12
1.567134e+12
1.430423e+12
9.83095e+11
8.909459e+11
1.069386e+12
1.171104e+12
1.475469e+12
1.530025e+12
1.562375e+12
1.578147e+12
1.577952e+12
1.562182e+12
1.52968e+12
1.475296e+12
1.170828e+12
1.068968e+12
8.911417e+11
8.926875e+11
1.011436e+12
1.041396e+12
1.053497e+12
1.053374e+12
1.04118e+12
1.011039e+12
8.919338e+11
7.905797e+11
8.909635e+11
9.133896e+11
9.130928e+11
8.900512e+11
7.898556e+11
7.599245e+11
9.448048e+11
1.057175e+12
1.185132e+12
1.471999e+12
1.534253e+12
1.558172e+12
1.557493e+12
1.532449e+12
1.469735e+12
1.184244e+12
1.056492e+12
9.439637e+11
7.595596e+11
7.661258e+11
9.91829e+11
1.377385e+12
1.611491e+12
1.817156e+12
2.112151e+12
2.275385e+12
2.343198e+12
2.376199e+12
2.37526e+12
2.340703e+12
2.272536e+12
2.110038e+12
1.814948e+12
1.608815e+12
1.375503e+12
9.91045e+11
7.659539e+11
8.571362e+11
1.330775e+12
1.665388e+12
2.137883e+12
2.413108e+12
2.685863e+12
2.93036e+12
3.336846e+12
3.493418e+12
3.555793e+12
3.55479e+12
3.490616e+12
3.332923e+12
2.926265e+12
2.681213e+12
2.408601e+12
2.13295e+12
1.663163e+12
1.328917e+12
8.568832e+11
9.184806e+11
1.478386e+12
1.922489e+12
2.458421e+12
2.883614e+12
3.468933e+12
3.848791e+12
4.140564e+12
4.384635e+12
4.534467e+12
4.603424e+12
4.602379e+12
4.53145e+12
4.380021e+12
4.135012e+12
3.842909e+12
3.463255e+12
2.878556e+12
2.453401e+12
1.919667e+12
1.476166e+12
9.177632e+11
9.526597e+11
1.598905e+12
2.214434e+12
2.68866e+12
3.157241e+12
3.923521e+12
4.473365e+12
4.907661e+12
5.216059e+12
5.450028e+12
5.601675e+12
5.674986e+12
5.67387e+12
5.598412e+12
5.444882e+12
5.209503e+12
4.900248e+12
4.46599e+12
3.917076e+12
3.152058e+12
2.683517e+12
2.210299e+12
1.596355e+12
9.515361e+11
9.18884e+11
1.59925e+12
2.313143e+12
2.863355e+12
3.640528e+12
4.283612e+12
4.92719e+12
5.464531e+12
5.91121e+12
6.287884e+12
6.564659e+12
6.741119e+12
6.826605e+12
6.825384e+12
6.737573e+12
6.559134e+12
6.280921e+12
5.903366e+12
5.456265e+12
4.919075e+12
4.275979e+12
3.633864e+12
2.858075e+12
2.308191e+12
1.596753e+12
9.177826e+11
8.578481e+11
1.478915e+12
2.215648e+12
2.863767e+12
3.735671e+12
4.500121e+12
5.210598e+12
5.839302e+12
6.428101e+12
6.928022e+12
7.338872e+12
7.642847e+12
7.839706e+12
7.935367e+12
7.934004e+12
7.83578e+12
7.636664e+12
7.330994e+12
6.919094e+12
6.418602e+12
5.829735e+12
5.201393e+12
4.491875e+12
3.728681e+12
2.858674e+12
2.211693e+12
1.476909e+12
8.567539e+11
7.668557e+11
1.331533e+12
1.924328e+12
2.690048e+12
3.642134e+12
4.501301e+12
5.308755e+12
6.027184e+12
6.723685e+12
7.357015e+12
7.891732e+12
8.326147e+12
8.653964e+12
8.868441e+12
8.969779e+12
8.968242e+12
8.864e+12
8.647112e+12
8.3176e+12
7.882132e+12
7.346803e+12
6.713249e+12
6.016875e+12
5.298864e+12
4.492671e+12
3.635187e+12
2.685197e+12
1.921532e+12
1.32964e+12
7.657871e+11
9.92904e+11
1.667435e+12
2.459762e+12
3.160665e+12
4.28668e+12
5.213383e+12
6.028774e+12
6.820166e+12
7.561761e+12
8.222603e+12
8.784871e+12
9.239894e+12
9.584384e+12
9.815911e+12
9.93346e+12
9.93189e+12
9.811377e+12
9.577432e+12
9.231281e+12
8.775197e+12
8.212344e+12
7.55127e+12
6.809636e+12
6.018492e+12
5.203719e+12
4.278481e+12
3.154709e+12
2.455825e+12
1.665026e+12
9.917697e+11
7.611015e+11
1.378598e+12
2.139175e+12
2.886698e+12
3.928515e+12
4.932131e+12
5.843992e+12
6.727032e+12
7.563264e+12
8.33069e+12
9.012171e+12
9.593706e+12
1.006916e+13
1.043942e+13
1.069337e+13
1.082354e+13
1.082216e+13
1.068938e+13
1.043332e+13
1.006161e+13
9.585205e+12
9.003131e+12
8.32132e+12
7.55358e+12
6.717159e+12
5.834272e+12
4.923211e+12
3.921254e+12
2.880901e+12
2.136204e+12
1.37677e+12
7.606236e+11
9.454793e+11
1.612891e+12
2.415358e+12
3.474252e+12
4.4797e+12
5.471459e+12
6.4345e+12
7.361673e+12
8.225056e+12
9.013028e+12
9.711701e+12
1.03206e+13
1.082263e+13
1.121023e+13
1.147313e+13
1.16061e+13
1.160503e+13
1.147009e+13
1.120572e+13
1.081711e+13
1.031443e+13
9.705151e+12
9.00618e+12
8.217747e+12
7.353756e+12
6.425932e+12
5.462909e+12
4.472352e+12
3.467715e+12
2.411331e+12
1.610657e+12
9.446028e+11
1.058624e+12
1.819726e+12
2.690102e+12
3.855911e+12
4.915422e+12
5.920078e+12
6.936057e+12
7.897413e+12
8.788106e+12
9.595377e+12
1.032142e+13
1.095513e+13
1.147244e+13
1.186488e+13
1.212793e+13
1.22598e+13
1.225918e+13
1.212612e+13
1.186213e+13
1.146909e+13
1.09515e+13
1.031768e+13
9.591478e+12
8.78356e+12
7.891643e+12
6.92865e+12
5.91198e+12
4.908115e+12
3.848911e+12
2.684908e+12
1.816231e+12
1.056742e+12
1.187248e+12
2.116971e+12
2.936994e+12
4.149238e+12
5.225673e+12
6.298544e+12
7.348644e+12
8.333225e+12
9.244399e+12
1.007207e+13
1.08246e+13
1.14735e+13
1.199638e+13
1.238788e+13
1.264788e+13
1.277748e+13
1.277716e+13
1.264689e+13
1.238626e+13
1.199431e+13
1.14711e+13
1.082193e+13
1.006904e+13
9.240618e+12
8.327938e+12
7.341365e+12
6.290369e+12
5.217964e+12
4.141691e+12
2.93047e+12
2.111117e+12
1.184416e+12
7.921689e+11
1.474442e+12
2.28096e+12
3.345e+12
4.394633e+12
5.461407e+12
6.577108e+12
7.654558e+12
8.66299e+12
9.590671e+12
1.044397e+13
1.121385e+13
1.186764e+13
1.238968e+13
1.277778e+13
1.303401e+13
1.316124e+13
1.316084e+13
1.303285e+13
1.277596e+13
1.238766e+13
1.186561e+13
1.121186e+13
1.044185e+13
9.587845e+12
8.658524e+12
7.647938e+12
6.569457e+12
5.453783e+12
4.386906e+12
3.337513e+12
2.274619e+12
1.470681e+12
7.901029e+11
8.920687e+11
1.537148e+12
2.348867e+12
3.502228e+12
4.545489e+12
5.614607e+12
6.755374e+12
7.853594e+12
8.880033e+12
9.824667e+12
1.070006e+13
1.14787e+13
1.2133e+13
1.265275e+13
1.303726e+13
1.329023e+13
1.341521e+13
1.341416e+13
1.328741e+13
1.303343e+13
1.264903e+13
1.213063e+13
1.147749e+13
1.069915e+13
9.823002e+12
8.876571e+12
7.848062e+12
6.748824e+12
5.607831e+12
4.538551e+12
3.495327e+12
2.343098e+12
1.533428e+12
8.904842e+11
9.15015e+11
1.561699e+12
2.382187e+12
3.565426e+12
4.615602e+12
5.689336e+12
6.842541e+12
7.951359e+12
8.984097e+12
9.945161e+12
1.083288e+13
1.161389e+13
1.226669e+13
1.278405e+13
1.316695e+13
1.341865e+13
1.354262e+13
1.354101e+13
1.341447e+13
1.316168e+13
1.277941e+13
1.226384e+13
1.161277e+13
1.083245e+13
9.944103e+12
8.981411e+12
7.946962e+12
6.837251e+12
5.683767e+12
4.609868e+12
3.559773e+12
2.377753e+12
1.558653e+12
9.135524e+11
9.150874e+11
1.561968e+12
2.382788e+12
3.565773e+12
4.615875e+12
5.689541e+12
6.842775e+12
7.951884e+12
8.985163e+12
9.94665e+12
1.08345e+13
1.16154e+13
1.226793e+13
1.278501e+13
1.316786e+13
1.341969e+13
1.354382e+13
1.354227e+13
1.341564e+13
1.316269e+13
1.278034e+13
1.226485e+13
1.161401e+13
1.083395e+13
9.945753e+12
8.983047e+12
7.948518e+12
6.838696e+12
5.685163e+12
4.611359e+12
3.561244e+12
2.378972e+12
1.559432e+12
9.139217e+11
8.92675e+11
1.537721e+12
2.34947e+12
3.502852e+12
4.54619e+12
5.615216e+12
6.756055e+12
7.855157e+12
8.883158e+12
9.828906e+12
1.070464e+13
1.14831e+13
1.213688e+13
1.265595e+13
1.30405e+13
1.329376e+13
1.341893e+13
1.341778e+13
1.329073e+13
1.303653e+13
1.265224e+13
1.213436e+13
1.148193e+13
1.070421e+13
9.828297e+12
8.881696e+12
7.852832e+12
6.753081e+12
5.611791e+12
4.542728e+12
3.499382e+12
2.346473e+12
1.535697e+12
8.91635e+11
7.930162e+11
1.474353e+12
2.280949e+12
3.345605e+12
4.395583e+12
5.462485e+12
6.578254e+12
7.656996e+12
8.667695e+12
9.596966e+12
1.045082e+13
1.122076e+13
1.187443e+13
1.239613e+13
1.27838e+13
1.303989e+13
1.316704e+13
1.316657e+13
1.303866e+13
1.27822e+13
1.239472e+13
1.18737e+13
1.122084e+13
1.045131e+13
9.597226e+12
8.667258e+12
7.655828e+12
6.576325e+12
5.459787e+12
4.393005e+12
3.343133e+12
2.279023e+12
1.473115e+12
7.922409e+11
1.18764e+12
2.116386e+12
2.937757e+12
4.150501e+12
5.227404e+12
6.300221e+12
7.351754e+12
8.338728e+12
9.251731e+12
1.00803e+13
1.083319e+13
1.148201e+13
1.20046e+13
1.239584e+13
1.265587e+13
1.27858e+13
1.278613e+13
1.265685e+13
1.239737e+13
1.200657e+13
1.148427e+13
1.083554e+13
1.008252e+13
9.253522e+12
8.339786e+12
7.351848e+12
6.299366e+12
5.225349e+12
4.14873e+12
2.936139e+12
2.115583e+12
1.186703e+12
1.059018e+12
1.820458e+12
2.691267e+12
3.857181e+12
4.917689e+12
5.922266e+12
6.939662e+12
7.903077e+12
8.795598e+12
9.604054e+12
1.033067e+13
1.096469e+13
1.148237e+13
1.187539e+13
1.21393e+13
1.227227e+13
1.227314e+13
1.214181e+13
1.187925e+13
1.148716e+13
1.096983e+13
1.033555e+13
9.608276e+12
8.799057e+12
7.905506e+12
6.940796e+12
5.92241e+12
4.916288e+12
3.856212e+12
2.689969e+12
1.81929e+12
1.058046e+12
9.465548e+11
1.614422e+12
2.417378e+12
3.475617e+12
4.482048e+12
5.474351e+12
6.438597e+12
7.367299e+12
8.232461e+12
9.022086e+12
9.722138e+12
1.033237e+13
1.083583e+13
1.122497e+13
1.148953e+13
1.162421e+13
1.162509e+13
1.149209e+13
1.122898e+13
1.084094e+13
1.03381e+13
9.727873e+12
9.027314e+12
8.236851e+12
7.370417e+12
6.440244e+12
5.475096e+12
4.481562e+12
3.475377e+12
2.415828e+12
1.612985e+12
9.454199e+11
7.620055e+11
1.379798e+12
2.141914e+12
2.888021e+12
3.930462e+12
4.935493e+12
5.848734e+12
6.733407e+12
7.571713e+12
8.34136e+12
9.02497e+12
9.608597e+12
1.008618e+13
1.045855e+13
1.071462e+13
1.084677e+13
1.084736e+13
1.07163e+13
1.046119e+13
1.008965e+13
9.612673e+12
9.029215e+12
8.345405e+12
7.575182e+12
6.735882e+12
5.850112e+12
4.936495e+12
3.930763e+12
2.888343e+12
2.139688e+12
1.378965e+12
7.611838e+11
9.936457e+11
1.6684e+12
2.462101e+12
3.161755e+12
4.290176e+12
5.218363e+12
6.035764e+12
6.829574e+12
7.57384e+12
8.237337e+12
8.802191e+12
9.259831e+12
9.606793e+12
9.840631e+12
9.960189e+12
9.960436e+12
9.841321e+12
9.607923e+12
9.261502e+12
8.804416e+12
8.239845e+12
7.576386e+12
6.831842e+12
6.037516e+12
5.21964e+12
4.291062e+12
3.162646e+12
2.46162e+12
1.667797e+12
9.930667e+11
7.671302e+11
1.332717e+12
1.925857e+12
2.69322e+12
3.646155e+12
4.506507e+12
5.316042e+12
6.037101e+12
6.736645e+12
7.373006e+12
7.910593e+12
8.347723e+12
8.67811e+12
8.89491e+12
8.998066e+12
8.997997e+12
8.894751e+12
8.678014e+12
8.347944e+12
7.911222e+12
7.373989e+12
6.737778e+12
6.038163e+12
5.316831e+12
4.506887e+12
3.646036e+12
2.692636e+12
1.92524e+12
1.332328e+12
7.672108e+11
8.581894e+11
1.480656e+12
2.218391e+12
2.866881e+12
3.740276e+12
4.507154e+12
5.220503e+12
5.852278e+12
6.443969e+12
6.946884e+12
7.360481e+12
7.666831e+12
7.86569e+12
7.962771e+12
7.9625e+12
7.86504e+12
7.665954e+12
7.359671e+12
6.946432e+12
6.443936e+12
5.852244e+12
5.220457e+12
4.507258e+12
3.740363e+12
2.866965e+12
2.217314e+12
1.480053e+12
8.582359e+11
9.194466e+11
1.600727e+12
2.316641e+12
2.866848e+12
3.647088e+12
4.292393e+12
4.938744e+12
5.478769e+12
5.928363e+12
6.307518e+12
6.586302e+12
6.764448e+12
6.851121e+12
6.850739e+12
6.763692e+12
6.585312e+12
6.306441e+12
5.927424e+12
5.47818e+12
4.938e+12
4.291613e+12
3.646744e+12
2.866746e+12
2.316225e+12
1.600431e+12
9.19263e+11
9.532891e+11
1.600789e+12
2.21905e+12
2.694274e+12
3.164528e+12
3.933526e+12
4.485512e+12
4.921975e+12
5.232466e+12
5.468112e+12
5.621255e+12
5.695936e+12
5.69541e+12
5.620523e+12
5.467171e+12
5.231433e+12
4.921129e+12
4.484627e+12
3.932285e+12
3.162968e+12
2.693755e+12
2.218776e+12
1.600662e+12
9.53181e+11
9.192233e+11
1.480423e+12
1.926991e+12
2.463514e+12
2.889554e+12
3.478002e+12
3.860268e+12
4.154157e+12
4.399661e+12
4.550525e+12
4.620139e+12
4.619533e+12
4.549477e+12
4.398244e+12