/*--------------------------------*- C++ -*----------------------------------*\
  =========                 |
  \\      /  F ield         | OpenFOAM: The Open Source CFD Toolbox
   \\    /   O peration     | Website:  https://openfoam.org
    \\  /    A nd           | Version:  6
     \\/     M anipulation  |
\*---------------------------------------------------------------------------*/
FoamFile
{
    version     2.0;
    format      ascii;
    class       volScalarField;
    location    "49.8/region0/neutronTransport";
    object      precursor5.dnp;
}
// * * * * * * * * * * * * * * * * * * * * * * * * * * * * * * * * * * * * * //

dimensions      [0 -3 0 0 0 0 0];

internalField   nonuniform List<scalar> 
203709
(
1.758771e+12
1.826986e+12
1.815966e+12
1.580522e+12
1.477869e+12
1.706836e+12
2.037509e+12
1.891858e+12
1.849678e+12
1.877378e+12
1.817113e+12
1.422779e+12
1.382114e+12
1.609837e+12
1.759795e+12
1.780688e+12
1.862844e+12
1.856075e+12
1.855381e+12
1.817687e+12
1.781283e+12
1.73992e+12
1.589364e+12
1.318797e+12
1.51163e+12
1.730976e+12
1.833294e+12
1.887308e+12
1.909503e+12
1.934506e+12
1.9307e+12
1.888712e+12
1.895845e+12
1.903277e+12
1.833364e+12
1.764545e+12
1.721324e+12
1.39129e+12
1.621797e+12
1.834977e+12
1.909194e+12
1.955386e+12
1.993176e+12
2.025426e+12
2.041231e+12
2.036248e+12
2.022228e+12
1.960677e+12
1.916392e+12
1.883973e+12
1.795153e+12
1.514556e+12
1.768318e+12
1.78074e+12
1.851014e+12
1.906709e+12
1.982318e+12
2.039374e+12
2.067397e+12
2.075002e+12
2.066585e+12
2.053265e+12
2.026081e+12
1.977117e+12
1.914359e+12
1.836333e+12
1.798252e+12
1.338022e+12
1.751928e+12
1.803952e+12
1.833574e+12
1.869583e+12
1.973069e+12
2.067649e+12
2.109884e+12
2.133869e+12
2.131294e+12
2.10499e+12
2.063123e+12
2.009075e+12
1.948182e+12
1.875339e+12
1.786908e+12
1.517561e+12
2.090448e+12
2.167132e+12
1.96029e+12
1.905108e+12
1.948007e+12
2.013423e+12
2.086843e+12
2.130806e+12
2.149823e+12
2.156244e+12
2.146342e+12
2.117593e+12
2.065795e+12
2.002407e+12
1.925367e+12
1.846278e+12
1.759737e+12
1.306095e+12
2.013917e+12
2.063693e+12
2.000879e+12
1.957293e+12
2.000067e+12
2.068026e+12
2.108781e+12
2.145659e+12
2.161664e+12
2.170717e+12
2.154541e+12
2.133903e+12
2.085252e+12
2.027192e+12
1.952293e+12
1.86981e+12
1.775492e+12
1.435839e+12
2.024041e+12
2.04037e+12
2.014601e+12
1.98873e+12
2.008494e+12
2.058701e+12
2.094231e+12
2.134583e+12
2.150551e+12
2.160209e+12
2.147614e+12
2.128451e+12
2.082791e+12
2.02844e+12
1.957714e+12
1.877061e+12
1.78469e+12
1.474374e+12
1.916844e+12
2.096358e+12
2.054202e+12
2.015567e+12
2.011626e+12
2.045902e+12
2.080732e+12
2.110563e+12
2.132824e+12
2.140774e+12
2.130107e+12
2.106508e+12
2.065227e+12
2.011275e+12
1.943776e+12
1.863199e+12
1.771205e+12
1.491819e+12
2.231336e+12
2.132686e+12
2.063327e+12
2.022958e+12
2.029225e+12
2.055376e+12
2.078708e+12
2.093039e+12
2.099411e+12
2.092861e+12
2.06903e+12
2.03012e+12
1.978117e+12
1.9128e+12
1.824215e+12
1.605492e+12
2.105097e+12
2.26499e+12
2.138991e+12
2.052834e+12
2.017712e+12
2.023836e+12
2.040357e+12
2.053661e+12
2.055361e+12
2.043687e+12
2.017878e+12
1.980651e+12
1.932068e+12
1.866876e+12
1.782916e+12
1.589717e+12
2.265153e+12
2.151131e+12
2.056686e+12
2.018046e+12
2.004528e+12
1.999593e+12
2.001402e+12
1.991704e+12
1.981502e+12
1.955979e+12
1.923292e+12
1.882306e+12
1.806322e+12
1.60511e+12
2.001801e+12
2.194525e+12
2.057261e+12
2.053556e+12
2.016388e+12
1.99403e+12
1.966979e+12
1.939626e+12
1.92225e+12
1.899096e+12
1.877622e+12
1.8605e+12
1.765552e+12
1.553398e+12
1.947509e+12
1.902797e+12
2.215607e+12
2.063902e+12
2.046625e+12
1.971666e+12
1.907884e+12
1.891218e+12
1.894693e+12
1.893298e+12
1.93479e+12
1.635689e+12
1.990928e+12
1.964595e+12
2.18962e+12
2.003507e+12
1.920831e+12
1.903838e+12
1.942699e+12
1.697394e+12
1.873679e+12
1.87404e+12
1.856657e+12
1.647805e+12
1.655954e+12
1.7604e+12
1.824341e+12
1.887944e+12
1.928791e+12
1.930602e+12
1.890609e+12
1.81713e+12
1.723622e+12
1.51766e+12
1.61498e+12
1.765641e+12
1.899586e+12
1.823025e+12
1.880124e+12
1.962534e+12
2.024279e+12
2.027951e+12
1.969988e+12
1.877477e+12
1.786149e+12
1.787727e+12
1.657988e+12
1.371491e+12
1.558082e+12
1.8194e+12
1.764923e+12
1.864594e+12
1.924874e+12
2.027237e+12
2.165426e+12
2.271797e+12
2.276011e+12
2.179322e+12
2.034975e+12
1.910311e+12
1.810231e+12
1.690016e+12
1.618406e+12
1.240748e+12
1.505997e+12
1.782552e+12
1.791229e+12
1.836037e+12
1.985325e+12
2.190731e+12
2.40268e+12
2.668413e+12
2.813614e+12
2.818028e+12
2.703925e+12
2.4123e+12
2.198675e+12
1.986614e+12
1.834241e+12
1.696912e+12
1.540597e+12
1.226313e+12
1.48218e+12
1.736668e+12
1.764114e+12
1.869947e+12
2.108061e+12
2.383475e+12
2.76657e+12
3.055011e+12
3.245611e+12
3.492025e+12
3.495107e+12
3.240279e+12
3.072364e+12
2.817266e+12
2.427055e+12
2.16277e+12
1.910309e+12
1.725984e+12
1.563444e+12
1.255247e+12
1.469078e+12
1.70402e+12
1.744985e+12
1.911687e+12
2.282776e+12
2.764576e+12
3.102621e+12
3.354213e+12
3.779977e+12
3.953911e+12
4.105348e+12
4.106089e+12
3.921874e+12
3.750646e+12
3.362777e+12
3.140093e+12
2.776592e+12
2.331e+12
1.975469e+12
1.753757e+12
1.571322e+12
1.268229e+12
1.361879e+12
1.685576e+12
1.890656e+12
2.259606e+12
2.851495e+12
3.273385e+12
3.860399e+12
4.14382e+12
4.385764e+12
4.508999e+12
4.573916e+12
4.519905e+12
4.442629e+12
4.336067e+12
4.024863e+12
3.735975e+12
3.211853e+12
2.809579e+12
2.336876e+12
1.990795e+12
1.734933e+12
1.420697e+12
1.542201e+12
1.71885e+12
1.780931e+12
2.083782e+12
2.593807e+12
3.154248e+12
3.893494e+12
4.3574e+12
4.613759e+12
4.788739e+12
4.893247e+12
4.941107e+12
4.901625e+12
4.84146e+12
4.666922e+12
4.489801e+12
4.304358e+12
3.882662e+12
3.206084e+12
2.729288e+12
2.200447e+12
1.867654e+12
1.653504e+12
1.256863e+12
1.476844e+12
1.694683e+12
1.870385e+12
2.249519e+12
2.941731e+12
3.513329e+12
4.196455e+12
4.585533e+12
4.788829e+12
4.923294e+12
5.010465e+12
5.05325e+12
5.064679e+12
5.061026e+12
4.989334e+12
4.851655e+12
4.59793e+12
4.199862e+12
3.502226e+12
2.897736e+12
2.367668e+12
1.943999e+12
1.670685e+12
1.29045e+12
1.52982e+12
1.733297e+12
1.995982e+12
2.466774e+12
3.109301e+12
3.84185e+12
4.313787e+12
4.583141e+12
4.811794e+12
5.00872e+12
5.110715e+12
5.168933e+12
5.175871e+12
5.135128e+12
5.04387e+12
4.905981e+12
4.711417e+12
4.402695e+12
3.922307e+12
3.181049e+12
2.588131e+12
2.028513e+12
1.715886e+12
1.300122e+12
1.620894e+12
1.821366e+12
2.130238e+12
2.673837e+12
3.346859e+12
4.01952e+12
4.425201e+12
4.645615e+12
4.869586e+12
5.064827e+12
5.173449e+12
5.237606e+12
5.262057e+12
5.243914e+12
5.173568e+12
5.045622e+12
4.851648e+12
4.565636e+12
4.148537e+12
3.358186e+12
2.718919e+12
2.180125e+12
1.785985e+12
1.332538e+12
1.708521e+12
1.910335e+12
2.252472e+12
2.804513e+12
3.562402e+12
4.135611e+12
4.510884e+12
4.769014e+12
4.978595e+12
5.126594e+12
5.228796e+12
5.293271e+12
5.320895e+12
5.301118e+12
5.234493e+12
5.108527e+12
4.922101e+12
4.652451e+12
4.263779e+12
3.700066e+12
2.866415e+12
2.296602e+12
1.853935e+12
1.375033e+12
1.765507e+12
1.956754e+12
2.294813e+12
2.83428e+12
3.580517e+12
4.134381e+12
4.486833e+12
4.754895e+12
4.96181e+12
5.118047e+12
5.235449e+12
5.308148e+12
5.339896e+12
5.32159e+12
5.255146e+12
5.127772e+12
4.938552e+12
4.665429e+12
4.267264e+12
3.672603e+12
2.884469e+12
2.31897e+12
1.87455e+12
1.405385e+12
1.778939e+12
1.941287e+12
2.231337e+12
2.753085e+12
3.31291e+12
3.972125e+12
4.382573e+12
4.676187e+12
4.901884e+12
5.070587e+12
5.193929e+12
5.273571e+12
5.30689e+12
5.288591e+12
5.217744e+12
5.086279e+12
4.885849e+12
4.590335e+12
4.134052e+12
3.394266e+12
2.880761e+12
2.250257e+12
1.842269e+12
1.411751e+12
1.755183e+12
1.883659e+12
2.108185e+12
2.53693e+12
3.163161e+12
3.797081e+12
4.244473e+12
4.550324e+12
4.788426e+12
4.969489e+12
5.099373e+12
5.180202e+12
5.212049e+12
5.191004e+12
5.112822e+12
4.970505e+12
4.750982e+12
4.414257e+12
3.863229e+12
3.118812e+12
2.622247e+12
2.133818e+12
1.780401e+12
1.393156e+12
1.696869e+12
1.810834e+12
1.988001e+12
2.33406e+12
2.88647e+12
3.402881e+12
3.97019e+12
4.335382e+12
4.606881e+12
4.804444e+12
4.942381e+12
5.025131e+12
5.052449e+12
5.022254e+12
4.930395e+12
4.767553e+12
4.520482e+12
4.122774e+12
3.412229e+12
2.963904e+12
2.379646e+12
1.980223e+12
1.696228e+12
1.352665e+12
1.50459e+12
1.802905e+12
1.884687e+12
2.122991e+12
2.516263e+12
3.140968e+12
3.697562e+12
4.080811e+12
4.344504e+12
4.550789e+12
4.699046e+12
4.785484e+12
4.808038e+12
4.765495e+12
4.651802e+12
4.452386e+12
4.172641e+12
3.714457e+12
3.033945e+12
2.576745e+12
2.133665e+12
1.82168e+12
1.590698e+12
1.319046e+12
1.75866e+12
1.792554e+12
1.945295e+12
2.250214e+12
2.706299e+12
3.185625e+12
3.631219e+12
3.941957e+12
4.168762e+12
4.33793e+12
4.445894e+12
4.469701e+12
4.399504e+12
4.248344e+12
3.977005e+12
3.670815e+12
3.181898e+12
2.776185e+12
2.224901e+12
1.908688e+12
1.675917e+12
1.372317e+12
1.527563e+12
1.799607e+12
1.83759e+12
1.970841e+12
2.248888e+12
2.658599e+12
2.995847e+12
3.322233e+12
3.646509e+12
3.842366e+12
3.97787e+12
4.009262e+12
3.876898e+12
3.67477e+12
3.289149e+12
3.008448e+12
2.700101e+12
2.230537e+12
1.935607e+12
1.761815e+12
1.61595e+12
1.314955e+12
1.523396e+12
1.828267e+12
1.844671e+12
1.948322e+12
2.139678e+12
2.412866e+12
2.725383e+12
2.989934e+12
3.205415e+12
3.396309e+12
3.405593e+12
3.168043e+12
2.988058e+12
2.753178e+12
2.375797e+12
2.137292e+12
1.942757e+12
1.835225e+12
1.774803e+12
1.49072e+12
1.519184e+12
1.825646e+12
1.823679e+12
1.874681e+12
2.006927e+12
2.168637e+12
2.367814e+12
2.601659e+12
2.732191e+12
2.736451e+12
2.646709e+12
2.353116e+12
2.185366e+12
2.042537e+12
1.917903e+12
1.898872e+12
1.892359e+12
1.639065e+12
1.498148e+12
1.80148e+12
1.741625e+12
1.835147e+12
1.889307e+12
1.986285e+12
2.105419e+12
2.203902e+12
2.21043e+12
2.137604e+12
2.020024e+12
1.949265e+12
1.949894e+12
1.881958e+12
1.971672e+12
1.746474e+12
1.511316e+12
1.648346e+12
1.866663e+12
1.791865e+12
1.844302e+12
1.923057e+12
1.986349e+12
2.0011e+12
1.968827e+12
1.919566e+12
1.89557e+12
2.02228e+12
1.949846e+12
1.844872e+12
1.555943e+12
1.717992e+12
1.787543e+12
1.848003e+12
1.887402e+12
1.905481e+12
1.906891e+12
1.897834e+12
1.88911e+12
1.828815e+12
1.570936e+12
1.609221e+12
1.657662e+12
1.680153e+12
1.676282e+12
1.645848e+12
1.592061e+12
1.52936e+12
1.525062e+12
1.672457e+12
1.799526e+12
1.851107e+12
1.787237e+12
1.822634e+12
1.841181e+12
1.838087e+12
1.81233e+12
1.772924e+12
1.827362e+12
1.675826e+12
1.515465e+12
1.393452e+12
1.605637e+12
1.773537e+12
1.814856e+12
1.958922e+12
2.080452e+12
2.111319e+12
2.164946e+12
2.192935e+12
2.190366e+12
2.155531e+12
2.093555e+12
2.043132e+12
1.86985e+12
1.701222e+12
1.680988e+12
1.412217e+12
1.486157e+12
1.698235e+12
1.869788e+12
1.986436e+12
2.178091e+12
2.431435e+12
2.614229e+12
2.700346e+12
2.775113e+12
2.815935e+12
2.813727e+12
2.766947e+12
2.683164e+12
2.580828e+12
2.377009e+12
2.068996e+12
1.877999e+12
1.721746e+12
1.41267e+12
1.239951e+12
1.439025e+12
1.694941e+12
1.807649e+12
2.100253e+12
2.447985e+12
2.783756e+12
3.019749e+12
3.383679e+12
3.563217e+12
3.68894e+12
3.759572e+12
3.762171e+12
3.693252e+12
3.55993e+12
3.367427e+12
2.979817e+12
2.717967e+12
2.393836e+12
1.959022e+12
1.61859e+12
1.49892e+12
1.06466e+12
1.398676e+12
1.662763e+12
1.79952e+12
2.094591e+12
2.589497e+12
2.986582e+12
3.470732e+12
3.778563e+12
4.108502e+12
4.343891e+12
4.51398e+12
4.60972e+12
4.617046e+12
4.530752e+12
4.358499e+12
4.11306e+12
3.761581e+12
3.435698e+12
2.93907e+12
2.561929e+12
1.962353e+12
1.631232e+12
1.378238e+12
9.287457e+11
1.415135e+12
1.728243e+12
2.068078e+12
2.603871e+12
3.080531e+12
3.630006e+12
4.122e+12
4.500603e+12
4.840208e+12
5.097679e+12
5.278422e+12
5.383093e+12
5.391766e+12
5.306612e+12
5.136117e+12
4.887867e+12
4.557379e+12
4.172705e+12
3.690127e+12
3.087718e+12
2.629489e+12
2.045454e+12
1.618602e+12
1.172926e+12
1.448527e+12
1.748709e+12
1.9946e+12
2.559187e+12
3.06687e+12
3.699285e+12
4.310293e+12
4.825303e+12
5.256384e+12
5.611434e+12
5.88007e+12
6.069326e+12
6.181981e+12
6.199525e+12
6.104489e+12
5.93538e+12
5.662387e+12
5.303739e+12
4.878307e+12
4.371729e+12
3.794246e+12
3.094122e+12
2.637464e+12
2.079232e+12
1.594265e+12
1.111101e+12
1.340545e+12
1.661784e+12
1.867069e+12
2.401089e+12
2.975887e+12
3.663261e+12
4.349929e+12
4.97227e+12
5.514684e+12
5.968619e+12
6.307962e+12
6.596479e+12
6.787605e+12
6.902992e+12
6.908224e+12
6.759998e+12
6.587166e+12
6.302951e+12
5.967974e+12
5.519633e+12
4.991232e+12
4.410309e+12
3.788033e+12
3.019998e+12
2.509825e+12
1.996955e+12
1.565562e+12
1.122637e+12
1.377241e+12
1.662755e+12
2.06614e+12
2.703016e+12
3.467412e+12
4.233764e+12
4.945789e+12
5.606877e+12
6.17338e+12
6.674824e+12
7.032637e+12
7.305476e+12
7.468095e+12
7.560542e+12
7.50161e+12
7.394895e+12
7.232961e+12
6.869948e+12
6.485312e+12
5.994284e+12
5.482941e+12
4.907152e+12
4.328679e+12
3.676107e+12
2.823486e+12
2.355018e+12
1.821538e+12
1.355848e+12
1.463996e+12
1.751786e+12
2.332073e+12
2.995502e+12
3.868366e+12
4.724605e+12
5.462943e+12
6.119273e+12
6.757209e+12
7.269273e+12
7.622468e+12
7.875773e+12
8.034139e+12
8.097415e+12
8.035514e+12
7.931665e+12
7.686194e+12
7.422621e+12
7.118224e+12
6.621721e+12
6.044885e+12
5.474949e+12
4.808116e+12
4.104148e+12
3.159244e+12
2.517533e+12
1.977514e+12
1.49139e+12
1.366618e+12
1.708936e+12
1.904993e+12
2.503382e+12
3.313817e+12
4.156601e+12
5.074891e+12
5.864638e+12
6.521208e+12
7.137765e+12
7.604715e+12
7.890694e+12
8.103273e+12
8.259707e+12
8.335964e+12
8.356313e+12
8.331636e+12
8.199648e+12
7.950609e+12
7.545423e+12
7.031165e+12
6.427914e+12
5.799519e+12
5.100997e+12
4.378115e+12
3.596639e+12
2.613597e+12
2.050208e+12
1.610093e+12
1.113336e+12
1.372408e+12
1.641226e+12
1.966668e+12
2.603792e+12
3.533764e+12
4.392048e+12
5.256115e+12
6.076452e+12
6.796609e+12
7.311228e+12
7.664104e+12
7.989e+12
8.3041e+12
8.479121e+12
8.565905e+12
8.568272e+12
8.488354e+12
8.322701e+12
8.080626e+12
7.761436e+12
7.297258e+12
6.711003e+12
6.040921e+12
5.347066e+12
4.579767e+12
3.777531e+12
2.693761e+12
2.059227e+12
1.589505e+12
1.120109e+12
1.405068e+12
1.643965e+12
2.008522e+12
2.671354e+12
3.670675e+12
4.567291e+12
5.440501e+12
6.23683e+12
6.959589e+12
7.464253e+12
7.767429e+12
8.118373e+12
8.443422e+12
8.620005e+12
8.722042e+12
8.753612e+12
8.708529e+12
8.573287e+12
8.341489e+12
8.004528e+12
7.547184e+12
6.96367e+12
6.240495e+12
5.522378e+12
4.743893e+12
3.899429e+12
2.758425e+12
2.080135e+12
1.591742e+12
1.105525e+12
1.434817e+12
1.660011e+12
2.038603e+12
2.713667e+12
3.740768e+12
4.659681e+12
5.538613e+12
6.335286e+12
7.033434e+12
7.598098e+12
7.993758e+12
8.334027e+12
8.581394e+12
8.744348e+12
8.84343e+12
8.875796e+12
8.828562e+12
8.69508e+12
8.464671e+12
8.133153e+12
7.68424e+12
7.104428e+12
6.39779e+12
5.622966e+12
4.832808e+12
3.967815e+12
2.799891e+12
2.111269e+12
1.607111e+12
1.109178e+12
1.446415e+12
1.668102e+12
2.05012e+12
2.725061e+12
3.747681e+12
4.665059e+12
5.538195e+12
6.332399e+12
7.023798e+12
7.597414e+12
8.016792e+12
8.349454e+12
8.603417e+12
8.781191e+12
8.888875e+12
8.925243e+12
8.878749e+12
8.743914e+12
8.509592e+12
8.171099e+12
7.714456e+12
7.125657e+12
6.408381e+12
5.637932e+12
4.838504e+12
3.971445e+12
2.806802e+12
2.13548e+12
1.626402e+12
1.123584e+12
1.439603e+12
1.660985e+12
2.037271e+12
2.699667e+12
3.690325e+12
4.582373e+12
5.437907e+12
6.214118e+12
6.90246e+12
7.464012e+12
7.913496e+12
8.262414e+12
8.526069e+12
8.714473e+12
8.831424e+12
8.871459e+12
8.824713e+12
8.684811e+12
8.443174e+12
8.09196e+12
7.616926e+12
7.003865e+12
6.279944e+12
5.571445e+12
4.765733e+12
3.905386e+12
2.772432e+12
2.133202e+12
1.633141e+12
1.138042e+12
1.418625e+12
1.643752e+12
2.002171e+12
2.640226e+12
3.572156e+12
4.416444e+12
5.230437e+12
6.002173e+12
6.681838e+12
7.246996e+12
7.713507e+12
8.074662e+12
8.35127e+12
8.549846e+12
8.669851e+12
8.70688e+12
8.653536e+12
8.502802e+12
8.247436e+12
7.878488e+12
7.378057e+12
6.736402e+12
6.029977e+12
5.342002e+12
4.593385e+12
3.752994e+12
2.696728e+12
2.088377e+12
1.608879e+12
1.140757e+12
1.319787e+12
1.681022e+12
1.962259e+12
2.55052e+12
3.384988e+12
4.176772e+12
4.944142e+12
5.694224e+12
6.358131e+12
6.931095e+12
7.400245e+12
7.782182e+12
8.073287e+12
8.279164e+12
8.397978e+12
8.425172e+12
8.357229e+12
8.189486e+12
7.916021e+12
7.529561e+12
7.004743e+12
6.356732e+12
5.728148e+12
5.029967e+12
4.311331e+12
3.478846e+12
2.589905e+12
1.986432e+12
1.5268e+12
1.137657e+12
1.592367e+12
1.830292e+12
2.395547e+12
3.005044e+12
3.820313e+12
4.564088e+12
5.277718e+12
5.947444e+12
6.494571e+12
6.957967e+12
7.370158e+12
7.67903e+12
7.889071e+12
8.001234e+12
8.013224e+12
7.927543e+12
7.741623e+12
7.451266e+12
7.05661e+12
6.520633e+12
5.900364e+12
5.291035e+12
4.640656e+12
3.928347e+12
3.052376e+12
2.488912e+12
1.809363e+12
1.309785e+12
1.447638e+12
1.673288e+12
2.075248e+12
2.745759e+12
3.472514e+12
4.156225e+12
4.808821e+12
5.417905e+12
5.946826e+12
6.407448e+12
6.816343e+12
7.151509e+12
7.372282e+12
7.478962e+12
7.47614e+12
7.371727e+12
7.170647e+12
6.869505e+12
6.487456e+12
5.978257e+12
5.423371e+12
4.796523e+12
4.163996e+12
3.464438e+12
2.691809e+12
2.103112e+12
1.640887e+12
1.212925e+12
1.293551e+12
1.640811e+12
1.872117e+12
2.389743e+12
2.957389e+12
3.612911e+12
4.226368e+12
4.796966e+12
5.321397e+12
5.780162e+12
6.171169e+12
6.485842e+12
6.721105e+12
6.831931e+12
6.821875e+12
6.705416e+12
6.500977e+12
6.207826e+12
5.853719e+12
5.381836e+12
4.838632e+12
4.24289e+12
3.617831e+12
2.966401e+12
2.448101e+12
1.80978e+12
1.511616e+12
1.157885e+12
1.360523e+12
1.723816e+12
1.979934e+12
2.505392e+12
3.016688e+12
3.617537e+12
4.172038e+12
4.678667e+12
5.112743e+12
5.474185e+12
5.757183e+12
5.95866e+12
6.063958e+12
6.064881e+12
5.957678e+12
5.761422e+12
5.485638e+12
5.116707e+12
4.697052e+12
4.194791e+12
3.625376e+12
3.044746e+12
2.584034e+12
1.976156e+12
1.653068e+12
1.382279e+12
1.401571e+12
1.661905e+12
1.989804e+12
2.511573e+12
2.995552e+12
3.527171e+12
4.009179e+12
4.399364e+12
4.731764e+12
4.987706e+12
5.151373e+12
5.224834e+12
5.214574e+12
5.127359e+12
4.955469e+12
4.705195e+12
4.361708e+12
4.006297e+12
3.555834e+12
3.070514e+12
2.664501e+12
2.098628e+12
1.785125e+12
1.3381e+12
1.268248e+12
1.570349e+12
1.712462e+12
1.985271e+12
2.48126e+12
2.892274e+12
3.328011e+12
3.654894e+12
3.973695e+12
4.189038e+12
4.325236e+12
4.389332e+12
4.38129e+12
4.303879e+12
4.159483e+12
3.961925e+12
3.664553e+12
3.407303e+12
2.983979e+12
2.665479e+12
2.204516e+12
1.919611e+12
1.762849e+12
1.506852e+12
1.268549e+12
1.596823e+12
1.698597e+12
1.981778e+12
2.36007e+12
2.678287e+12
2.928079e+12
3.256274e+12
3.41992e+12
3.525393e+12
3.579953e+12
3.5798e+12
3.528309e+12
3.436173e+12
3.302535e+12
3.00385e+12
2.8103e+12
2.53623e+12
2.269792e+12
2.015264e+12
1.879771e+12
1.66429e+12
1.327902e+12
1.560363e+12
1.776576e+12
1.903756e+12
2.081691e+12
2.374432e+12
2.563458e+12
2.636872e+12
2.701665e+12
2.739185e+12
2.744801e+12
2.724476e+12
2.688669e+12
2.644817e+12
2.497881e+12
2.297782e+12
2.177605e+12
2.128677e+12
2.018396e+12
1.785826e+12
1.480497e+12
1.738443e+12
1.782723e+12
1.943594e+12
2.06142e+12
2.079197e+12
2.121593e+12
2.148405e+12
2.162098e+12
2.166e+12
2.170943e+12
2.203814e+12
2.122561e+12
2.023092e+12
2.042641e+12
1.976527e+12
1.485862e+12
1.691948e+12
1.831391e+12
1.891206e+12
1.826357e+12
1.856381e+12
1.883809e+12
1.90034e+12
1.909414e+12
1.933092e+12
2.064704e+12
2.03703e+12
1.947201e+12
1.909782e+12
1.64502e+12
1.706628e+12
1.748252e+12
1.783029e+12
1.801559e+12
1.810703e+12
1.821909e+12
1.88133e+12
1.372531e+12
1.397461e+12
1.428896e+12
1.42638e+12
1.39503e+12
1.408846e+12
1.329337e+12
1.479539e+12
1.596398e+12
1.7483e+12
1.788577e+12
1.774684e+12
1.799141e+12
1.795723e+12
1.770458e+12
1.816313e+12
1.668564e+12
1.49795e+12
1.348068e+12
1.258883e+12
1.296531e+12
1.500182e+12
1.688288e+12
1.842296e+12
2.000785e+12
2.199592e+12
2.323532e+12
2.363896e+12
2.393762e+12
2.388504e+12
2.352388e+12
2.312745e+12
2.138401e+12
1.914217e+12
1.735753e+12
1.619773e+12
1.342071e+12
1.269106e+12
1.373805e+12
1.607318e+12
1.837454e+12
2.158651e+12
2.424883e+12
2.672883e+12
2.862335e+12
3.197826e+12
3.314183e+12
3.366041e+12
3.359215e+12
3.295656e+12
3.160724e+12
2.817363e+12
2.585972e+12
2.330781e+12
2.085931e+12
1.741396e+12
1.565317e+12
1.321375e+12
1.398547e+12
1.734638e+12
2.008579e+12
2.408781e+12
2.804793e+12
3.298352e+12
3.614238e+12
3.850716e+12
4.107875e+12
4.24837e+12
4.316102e+12
4.309035e+12
4.228565e+12
4.067514e+12
3.794984e+12
3.524869e+12
3.18669e+12
2.726585e+12
2.333114e+12
1.924981e+12
1.645166e+12
1.265375e+12
1.396017e+12
1.818761e+12
2.194164e+12
2.62876e+12
3.048241e+12
3.671797e+12
4.167865e+12
4.53134e+12
4.799451e+12
5.035644e+12
5.195933e+12
5.282214e+12
5.279197e+12
5.187059e+12
5.00758e+12
4.743091e+12
4.440894e+12
4.050808e+12
3.556007e+12
2.966501e+12
2.545638e+12
2.120923e+12
1.668738e+12
1.187756e+12
1.341186e+12
1.798997e+12
2.271812e+12
2.763297e+12
3.410845e+12
3.945346e+12
4.527658e+12
5.01853e+12
5.404928e+12
5.727273e+12
5.98706e+12
6.173186e+12
6.279765e+12
6.286106e+12
6.187515e+12
5.987172e+12
5.69359e+12
5.321576e+12
4.905565e+12
4.410088e+12
3.851448e+12
3.324392e+12
2.703605e+12
2.194885e+12
1.587129e+12
1.084855e+12
1.27458e+12
1.669576e+12
2.175752e+12
2.75453e+12
3.469727e+12
4.151391e+12
4.751906e+12
5.318262e+12
5.834177e+12
6.257429e+12
6.619867e+12
6.906675e+12
7.115984e+12
7.239324e+12
7.255594e+12
7.156677e+12
6.959681e+12
6.685568e+12
6.306906e+12
5.851378e+12
5.312676e+12
4.742124e+12
4.128591e+12
3.456852e+12
2.713164e+12
2.093302e+12
1.468505e+12
9.684234e+11
1.183404e+12
1.533466e+12
1.942512e+12
2.564211e+12
3.367792e+12
4.131364e+12
4.836347e+12
5.462342e+12
6.092268e+12
6.673261e+12
7.148561e+12
7.552053e+12
7.867083e+12
8.089746e+12
8.212337e+12
8.232764e+12
8.147857e+12
7.93971e+12
7.6318e+12
7.220172e+12
6.726421e+12
6.147988e+12
5.515173e+12
4.884438e+12
4.181478e+12
3.400021e+12
2.55159e+12
1.919173e+12
1.315262e+12
7.981964e+11
1.29576e+12
1.716307e+12
2.333992e+12
2.997325e+12
3.924305e+12
4.73849e+12
5.468686e+12
6.198948e+12
6.868246e+12
7.465631e+12
7.974369e+12
8.397237e+12
8.735384e+12
8.967288e+12
9.087579e+12
9.112198e+12
9.021668e+12
8.820136e+12
8.496033e+12
8.06641e+12
7.547253e+12
6.941811e+12
6.271098e+12
5.551132e+12
4.840816e+12
4.031945e+12
3.026434e+12
2.401282e+12
1.788353e+12
1.077815e+12
1.172113e+12
1.565034e+12
2.06518e+12
2.727225e+12
3.573265e+12
4.464039e+12
5.307093e+12
6.13248e+12
6.911961e+12
7.616796e+12
8.23377e+12
8.764686e+12
9.184047e+12
9.50302e+12
9.723908e+12
9.856471e+12
9.871862e+12
9.733335e+12
9.545591e+12
9.231833e+12
8.820355e+12
8.292656e+12
7.671675e+12
6.984149e+12
6.24142e+12
5.432405e+12
4.628655e+12
3.782918e+12
2.832411e+12
2.193127e+12
1.558935e+12
1.012384e+12
1.283407e+12
1.685105e+12
2.307198e+12
3.175992e+12
4.058836e+12
4.93871e+12
5.865928e+12
6.783532e+12
7.602946e+12
8.357806e+12
9.012227e+12
9.56389e+12
9.987706e+12
1.030401e+13
1.051169e+13
1.063072e+13
1.058156e+13
1.047264e+13
1.027622e+13
9.863955e+12
9.407823e+12
8.856202e+12
8.248148e+12
7.573897e+12
6.855143e+12
6.057463e+12
5.178611e+12
4.340925e+12
3.443906e+12
2.441371e+12
1.891793e+12
1.297393e+12
1.401314e+12
1.84711e+12
2.544397e+12
3.509361e+12
4.442574e+12
5.37521e+12
6.360725e+12
7.360848e+12
8.224072e+12
9.009048e+12
9.69572e+12
1.026749e+13
1.069853e+13
1.101253e+13
1.121424e+13
1.129822e+13
1.12303e+13
1.110172e+13
1.080783e+13
1.048825e+13
1.010897e+13
9.546255e+12
8.915369e+12
8.233967e+12
7.459351e+12
6.599911e+12
5.643428e+12
4.735288e+12
3.792734e+12
2.711786e+12
2.120844e+12
1.475755e+12
1.537439e+12
2.073429e+12
2.769576e+12
3.765099e+12
4.730892e+12
5.72303e+12
6.754266e+12
7.786698e+12
8.694809e+12
9.490513e+12
1.016313e+13
1.070282e+13
1.106206e+13
1.134221e+13
1.155025e+13
1.165248e+13
1.167412e+13
1.162475e+13
1.143907e+13
1.110401e+13
1.058985e+13
9.993703e+12
9.352309e+12
8.622655e+12
7.823418e+12
6.946106e+12
5.988986e+12
4.977728e+12
4.010697e+12
2.899912e+12
2.162823e+12
1.545915e+12
1.231909e+12
1.695707e+12
2.237523e+12
3.068718e+12
3.988698e+12
4.951157e+12
5.977571e+12
7.031982e+12
8.067979e+12
8.990098e+12
9.808963e+12
1.040659e+13
1.086772e+13
1.124915e+13
1.163994e+13
1.189195e+13
1.199162e+13
1.198283e+13
1.186276e+13
1.162864e+13
1.129781e+13
1.087935e+13
1.030872e+13
9.641855e+12
8.903948e+12
8.105203e+12
7.207636e+12
6.230987e+12
5.179006e+12
4.215493e+12
3.259666e+12
2.23215e+12
1.631116e+12
1.009748e+12
1.26845e+12
1.652384e+12
2.274574e+12
3.198944e+12
4.12778e+12
5.10024e+12
6.144465e+12
7.205269e+12
8.230232e+12
9.197851e+12
1.000118e+13
1.059039e+13
1.097529e+13
1.141035e+13
1.186066e+13
1.209679e+13
1.222526e+13
1.225561e+13
1.218009e+13
1.198226e+13
1.165808e+13
1.120474e+13
1.062523e+13
9.935338e+12
9.148538e+12
8.313684e+12
7.399753e+12
6.40023e+12
5.321728e+12
4.347667e+12
3.374306e+12
2.276592e+12
1.601472e+12
9.930059e+11
1.293629e+12
1.67e+12
2.299303e+12
3.251127e+12
4.194543e+12
5.179357e+12
6.236613e+12
7.297485e+12
8.302167e+12
9.265159e+12
1.012352e+13
1.077221e+13
1.126015e+13
1.170366e+13
1.204658e+13
1.226556e+13
1.239066e+13
1.242049e+13
1.234261e+13
1.214594e+13
1.182357e+13
1.1374e+13
1.079368e+13
1.008999e+13
9.28648e+12
8.422779e+12
7.497641e+12
6.485056e+12
5.390668e+12
4.411839e+12
3.426686e+12
2.304561e+12
1.585238e+12
9.618705e+11
1.290364e+12
1.671678e+12
2.302312e+12
3.255677e+12
4.200643e+12
5.188986e+12
6.246538e+12
7.304495e+12
8.300277e+12
9.227194e+12
1.00871e+13
1.078512e+13
1.131555e+13
1.175585e+13
1.209858e+13
1.232545e+13
1.245465e+13
1.248497e+13
1.240456e+13
1.220386e+13
1.18752e+13
1.141619e+13
1.082577e+13
1.011158e+13
9.298149e+12
8.428199e+12
7.495222e+12
6.477825e+12
5.379123e+12
4.404281e+12
3.424487e+12
2.310904e+12
1.585101e+12
9.541981e+11
1.262859e+12
1.656699e+12
2.282249e+12
3.216781e+12
4.148529e+12
5.127103e+12
6.169622e+12
7.212273e+12
8.197621e+12
9.107771e+12
9.936197e+12
1.065596e+13
1.121408e+13
1.165689e+13
1.199825e+13
1.223416e+13
1.237094e+13
1.240314e+13
1.231976e+13
1.211201e+13
1.177394e+13
1.130348e+13
1.070143e+13
9.979254e+12
9.171915e+12
8.320545e+12
7.390225e+12
6.375832e+12
5.287519e+12
4.321877e+12
3.351897e+12
2.286832e+12
1.57907e+12
9.599441e+11
1.248572e+12
1.699656e+12
2.260507e+12
3.122043e+12
4.033829e+12
4.994542e+12
6.006413e+12
7.018544e+12
7.985844e+12
8.876813e+12
9.675413e+12
1.038623e+13
1.096518e+13
1.141891e+13
1.176511e+13
1.200748e+13
1.214473e+13
1.217041e+13
1.207603e+13
1.185467e+13
1.150282e+13
1.102024e+13
1.040899e+13
9.686909e+12
8.901189e+12
8.070237e+12
7.166583e+12
6.169578e+12
5.116968e+12
4.15889e+12
3.17514e+12
2.233176e+12
1.521975e+12
9.774336e+11
1.553285e+12
2.107022e+12
2.805825e+12
3.800271e+12
4.768165e+12
5.744173e+12
6.719453e+12
7.659933e+12
8.527428e+12
9.310464e+12
1.001961e+13
1.059365e+13
1.104688e+13
1.139538e+13
1.163697e+13
1.176583e+13
1.177645e+13
1.166452e+13
1.142659e+13
1.106221e+13
1.057376e+13
9.962669e+12
9.258583e+12
8.510138e+12
7.698288e+12
6.819725e+12
5.852833e+12
4.873774e+12
3.912979e+12
2.844146e+12
2.159201e+12
1.304334e+12
1.39713e+12
1.869078e+12
2.592146e+12
3.556364e+12
4.490491e+12
5.399915e+12
6.326177e+12
7.235976e+12
8.080435e+12
8.856085e+12
9.520425e+12
1.008786e+13
1.054069e+13
1.088528e+13
1.111604e+13
1.12278e+13
1.121865e+13
1.108964e+13
1.084043e+13
1.047326e+13
9.992655e+12
9.396187e+12
8.724001e+12
8.001644e+12
7.222753e+12
6.366589e+12
5.447224e+12
4.563632e+12
3.603552e+12
2.547433e+12
1.856357e+12
1.199541e+12
1.259236e+12
1.691525e+12
2.334329e+12
3.217138e+12
4.099929e+12
4.984289e+12
5.864212e+12
6.738936e+12
7.551365e+12
8.27087e+12
8.912196e+12
9.465439e+12
9.909033e+12
1.023803e+13
1.04511e+13
1.054388e+13
1.051869e+13
1.038062e+13
1.013209e+13
9.776732e+12
9.319724e+12
8.756153e+12
8.121457e+12
7.416685e+12
6.663793e+12
5.839448e+12
4.989663e+12
4.117068e+12
3.217998e+12
2.304454e+12
1.635211e+12
1.071796e+12
1.159304e+12
1.560621e+12
2.0745e+12
2.736309e+12
3.584897e+12
4.454257e+12
5.276974e+12
6.092512e+12
6.866659e+12
7.572728e+12
8.203473e+12
8.732886e+12
9.160258e+12
9.468781e+12
9.666951e+12
9.746839e+12
9.715619e+12
9.580397e+12
9.345184e+12
9.012969e+12
8.582438e+12
8.055332e+12
7.447577e+12
6.774215e+12
6.05249e+12
5.286667e+12
4.495909e+12
3.583741e+12
2.749045e+12
2.100965e+12
1.378535e+12
9.938396e+11
1.245146e+12
1.696964e+12
2.327763e+12
2.969128e+12
3.858492e+12
4.657709e+12
5.41749e+12
6.143425e+12
6.821248e+12
7.406879e+12
7.90614e+12
8.307082e+12
8.606718e+12
8.797976e+12
8.872905e+12
8.845308e+12
8.721454e+12
8.502614e+12
8.189997e+12
7.774024e+12
7.292922e+12
6.718603e+12
6.083518e+12
5.413458e+12
4.695097e+12
3.906819e+12
2.986822e+12
2.398213e+12
1.673572e+12
1.116209e+12
1.128051e+12
1.49998e+12
1.900406e+12
2.534591e+12
3.298431e+12
4.021749e+12
4.737455e+12
5.391873e+12
6.010727e+12
6.555468e+12
7.020172e+12
7.391973e+12
7.676651e+12
7.858511e+12
7.938394e+12
7.917343e+12
7.803595e+12
7.598605e+12
7.311476e+12
6.921167e+12
6.491684e+12
5.942614e+12
5.353878e+12
4.782568e+12
4.100354e+12
3.363689e+12
2.600532e+12
1.940922e+12
1.52403e+12
1.138524e+12
1.203768e+12
1.618532e+12
2.134316e+12
2.693247e+12
3.355532e+12
4.002297e+12
4.594497e+12
5.149646e+12
5.671502e+12
6.102238e+12
6.442198e+12
6.706939e+12
6.872954e+12
6.948868e+12
6.933755e+12
6.834459e+12
6.655012e+12
6.395771e+12
6.035297e+12
5.663439e+12
5.206572e+12
4.694799e+12
4.149596e+12
3.488703e+12
2.793109e+12
2.259576e+12
1.702481e+12
1.352894e+12
1.267183e+12
1.731391e+12
2.225562e+12
2.683889e+12
3.279058e+12
3.765137e+12
4.294624e+12
4.78137e+12
5.165546e+12
5.469299e+12
5.706422e+12
5.843389e+12
5.906213e+12
5.893844e+12
5.812117e+12
5.676474e+12
5.482539e+12
5.224315e+12
4.907333e+12
4.478632e+12
3.952128e+12
3.473934e+12
2.832954e+12
2.376342e+12
1.896456e+12
1.536975e+12
1.342699e+12
1.74987e+12
2.155904e+12
2.572411e+12
2.942286e+12
3.504606e+12
3.977526e+12
4.320557e+12
4.569819e+12
4.787807e+12
4.908018e+12
4.966573e+12
4.966608e+12
4.917287e+12
4.814902e+12
4.638214e+12
4.427284e+12
4.127837e+12
3.696981e+12
3.141757e+12
2.765405e+12
2.338873e+12
1.981439e+12
1.67171e+12
1.369412e+12
1.709277e+12
1.950107e+12
2.372541e+12
2.723694e+12
3.183272e+12
3.492597e+12
3.71283e+12
3.948965e+12
4.054058e+12
4.106025e+12
4.110068e+12