/*--------------------------------*- C++ -*----------------------------------*\
  =========                 |
  \\      /  F ield         | OpenFOAM: The Open Source CFD Toolbox
   \\    /   O peration     | Website:  https://openfoam.org
    \\  /    A nd           | Version:  6
     \\/     M anipulation  |
\*---------------------------------------------------------------------------*/
FoamFile
{
    version     2.0;
    format      ascii;
    class       volScalarField;
    location    "49.8/region0/neutronTransport";
    object      precursor2.dnp;
}
// * * * * * * * * * * * * * * * * * * * * * * * * * * * * * * * * * * * * * //

dimensions      [0 -3 0 0 0 0 0];

internalField   nonuniform List<scalar> 
203709
(
2.69126e+14
2.960967e+14
2.960648e+14
2.69195e+14
2.812505e+14
3.148564e+14
3.897902e+14
3.856909e+14
3.856487e+14
3.897797e+14
3.14835e+14
2.812847e+14
2.747815e+14
3.159674e+14
3.948609e+14
3.937392e+14
4.049408e+14
4.077363e+14
4.077253e+14
4.049276e+14
3.937135e+14
3.948734e+14
3.159855e+14
2.748343e+14
2.747744e+14
3.83786e+14
3.919798e+14
4.073681e+14
4.153735e+14
4.224116e+14
4.255296e+14
4.255471e+14
4.224083e+14
4.153714e+14
4.074147e+14
3.92056e+14
3.839138e+14
2.748975e+14
3.15907e+14
3.919365e+14
4.096551e+14
4.22235e+14
4.317688e+14
4.386596e+14
4.420926e+14
4.421137e+14
4.386713e+14
4.318067e+14
4.223228e+14
4.097715e+14
3.920877e+14
3.160496e+14
2.812001e+14
3.947683e+14
4.073069e+14
4.222004e+14
4.351596e+14
4.453909e+14
4.52496e+14
4.560288e+14
4.560437e+14
4.525395e+14
4.454765e+14
4.352625e+14
4.223383e+14
4.074895e+14
3.949863e+14
2.813395e+14
3.147445e+14
3.936016e+14
4.152573e+14
4.316768e+14
4.453519e+14
4.55985e+14
4.630764e+14
4.664401e+14
4.664582e+14
4.631463e+14
4.560727e+14
4.454575e+14
4.318313e+14
4.154343e+14
3.937758e+14
3.149046e+14
2.691383e+14
3.897231e+14
4.04841e+14
4.223056e+14
4.385816e+14
4.524428e+14
4.630607e+14
4.696572e+14
4.729271e+14
4.729268e+14
4.696676e+14
4.630579e+14
4.524724e+14
4.386507e+14
4.224088e+14
4.04973e+14
3.899031e+14
2.691894e+14
2.960169e+14
3.855944e+14
4.076211e+14
4.254336e+14
4.420015e+14
4.559467e+14
4.664167e+14
4.72954e+14
4.765131e+14
4.764096e+14
4.729369e+14
4.664329e+14
4.560069e+14
4.420755e+14
4.255222e+14
4.077528e+14
3.857228e+14
2.961141e+14
2.960484e+14
3.856707e+14
4.076619e+14
4.25434e+14
4.419873e+14
4.559243e+14
4.663802e+14
4.729405e+14
4.765993e+14
4.764992e+14
4.729594e+14
4.664397e+14
4.559997e+14
4.420808e+14
4.255264e+14
4.077573e+14
3.857709e+14
2.961655e+14
2.690727e+14
3.898007e+14
4.048771e+14
4.223094e+14
4.38556e+14
4.523939e+14
4.630028e+14
4.696333e+14
4.729582e+14
4.729539e+14
4.696999e+14
4.631047e+14
4.524938e+14
4.386576e+14
4.224059e+14
4.049693e+14
3.898656e+14
2.692061e+14
3.147426e+14
3.936153e+14
4.152584e+14
4.316614e+14
4.452913e+14
4.559094e+14
4.630017e+14
4.66405e+14
4.664007e+14
4.630989e+14
4.560244e+14
4.454123e+14
4.31766e+14
4.153507e+14
3.937218e+14
3.148699e+14
2.811885e+14
3.947612e+14
4.072556e+14
4.22133e+14
4.350602e+14
4.452925e+14
4.523771e+14
4.559597e+14
4.559645e+14
4.5248e+14
4.454149e+14
4.352088e+14
4.222808e+14
4.073997e+14
3.948969e+14
2.812897e+14
3.158687e+14
3.918575e+14
4.095653e+14
4.221376e+14
4.316619e+14
4.38572e+14
4.422104e+14
4.422202e+14
4.386308e+14
4.317649e+14
4.222718e+14
4.097252e+14
3.920517e+14
3.160165e+14
2.74746e+14
3.837372e+14
3.918858e+14
4.072767e+14
4.152587e+14
4.223217e+14
4.256267e+14
4.256433e+14
4.223711e+14
4.153434e+14
4.073752e+14
3.92e+14
3.838814e+14
2.748145e+14
2.747725e+14
3.159093e+14
3.947837e+14
3.936141e+14
4.048812e+14
4.077949e+14
4.078402e+14
4.04926e+14
3.937065e+14
3.948584e+14
3.159417e+14
2.748057e+14
2.812369e+14
3.147872e+14
3.897941e+14
3.858437e+14
3.859085e+14
3.898326e+14
3.148247e+14
2.812477e+14
2.69172e+14
2.961023e+14
2.961292e+14
2.691763e+14
2.255133e+14
2.563353e+14
2.667773e+14
2.739439e+14
2.784259e+14
2.784295e+14
2.739571e+14
2.667964e+14
2.563695e+14
2.255708e+14
2.300137e+14
2.680172e+14
3.413881e+14
3.525361e+14
3.652602e+14
3.792732e+14
3.903656e+14
3.903734e+14
3.793144e+14
3.652641e+14
3.524884e+14
3.413149e+14
2.679398e+14
2.299575e+14
2.354299e+14
3.357525e+14
3.546198e+14
3.819004e+14
4.077817e+14
4.2932e+14
4.571342e+14
4.800802e+14
4.800807e+14
4.571473e+14
4.292381e+14
4.076579e+14
3.818302e+14
3.545773e+14
3.35797e+14
2.354666e+14
2.377577e+14
3.420375e+14
3.72781e+14
4.063434e+14
4.411405e+14
4.90673e+14
5.520142e+14
6.129896e+14
6.34876e+14
6.348614e+14
6.128976e+14
5.519209e+14
4.90617e+14
4.411299e+14
4.063543e+14
3.728127e+14
3.420511e+14
2.378089e+14
2.354202e+14
3.420017e+14
3.765486e+14
4.158661e+14
4.811901e+14
5.599381e+14
6.446745e+14
7.069923e+14
7.533805e+14
8.287067e+14
8.286709e+14
7.533329e+14
7.069083e+14
6.445594e+14
5.599103e+14
4.811552e+14
4.158986e+14
3.7657e+14
3.420265e+14
2.354706e+14
2.300348e+14
3.358504e+14
3.728073e+14
4.15893e+14
5.053023e+14
6.247035e+14
7.066881e+14
7.741236e+14
8.82616e+14
9.311964e+14
9.598584e+14
9.598081e+14
9.310636e+14
8.824373e+14
7.739692e+14
7.065448e+14
6.24565e+14
5.052586e+14
4.158729e+14
3.728317e+14
3.35902e+14
2.301008e+14
2.679722e+14
3.54617e+14
4.063493e+14
4.811858e+14
6.246579e+14
7.39253e+14
8.695514e+14
9.417105e+14
9.980876e+14
1.032894e+15
1.050609e+15
1.050563e+15
1.032762e+15
9.979287e+14
9.415664e+14
8.694341e+14
7.392097e+14
6.246958e+14
4.812415e+14
4.064654e+14
3.547573e+14
2.680845e+14
2.255952e+14
3.413828e+14
3.818419e+14
4.411127e+14
5.598791e+14
7.066743e+14
8.694954e+14
9.674378e+14
1.030669e+15
1.074423e+15
1.102218e+15
1.115933e+15
1.115915e+15
1.102166e+15
1.074396e+15
1.030697e+15
9.675309e+14
8.696805e+14
7.06948e+14
5.601893e+14
4.413803e+14
3.820475e+14
3.415002e+14
2.256258e+14
2.564091e+14
3.526152e+14
4.077246e+14
4.906835e+14
6.447643e+14
7.741592e+14
9.416538e+14
1.030631e+15
1.08803e+15
1.126788e+15
1.151319e+15
1.163298e+15
1.163315e+15
1.151375e+15
1.126909e+15
1.08822e+15
1.030901e+15
9.420003e+14
7.745364e+14
6.451291e+14
4.909043e+14
4.07948e+14
3.527237e+14
2.564494e+14
2.668472e+14
3.653757e+14
4.292914e+14
5.519617e+14
7.071456e+14
8.826643e+14
9.980342e+14
1.074358e+15
1.126759e+15
1.162763e+15
1.185649e+15
1.196868e+15
1.196904e+15
1.185764e+15
1.162954e+15
1.12701e+15
1.074662e+15
9.983507e+14
8.829344e+14
7.072842e+14
5.522394e+14
4.295205e+14
3.654448e+14
2.668795e+14
2.740018e+14
3.794174e+14
4.572609e+14
6.131662e+14
7.536202e+14
9.313459e+14
1.032911e+15
1.102185e+15
1.151296e+15
1.185645e+15
1.207498e+15
1.21822e+15
1.218206e+15
1.207491e+15
1.185648e+15
1.151338e+15
1.102282e+15
1.033047e+15
9.31484e+14
7.537249e+14
6.133412e+14
4.573747e+14
3.794834e+14
2.74069e+14
2.784453e+14
3.904422e+14
4.801642e+14
6.351112e+14
8.290289e+14
9.601242e+14
1.050738e+15
1.115967e+15
1.163293e+15
1.196892e+15
1.218316e+15
1.228901e+15
1.228843e+15
1.218303e+15
1.196931e+15
1.163378e+15
1.116074e+15
1.050859e+15
9.602492e+14
8.291646e+14
6.352834e+14
4.803446e+14
3.905782e+14
2.785492e+14
2.783977e+14
3.903698e+14
4.800921e+14
6.350707e+14
8.29058e+14
9.601924e+14
1.050838e+15
1.116024e+15
1.163285e+15
1.19685e+15
1.218313e+15
1.228994e+15
1.22898e+15
1.218435e+15
1.19706e+15
1.163497e+15
1.116181e+15
1.050955e+15
9.603445e+14
8.292467e+14
6.352675e+14
4.80294e+14
3.905339e+14
2.785192e+14
2.738842e+14
3.793175e+14
4.572692e+14
6.132391e+14
7.536486e+14
9.31485e+14
1.033074e+15
1.102292e+15
1.151314e+15
1.1856e+15
1.20748e+15
1.218322e+15
1.218404e+15
1.207757e+15
1.185954e+15
1.151639e+15
1.102552e+15
1.033287e+15
9.317087e+14
7.539103e+14
6.134527e+14
4.574751e+14
3.795185e+14
2.740296e+14
2.667478e+14
3.653339e+14
4.293987e+14
5.521101e+14
7.072182e+14
8.8282e+14
9.981903e+14
1.074447e+15
1.12675e+15
1.162684e+15
1.185554e+15
1.196838e+15
1.196929e+15
1.185865e+15
1.1631e+15
1.127177e+15
1.07483e+15
9.985131e+14
8.831048e+14
7.075097e+14
5.52284e+14
4.295508e+14
3.655577e+14
2.669112e+14
2.563441e+14
3.526058e+14
4.078346e+14
4.907373e+14
6.449181e+14
7.742974e+14
9.417522e+14
1.030646e+15
1.087955e+15
1.126669e+15
1.151199e+15
1.163237e+15
1.163321e+15
1.151495e+15
1.127103e+15
1.088455e+15
1.031138e+15
9.421717e+14
7.745674e+14
6.451143e+14
4.909631e+14
4.079768e+14
3.528155e+14
2.565002e+14
2.255367e+14
3.413905e+14
3.819185e+14
4.411433e+14
5.60014e+14
7.067592e+14
8.695245e+14
9.673906e+14
1.03057e+15
1.074312e+15
1.102156e+15
1.115932e+15
1.116015e+15
1.102427e+15
1.074736e+15
1.031088e+15
9.679326e+14
8.699975e+14
7.070506e+14
5.602062e+14
4.413609e+14
3.820456e+14
3.415622e+14
2.256761e+14
2.680331e+14
3.546316e+14
4.063193e+14
4.811864e+14
6.246722e+14
7.392081e+14
8.69481e+14
9.416565e+14
9.980679e+14
1.032977e+15
1.05074e+15
1.050824e+15
1.033223e+15
9.984532e+14
9.421262e+14
8.699857e+14
7.396404e+14
6.249616e+14
4.813894e+14
4.06547e+14
3.547482e+14
2.680637e+14
2.300809e+14
3.358001e+14
3.727701e+14
4.158676e+14
5.052906e+14
6.246791e+14
7.067518e+14
7.742721e+14
8.828015e+14
9.315201e+14
9.602479e+14
9.603405e+14
9.317272e+14
8.830946e+14
7.745688e+14
7.070949e+14
6.250139e+14
5.055158e+14
4.160379e+14
3.729605e+14
3.359203e+14
2.300412e+14
2.354784e+14
3.421083e+14
3.766167e+14
4.158732e+14
4.81196e+14
5.600393e+14
6.449765e+14
7.073513e+14
7.538125e+14
8.291977e+14
8.292856e+14
7.539583e+14
7.074825e+14
6.450807e+14
5.602261e+14
4.813845e+14
4.16019e+14
3.767281e+14
3.422107e+14
2.354897e+14
2.378339e+14
3.421006e+14
3.728315e+14
4.064443e+14
4.412673e+14
4.907617e+14
5.52198e+14
6.134189e+14
6.353233e+14
6.353539e+14
6.134118e+14
5.522362e+14
4.908777e+14
4.4131e+14
4.064768e+14
3.728778e+14
3.421596e+14
2.37862e+14
2.354322e+14
3.358777e+14
3.547147e+14
3.819605e+14
4.078462e+14
4.295052e+14
4.574344e+14
4.8037e+14
4.803712e+14
4.574188e+14
4.294459e+14
4.078689e+14
3.820208e+14
3.547398e+14
3.358735e+14
2.354358e+14
2.301061e+14
2.680655e+14
3.414752e+14
3.527195e+14
3.654954e+14
3.795142e+14
3.906034e+14
3.906082e+14
3.795093e+14
3.654558e+14
3.526752e+14
3.415259e+14
2.680997e+14
2.301012e+14
2.255774e+14
2.563969e+14
2.668211e+14
2.739782e+14
2.784809e+14
2.784786e+14
2.740252e+14
2.668709e+14
2.564263e+14
2.255655e+14
1.911276e+14
2.167136e+14
2.231256e+14
2.255929e+14
2.255433e+14
2.229778e+14
2.164492e+14
1.90916e+14
1.909168e+14
2.289945e+14
2.507738e+14
3.158968e+14
3.277112e+14
3.346248e+14
3.377736e+14
3.377249e+14
3.344697e+14
3.274632e+14
3.15782e+14
2.507145e+14
2.289658e+14
1.909843e+14
2.105528e+14
3.062813e+14
3.356113e+14
3.700941e+14
4.078076e+14
4.253207e+14
4.360853e+14
4.41139e+14
4.410968e+14
4.359602e+14
4.251246e+14
4.076034e+14
3.699885e+14
3.35545e+14
3.062591e+14
2.106627e+14
1.972972e+14
2.452261e+14
3.294308e+14
3.916228e+14
4.587636e+14
5.340133e+14
5.723137e+14
5.946296e+14
6.094845e+14
6.17189e+14
6.171404e+14
6.093483e+14
5.944292e+14
5.720923e+14
5.338273e+14
4.586414e+14
3.916202e+14
3.293875e+14
2.452633e+14
1.973095e+14
1.991608e+14
3.002865e+14
3.486557e+14
4.337574e+14
5.438456e+14
6.218885e+14
6.871752e+14
7.901683e+14
8.382847e+14
8.666271e+14
8.807362e+14
8.806952e+14
8.665265e+14
8.381652e+14
7.900979e+14
6.872323e+14
6.21984e+14
5.438826e+14
4.337085e+14
3.487269e+14
3.002789e+14
1.991774e+14
1.972897e+14
3.003479e+14
3.600366e+14
4.513429e+14
5.836403e+14
6.810989e+14
8.136688e+14
8.994412e+14
9.738453e+14
1.029108e+15
1.066592e+15
1.085293e+15
1.085252e+15
1.066505e+15
1.028956e+15
9.736896e+14
8.993651e+14
8.136428e+14
6.810928e+14
5.836733e+14
4.514092e+14
3.599939e+14
3.003123e+14
1.972975e+14
2.453205e+14
3.487603e+14
4.514054e+14
5.930121e+14
7.041209e+14
8.603192e+14
9.748591e+14
1.068227e+15
1.147976e+15
1.212443e+15
1.25842e+15
1.277324e+15
1.27727e+15
1.258261e+15
1.212221e+15
1.147785e+15
1.068132e+15
9.748334e+14
8.6034e+14
7.041487e+14
5.929696e+14
4.513882e+14
3.487555e+14
2.453194e+14
2.107494e+14
3.294811e+14
4.337752e+14
5.838009e+14
7.041398e+14
8.744017e+14
1.010167e+15
1.129357e+15
1.232222e+15
1.319117e+15
1.383973e+15
1.430096e+15
1.456702e+15
1.45663e+15
1.429899e+15
1.383693e+15
1.318828e+15
1.231994e+15
1.129209e+15
1.010138e+15
8.744215e+14
7.042005e+14
5.837915e+14
4.337905e+14
3.294918e+14
2.106965e+14
1.909625e+14
3.063742e+14
3.917171e+14
5.439492e+14
6.814052e+14
8.605996e+14
1.010326e+15
1.151342e+15
1.279674e+15
1.384286e+15
1.470503e+15
1.542401e+15
1.592962e+15
1.620293e+15
1.620201e+15
1.592708e+15
1.542041e+15
1.470118e+15
1.383918e+15
1.279393e+15
1.151199e+15
1.010261e+15
8.605827e+14
6.814051e+14
5.438867e+14
3.917832e+14
3.063682e+14
1.909179e+14
2.290999e+14
3.35747e+14
4.588309e+14
6.222286e+14
8.14064e+14
9.752795e+14
1.129608e+15
1.279754e+15
1.407982e+15
1.521242e+15
1.612853e+15
1.684033e+15
1.731846e+15
1.756238e+15
1.756143e+15
1.731587e+15
1.683683e+15
1.612491e+15
1.520925e+15
1.407782e+15
1.279694e+15
1.129628e+15
9.753529e+14
8.14148e+14
6.221895e+14
4.589666e+14
3.358195e+14
2.290885e+14
2.50854e+14
3.701585e+14
5.340036e+14
6.87667e+14
8.999108e+14
1.068672e+15
1.232471e+15
1.38439e+15
1.521231e+15
1.638767e+15
1.7301e+15
1.797487e+15
1.841853e+15
1.863972e+15
1.863915e+15
1.841706e+15
1.797325e+15
1.729995e+15
1.63877e+15
1.521387e+15
1.384704e+15
1.232861e+15
1.069035e+15
9.001999e+14
6.877763e+14
5.343621e+14
3.703391e+14
2.508941e+14
1.91166e+14
3.160428e+14
4.078046e+14
5.72394e+14
7.906762e+14
9.74359e+14
1.14843e+15
1.319471e+15
1.470698e+15
1.612873e+15
1.730083e+15
1.819218e+15
1.883538e+15
1.925381e+15
1.946055e+15
1.946062e+15
1.925406e+15
1.883632e+15
1.819432e+15
1.730448e+15
1.613396e+15
1.471339e+15
1.320143e+15
1.148998e+15
9.747975e+14
7.909358e+14
5.727909e+14
4.080356e+14
3.16024e+14
1.911529e+14
2.16638e+14
3.277285e+14
4.254106e+14
5.948757e+14
8.388357e+14
1.029676e+15
1.212925e+15
1.384443e+15
1.542721e+15
1.684152e+15
1.797513e+15
1.883554e+15
1.945454e+15
1.985627e+15
2.005464e+15
2.005502e+15
1.985752e+15
1.945701e+15
1.883929e+15
1.797997e+15
1.684693e+15
1.543269e+15
1.384978e+15
1.213462e+15
1.03006e+15
8.390658e+14
5.951424e+14
4.25565e+14
3.278157e+14
2.166942e+14
2.231211e+14
3.346939e+14
4.362511e+14
6.098833e+14
8.673034e+14
1.067303e+15
1.259111e+15
1.430767e+15
1.593498e+15
1.732155e+15
1.842007e+15
1.925467e+15
1.985665e+15
2.024739e+15
2.044009e+15
2.044002e+15
2.024746e+15
1.985712e+15
1.925581e+15
1.842198e+15
1.732417e+15
1.593804e+15
1.43111e+15
1.259485e+15
1.067561e+15
8.674253e+14
6.100064e+14
4.363627e+14
3.347721e+14
2.231511e+14
2.256723e+14
3.379544e+14
4.414026e+14
6.177086e+14
8.815234e+14
1.086115e+15
1.278171e+15
1.457574e+15
1.621096e+15
1.756807e+15
1.86432e+15
1.946252e+15
2.005587e+15
2.044156e+15
2.063197e+15
2.063192e+15
2.044199e+15
2.005696e+15
1.946412e+15
1.864505e+15
1.757024e+15
1.621343e+15
1.457889e+15
1.278517e+15
1.086347e+15
8.8159e+14
6.177403e+14
4.414533e+14
3.379795e+14
2.256936e+14
2.256859e+14
3.379675e+14
4.414117e+14
6.177358e+14
8.815521e+14
1.086175e+15
1.278253e+15
1.457653e+15
1.621207e+15
1.756992e+15
1.864469e+15
1.946299e+15
2.005564e+15
2.04415e+15
2.063273e+15
2.063349e+15
2.044408e+15
2.005932e+15
1.946648e+15
1.864724e+15
1.75722e+15
1.621519e+15
1.458036e+15
1.27862e+15
1.086425e+15
8.816373e+14
6.17739e+14
4.414398e+14
3.379692e+14
2.257006e+14
2.231825e+14
3.347685e+14
4.363039e+14
6.099703e+14
8.673874e+14
1.067523e+15
1.259409e+15
1.431042e+15
1.593826e+15
1.732523e+15
1.842314e+15
1.925636e+15
1.985698e+15
2.024741e+15
2.044119e+15
2.044276e+15
2.025174e+15
1.986243e+15
1.926147e+15
1.842742e+15
1.732909e+15
1.594235e+15
1.431473e+15
1.259793e+15
1.067836e+15
8.675649e+14
6.099847e+14
4.363516e+14
3.347928e+14
2.232114e+14
2.167666e+14
3.278497e+14
4.255033e+14
5.950421e+14
8.389588e+14
1.029966e+15
1.213361e+15
1.384885e+15
1.543179e+15
1.68459e+15
1.797844e+15
1.88372e+15
1.945467e+15
1.985563e+15
2.00544e+15
2.005592e+15
1.986e+15
1.946073e+15
1.884375e+15
1.798465e+15
1.685143e+15
1.54367e+15
1.385327e+15
1.213728e+15
1.030308e+15
8.392116e+14
5.950386e+14
4.255653e+14
3.279069e+14
2.168055e+14
1.91313e+14
3.161036e+14
4.079974e+14
5.726891e+14
7.907675e+14
9.746142e+14
1.148773e+15
1.319918e+15
1.471149e+15
1.613256e+15
1.73033e+15
1.819311e+15
1.883521e+15
1.925332e+15
1.946064e+15
1.946205e+15
1.925757e+15
1.884166e+15
1.820084e+15
1.731125e+15
1.613978e+15
1.471745e+15
1.320422e+15
1.149226e+15
9.749661e+14
7.910668e+14
5.726267e+14
4.080543e+14
3.162311e+14
1.913406e+14
2.50931e+14
3.703335e+14
5.343524e+14
6.876554e+14
9.000804e+14
1.068834e+15
1.232762e+15
1.384687e+15
1.521447e+15
1.63888e+15
1.730138e+15
1.797508e+15
1.841933e+15
1.864155e+15
1.864305e+15
1.842379e+15
1.798209e+15
1.731014e+15
1.639823e+15
1.522332e+15
1.38542e+15
1.233385e+15
1.069361e+15
9.004166e+14
6.88006e+14
5.342361e+14
3.703497e+14
2.51002e+14
2.290924e+14
3.358301e+14
4.590487e+14
6.223094e+14
8.142085e+14
9.753112e+14
1.129686e+15
1.27986e+15
1.408056e+15
1.521322e+15
1.612999e+15
1.684286e+15
1.732258e+15
1.756795e+15
1.75695e+15
1.732708e+15
1.684991e+15
1.613897e+15
1.522323e+15
1.409032e+15
1.280698e+15
1.130392e+15
9.758483e+14
8.14499e+14
6.226215e+14
4.590467e+14
3.359024e+14
2.292162e+14
1.90899e+14
3.065093e+14
3.918998e+14
5.44086e+14
6.815252e+14
8.60636e+14
1.01038e+15
1.151456e+15
1.279848e+15
1.384593e+15
1.471007e+15
1.543085e+15
1.593857e+15
1.621355e+15
1.621499e+15
1.594251e+15
1.543685e+15
1.471771e+15
1.385483e+15
1.28075e+15
1.152259e+15
1.011054e+15
8.611161e+14
6.816999e+14
5.443428e+14
3.918919e+14
3.065093e+14
1.910749e+14
2.106641e+14
3.295754e+14
4.339295e+14
5.838485e+14
7.043217e+14
8.746005e+14
1.010464e+15
1.129774e+15
1.232819e+15
1.319971e+15
1.385031e+15
1.431347e+15
1.458096e+15
1.458213e+15
1.431644e+15
1.385452e+15
1.320508e+15
1.23347e+15
1.130438e+15
1.011073e+15
8.751268e+14
7.047099e+14
5.841446e+14
4.340653e+14
3.29633e+14
2.107526e+14
2.453412e+14
3.488635e+14
4.515457e+14
5.932179e+14
7.043606e+14
8.608217e+14
9.755516e+14
1.069074e+15
1.148966e+15
1.213636e+15
1.259855e+15
1.278895e+15
1.278961e+15
1.260024e+15
1.2139e+15
1.149325e+15
1.069445e+15
9.759258e+14
8.611858e+14
7.046865e+14
5.93453e+14
4.516786e+14
3.488997e+14
2.453599e+14
1.97402e+14
3.004739e+14
3.601958e+14
4.515723e+14
5.840952e+14
6.817235e+14
8.143794e+14
9.003128e+14
9.748785e+14
1.030313e+15
1.067973e+15
1.086756e+15
1.086787e+15
1.068088e+15
1.030458e+15
9.750589e+14
9.005411e+14
8.146651e+14
6.819491e+14
5.842588e+14
4.516932e+14
3.602531e+14
3.004914e+14
1.973844e+14
1.992135e+14
3.004969e+14
3.489658e+14
4.339795e+14
5.441284e+14
6.223268e+14
6.87867e+14
7.909848e+14
8.391901e+14
8.676577e+14
8.818328e+14
8.818384e+14
8.677749e+14
8.393768e+14
7.911778e+14
6.880063e+14
6.225979e+14
5.444041e+14
4.341516e+14
3.490202e+14
3.00533e+14
1.992252e+14
1.974164e+14
2.454513e+14
3.296044e+14
3.919047e+14
4.589888e+14
5.342869e+14
5.725758e+14
5.949187e+14
6.099095e+14
6.179675e+14
6.179079e+14
6.100932e+14
5.952015e+14
5.728722e+14
5.345585e+14
4.59205e+14
3.920289e+14
3.296962e+14
2.454346e+14
1.974354e+14
2.107151e+14
3.064428e+14
3.358383e+14
3.702965e+14
4.079237e+14
4.254129e+14
4.362378e+14
4.414718e+14
4.41393e+14
4.36307e+14
4.255057e+14
4.080191e+14
3.703419e+14
3.358393e+14
3.065895e+14
2.107122e+14
1.909114e+14
2.291234e+14
2.508934e+14
3.160844e+14
3.277612e+14
3.346894e+14
3.38073e+14
3.380414e+14
3.346805e+14
3.27742e+14
3.161204e+14
2.50884e+14
2.290802e+14
1.909881e+14
1.912401e+14
2.166718e+14
2.230857e+14
2.256786e+14
2.256573e+14
2.230551e+14
2.16612e+14
1.911014e+14
1.696229e+14
1.911677e+14
1.959828e+14
1.959263e+14
1.909941e+14
1.695009e+14
1.630457e+14
2.027233e+14
2.268354e+14
2.542984e+14
3.158736e+14
3.292313e+14
3.343705e+14
3.342432e+14
3.289026e+14
3.154865e+14
2.54212e+14
2.268022e+14
2.026615e+14
1.630655e+14
1.643675e+14
2.127977e+14
2.955324e+14
3.457851e+14
3.899394e+14
4.532672e+14
4.883157e+14
5.028716e+14
5.099688e+14
5.098067e+14
5.02461e+14
4.879256e+14
4.53136e+14
3.897733e+14
3.455306e+14
2.954327e+14
2.128132e+14
1.644698e+14
1.838767e+14
2.854992e+14
3.573052e+14
4.586904e+14
5.17797e+14
5.763635e+14
6.288561e+14
7.161177e+14
7.497381e+14
7.631602e+14
7.630186e+14
7.493657e+14
7.156678e+14
6.284839e+14
5.759574e+14
5.174592e+14
4.582627e+14
3.572662e+14
2.854412e+14
1.840029e+14
1.970187e+14
3.171393e+14
4.124193e+14
5.274069e+14
6.186642e+14
7.443073e+14
8.258659e+14
8.885214e+14
9.409406e+14
9.731396e+14
9.880038e+14
9.87891e+14
9.728355e+14
9.405377e+14
8.881387e+14
8.255673e+14
7.441009e+14
6.184938e+14
5.271204e+14
4.123731e+14
3.170592e+14
1.970626e+14
2.043355e+14
3.429724e+14
4.750011e+14
5.767361e+14
6.77285e+14
8.417088e+14
9.597358e+14
1.052973e+15
1.119206e+15
1.169477e+15
1.202103e+15
1.217945e+15
1.217866e+15
1.20189e+15
1.169195e+15
1.11892e+15
1.052717e+15
9.595512e+14
8.416562e+14
6.772576e+14
5.765478e+14
4.748247e+14
3.42855e+14
2.043029e+14
1.970773e+14
3.430249e+14
4.961427e+14
6.141496e+14
7.808575e+14
9.188376e+14
1.056933e+15
1.172264e+15
1.268144e+15
1.349015e+15
1.408483e+15
1.44647e+15
1.46498e+15
1.464936e+15
1.446365e+15
1.408376e+15
1.34896e+15
1.268155e+15
1.172303e+15
1.056974e+15
9.187977e+14
7.80794e+14
6.140351e+14
4.95813e+14
3.429006e+14
1.970316e+14
1.839771e+14
3.171938e+14
4.752066e+14
6.141928e+14
8.011825e+14
9.651549e+14
1.117585e+15
1.25248e+15
1.378823e+15
1.486099e+15
1.574281e+15
1.639579e+15
1.681961e+15
1.702695e+15
1.702672e+15
1.681918e+15
1.639546e+15
1.574306e+15
1.486203e+15
1.378968e+15
1.252616e+15
1.117663e+15
9.651844e+14
8.011151e+14
6.14078e+14
4.749948e+14
3.17099e+14
1.839165e+14
1.644517e+14
2.855715e+14
4.126968e+14
5.76907e+14
7.810644e+14
9.65309e+14
1.138503e+15
1.292636e+15
1.442062e+15
1.577935e+15
1.69265e+15
1.785862e+15
1.856256e+15
1.902412e+15
1.924372e+15
1.924326e+15
1.902305e+15
1.856156e+15
1.785847e+15
1.692751e+15
1.57812e+15
1.442264e+15
1.29278e+15
1.138539e+15
9.652603e+14
7.809279e+14
5.7675e+14
4.125909e+14
2.854709e+14
1.643886e+14
2.129165e+14
3.575924e+14
5.2751e+14
6.777797e+14
9.192185e+14
1.117942e+15
1.292851e+15
1.462649e+15
1.621756e+15
1.76352e+15
1.88412e+15
1.981719e+15
2.055645e+15
2.10541e+15
2.13081e+15
2.130739e+15
2.10522e+15
2.05541e+15
1.981539e+15
1.884051e+15
1.763576e+15
1.621902e+15
1.462797e+15
1.292939e+15
1.117903e+15
9.191078e+14
6.776163e+14
5.274094e+14
3.574886e+14
2.129022e+14
1.63183e+14
2.956284e+14
4.587578e+14
6.190244e+14
8.423788e+14
1.057555e+15
1.253111e+15
1.44258e+15
1.622055e+15
1.786749e+15
1.932966e+15
2.057699e+15
2.159653e+15
2.239056e+15
2.293562e+15
2.32159e+15
2.321479e+15
2.293261e+15
2.238653e+15
2.159263e+15
2.057398e+15
1.932809e+15
1.786733e+15
1.622107e+15
1.442634e+15
1.253103e+15
1.057456e+15
8.422178e+14
6.186737e+14
4.586855e+14
2.955701e+14
1.632683e+14
2.027076e+14
3.458473e+14
5.179518e+14
7.44973e+14
9.605041e+14
1.173128e+15
1.379706e+15
1.578743e+15
1.764101e+15
1.93324e+15
2.083173e+15
2.213803e+15
2.321472e+15
2.40458e+15
2.460948e+15
2.489493e+15
2.489359e+15
2.460588e+15
2.4041e+15
2.321001e+15
2.21344e+15
2.082986e+15
1.933233e+15
1.764206e+15
1.578889e+15
1.379813e+15
1.173113e+15
9.604184e+14
7.446206e+14
5.177077e+14
3.457623e+14
2.027567e+14
2.269469e+14
3.901771e+14
5.768353e+14
8.267659e+14
1.053868e+15
1.269247e+15
1.487209e+15
1.69365e+15
1.884864e+15
2.058123e+15
2.213923e+15
2.3499e+15
2.460896e+15
2.545085e+15
2.601504e+15
2.629786e+15
2.62969e+15
2.601255e+15
2.544793e+15
2.460689e+15
2.349873e+15
2.214116e+15
2.058516e+15
1.885365e+15
1.694137e+15
1.487572e+15
1.269406e+15
1.053903e+15
8.26426e+14
5.764209e+14
3.898843e+14
2.26817e+14
2.545069e+14
4.539114e+14
6.297451e+14
8.896203e+14
1.120334e+15
1.350304e+15
1.575548e+15
1.786968e+15
1.982586e+15
2.160202e+15
2.321679e+15
2.460937e+15
2.573182e+15
2.657244e+15
2.713097e+15
2.740953e+15
2.740942e+15
2.713076e+15
2.657305e+15
2.573431e+15
2.461439e+15
2.322437e+15
2.161142e+15
1.983563e+15
1.78782e+15
1.576165e+15
1.350629e+15
1.120423e+15
8.893011e+14
6.291808e+14
4.532349e+14
2.542236e+14
1.697739e+14
3.160623e+14
4.890392e+14
7.171996e+14
9.422058e+14
1.17084e+15
1.40995e+15
1.640965e+15
1.857472e+15
2.056696e+15
2.23983e+15
2.40499e+15
2.545257e+15
2.657324e+15
2.740725e+15
2.795923e+15
2.823413e+15
2.823452e+15
2.79606e+15
2.741036e+15
2.657857e+15
2.545993e+15
2.405846e+15
2.240744e+15
2.057611e+15
1.858292e+15
1.64154e+15
1.410209e+15
1.170845e+15
9.418503e+14
7.165652e+14
4.883565e+14
3.157048e+14
1.695725e+14
1.911756e+14
3.294766e+14
5.035579e+14
7.508743e+14
9.745278e+14
1.203673e+15
1.448141e+15
1.683527e+15
1.903836e+15
2.106754e+15
2.294683e+15
2.461697e+15
2.601936e+15
2.713345e+15
2.796027e+15
2.850656e+15
2.877829e+15
2.877838e+15
2.850706e+15
2.796156e+15
2.713591e+15
2.602316e+15
2.462197e+15
2.295274e+15
2.107406e+15
1.904464e+15
1.683919e+15
1.448201e+15
1.203512e+15
9.741399e+14
7.503053e+14
5.030091e+14
3.291573e+14
1.911163e+14
1.960815e+14
3.347141e+14
5.106602e+14
7.643811e+14
9.895374e+14
1.219695e+15
1.466837e+15
1.704467e+15
1.926027e+15
2.13245e+15
2.323115e+15
2.490667e+15
2.630573e+15
2.741434e+15
2.823674e+15
2.878017e+15
2.905062e+15
2.905095e+15
2.878134e+15
2.823882e+15
2.741712e+15
2.630906e+15
2.491075e+15
2.323605e+15
2.133051e+15
1.926607e+15
1.704775e+15
1.466787e+15
1.219416e+15
9.891147e+14
7.639043e+14
5.103251e+14
3.345186e+14
1.96038e+14
1.960877e+14
3.347494e+14
5.107476e+14
7.644048e+14
9.89563e+14
1.219737e+15
1.466913e+15
1.704609e+15
1.926199e+15
2.132601e+15
2.323282e+15
2.490928e+15
2.630829e+15
2.741554e+15
2.823676e+15
2.878001e+15
2.905112e+15
2.905248e+15
2.87838e+15
2.824187e+15
2.742038e+15
2.631219e+15
2.491356e+15
2.323852e+15
2.133276e+15
1.926818e+15
1.704974e+15
1.466952e+15
1.219541e+15
9.892344e+14
7.640214e+14
5.104383e+14
3.34608e+14
1.961018e+14
1.912799e+14
3.295372e+14
5.035689e+14
7.508596e+14
9.745735e+14
1.203781e+15
1.448336e+15
1.683914e+15
1.904322e+15
2.107228e+15
2.295201e+15
2.462277e+15
2.602474e+15
2.713705e+15
2.796169e+15
2.850676e+15
2.877902e+15
2.878099e+15
2.851194e+15
2.796826e+15
2.714357e+15
2.603088e+15
2.462903e+15
2.295887e+15
2.107944e+15
1.904973e+15
1.684405e+15
1.448596e+15
1.203829e+15
9.74525e+14
7.507405e+14
5.034442e+14
3.295016e+14
1.913124e+14
1.699211e+14
3.159534e+14
4.888591e+14
7.171004e+14
9.422236e+14
1.170987e+15
1.410197e+15
1.641441e+15
1.858124e+15
2.057414e+15
2.240579e+15
2.405737e+15
2.545888e+15
2.657731e+15
2.740886e+15
2.795917e+15
2.823397e+15
2.823567e+15
2.796394e+15
2.741573e+15
2.658531e+15
2.546727e+15
2.406566e+15
2.241373e+15
2.05814e+15
1.858771e+15
1.642008e+15
1.410624e+15
1.171232e+15
9.424456e+14
7.1726e+14
4.889842e+14
3.160672e+14
1.699662e+14
2.545027e+14
4.535802e+14
6.296433e+14
8.896256e+14
1.120516e+15
1.350526e+15
1.575957e+15
1.787548e+15
1.983304e+15
2.16097e+15
2.322393e+15
2.461488e+15
2.573521e+15
2.657405e+15
2.713181e+15
2.741098e+15
2.741265e+15
2.713673e+15
2.658174e+15
2.574493e+15
2.46256e+15
2.323444e+15
2.161922e+15
1.984136e+15
1.788275e+15
1.57658e+15
1.351049e+15
1.120842e+15
8.899929e+14
6.299211e+14
4.53902e+14
2.545868e+14
2.269451e+14
3.90151e+14
5.768054e+14
8.267157e+14
1.05405e+15
1.269405e+15
1.487507e+15
1.694035e+15
1.885366e+15
2.058674e+15
2.214412e+15
2.350279e+15
2.461182e+15
2.545357e+15
2.601865e+15
2.630335e+15
2.630535e+15
2.602454e+15
2.546292e+15
2.462385e+15
2.351622e+15
2.215737e+15
2.059856e+15
1.886393e+15
1.6949e+15
1.488207e+15
1.270015e+15
1.054407e+15
8.271517e+14
5.77061e+14
3.902884e+14
2.269709e+14
2.028586e+14
3.460109e+14
5.181152e+14
7.449218e+14
9.606177e+14
1.173295e+15
1.37996e+15
1.579003e+15
1.764411e+15
1.933588e+15
2.083532e+15
2.21421e+15
2.321995e+15
2.405292e+15
2.461918e+15
2.490754e+15
2.490974e+15
2.462562e+15
2.406317e+15
2.323327e+15
2.215723e+15
2.085061e+15
1.934978e+15
1.765606e+15
1.579979e+15
1.380719e+15
1.173958e+15
9.610618e+14
7.453879e+14
5.182044e+14
3.460029e+14
2.028014e+14
1.633188e+14
2.957536e+14
4.591024e+14
6.189969e+14
8.423746e+14
1.057707e+15
1.253349e+15
1.442847e+15
1.622387e+15
1.787203e+15
1.933581e+15
2.05854e+15
2.160789e+15
2.240511e+15
2.295346e+15
2.323679e+15
2.323878e+15
2.295923e+15
2.241424e+15
2.161991e+15
2.059941e+15
1.935037e+15
1.788578e+15
1.623606e+15
1.443849e+15
1.254134e+15
1.058417e+15
8.429029e+14
6.194489e+14
4.589387e+14
2.957875e+14
1.632709e+14
2.12988e+14
3.576361e+14
5.277449e+14
6.776649e+14
9.194237e+14
1.118218e+15
1.29325e+15
1.463215e+15
1.622559e+15
1.7646e+15
1.885514e+15
1.983475e+15
2.057751e+15
2.107833e+15
2.133488e+15
2.133638e+15
2.108262e+15
2.058425e+15
1.984369e+15
1.886576e+15
1.765726e+15
1.623667e+15
1.464255e+15
1.294173e+15
1.119011e+15
9.200599e+14
6.782032e+14
5.279288e+14
3.577105e+14
2.129941e+14
1.644529e+14
2.857091e+14
4.128488e+14
5.772991e+14
7.814725e+14
9.657518e+14
1.1391e+15
1.29346e+15
1.443195e+15
1.579392e+15
1.694433e+15
1.787978e+15
1.858698e+15
1.90514e+15
1.927299e+15
1.927396e+15
1.905423e+15
1.85915e+15
1.788584e+15
1.695153e+15
1.580178e+15
1.444002e+15
1.294251e+15
1.139809e+15
9.663119e+14
7.818309e+14
5.774464e+14
4.129076e+14
2.857582e+14
1.645492e+14
1.8398e+14
3.174382e+14
4.755805e+14
6.145299e+14
8.016289e+14
9.658453e+14
1.118553e+15
1.253759e+15
1.380376e+15
1.487978e+15
1.576483e+15
1.642067e+15
1.684687e+15
1.705561e+15
1.705618e+15
1.684879e+15
1.642376e+15
1.5769e+15
1.488507e+15
1.380993e+15
1.25438e+15
1.119143e+15
9.663908e+14
8.020604e+14
6.148317e+14
4.755486e+14
3.174354e+14
1.840621e+14
1.971197e+14
3.431862e+14
4.966271e+14
6.144843e+14
7.815875e+14
9.197325e+14
1.058079e+15
1.173646e+15
1.26984e+15
1.350989e+15
1.410694e+15
1.448896e+15
1.467546e+15
1.467573e+15
1.449051e+15
1.410973e+15
1.351365e+15
1.270308e+15
1.174191e+15
1.058579e+15
9.201432e+14
7.819717e+14
6.147761e+14
4.967532e+14
3.432535e+14
1.971416e+14
2.04375e+14
3.431727e+14
4.756565e+14
5.774223e+14
6.781015e+14
8.427634e+14
9.609313e+14
1.054345e+15
1.120817e+15
1.171303e+15
1.204156e+15
1.220231e+15
1.220211e+15
1.204278e+15
1.171546e+15
1.121158e+15
1.054791e+15
9.613521e+14
8.430644e+14
6.78194e+14
5.776359e+14
4.758266e+14
3.43281e+14
2.044068e+14
1.970598e+14
3.173384e+14
4.12999e+14
5.279197e+14
6.19142e+14
7.451611e+14
8.270009e+14
8.899421e+14
9.425523e+14
9.749136e+14
9.898875e+14
9.898301e+14
9.749083e+14
9.426004e+14