/*--------------------------------*- C++ -*----------------------------------*\
  =========                 |
  \\      /  F ield         | OpenFOAM: The Open Source CFD Toolbox
   \\    /   O peration     | Website:  https://openfoam.org
    \\  /    A nd           | Version:  6
     \\/     M anipulation  |
\*---------------------------------------------------------------------------*/
FoamFile
{
    version     2.0;
    format      ascii;
    class       volScalarField;
    location    "49.8/region0/neutronTransport";
    object      precursor4.dnp;
}
// * * * * * * * * * * * * * * * * * * * * * * * * * * * * * * * * * * * * * //

dimensions      [0 -3 0 0 0 0 0];

internalField   nonuniform List<scalar> 
203709
(
2.773098e+13
3.050884e+13
3.050451e+13
2.773586e+13
2.898361e+13
3.244457e+13
4.016409e+13
3.974088e+13
3.973523e+13
4.015954e+13
3.243762e+13
2.898136e+13
2.831985e+13
3.256164e+13
4.068852e+13
4.057198e+13
4.172547e+13
4.201258e+13
4.201026e+13
4.172084e+13
4.056402e+13
4.068218e+13
3.25548e+13
2.831444e+13
2.832412e+13
3.955374e+13
4.039672e+13
4.198059e+13
4.280322e+13
4.352687e+13
4.384668e+13
4.384695e+13
4.352225e+13
4.279553e+13
4.197407e+13
4.038988e+13
3.954864e+13
2.831989e+13
3.256539e+13
4.039806e+13
4.222209e+13
4.351616e+13
4.449591e+13
4.520365e+13
4.55554e+13
4.55556e+13
4.519865e+13
4.448906e+13
4.350974e+13
4.221419e+13
4.038986e+13
3.255793e+13
2.899171e+13
4.069435e+13
4.198519e+13
4.351801e+13
4.485118e+13
4.590296e+13
4.663232e+13
4.699379e+13
4.699327e+13
4.662972e+13
4.589886e+13
4.484293e+13
4.350794e+13
4.197517e+13
4.068461e+13
2.898267e+13
3.245087e+13
4.057775e+13
4.280943e+13
4.450056e+13
4.59076e+13
4.699982e+13
4.772642e+13
4.806958e+13
4.806926e+13
4.772607e+13
4.69949e+13
4.589857e+13
4.449234e+13
4.280142e+13
4.056891e+13
3.244406e+13
2.775143e+13
4.017948e+13
4.173873e+13
4.353925e+13
4.521699e+13
4.664478e+13
4.773595e+13
4.84113e+13
4.874415e+13
4.87419e+13
4.840576e+13
4.772493e+13
4.663357e+13
4.520747e+13
4.353114e+13
4.173155e+13
4.017552e+13
2.773775e+13
3.052319e+13
3.975505e+13
4.202654e+13
4.386384e+13
4.55722e+13
4.700852e+13
4.808431e+13
4.875349e+13
4.911591e+13
4.910226e+13
4.874319e+13
4.807304e+13
4.699894e+13
4.556286e+13
4.385549e+13
4.202194e+13
3.974905e+13
3.051363e+13
3.052851e+13
3.976553e+13
4.203236e+13
4.386518e+13
4.557322e+13
4.701005e+13
4.808427e+13
4.875466e+13
4.912632e+13
4.911253e+13
4.874629e+13
4.807426e+13
4.699868e+13
4.556433e+13
4.38576e+13
4.202479e+13
3.975674e+13
3.052134e+13
2.774943e+13
4.019398e+13
4.174893e+13
4.354719e+13
4.522291e+13
4.664893e+13
4.773992e+13
4.841841e+13
4.875509e+13
4.874989e+13
4.841216e+13
4.773192e+13
4.663854e+13
4.521267e+13
4.353722e+13
4.173887e+13
4.018e+13
2.774517e+13
3.245968e+13
4.059121e+13
4.282384e+13
4.451505e+13
4.591888e+13
4.701085e+13
4.77383e+13
4.808483e+13
4.80801e+13
4.773634e+13
4.70052e+13
4.591069e+13
4.450397e+13
4.281161e+13
4.058122e+13
3.245378e+13
2.900214e+13
4.071143e+13
4.200042e+13
4.353382e+13
4.486516e+13
4.591795e+13
4.664583e+13
4.701243e+13
4.700996e+13
4.664771e+13
4.591665e+13
4.48625e+13
4.352859e+13
4.199372e+13
4.070345e+13
2.899441e+13
3.257915e+13
4.041357e+13
4.223891e+13
4.353426e+13
4.451496e+13
4.522588e+13
4.559917e+13
4.559801e+13
4.522538e+13
4.451476e+13
4.353334e+13
4.223761e+13
4.041386e+13
3.257601e+13
2.833945e+13
3.957683e+13
4.041753e+13
4.200448e+13
4.282692e+13
4.35542e+13
4.389351e+13
4.389328e+13
4.355351e+13
4.282626e+13
4.200186e+13
4.041404e+13
3.957396e+13
2.833037e+13
2.83435e+13
3.25856e+13
4.071961e+13
4.059833e+13
4.175939e+13
4.205837e+13
4.206113e+13
4.175841e+13
4.059909e+13
4.071518e+13
3.257679e+13
2.833342e+13
2.901035e+13
3.246996e+13
4.020598e+13
3.979706e+13
3.980209e+13
4.020504e+13
3.246781e+13
2.90037e+13
2.776496e+13
3.054202e+13
3.054396e+13
2.77632e+13
2.323332e+13
2.640779e+13
2.748318e+13
2.822107e+13
2.868214e+13
2.868151e+13
2.821923e+13
2.74794e+13
2.640264e+13
2.322979e+13
2.370032e+13
2.761487e+13
3.517128e+13
3.631933e+13
3.762945e+13
3.907209e+13
4.021341e+13
4.021248e+13
3.907103e+13
3.762066e+13
3.63005e+13
3.514479e+13
2.759033e+13
2.367898e+13
2.426135e+13
3.459638e+13
3.654019e+13
3.934923e+13
4.201455e+13
4.42323e+13
4.709602e+13
4.945748e+13
4.945506e+13
4.709035e+13
4.4213e+13
4.198623e+13
3.932212e+13
3.651156e+13
3.4573e+13
2.424726e+13
2.450386e+13
3.5248e+13
3.841526e+13
4.187324e+13
4.545705e+13
5.055886e+13
5.68765e+13
6.315509e+13
6.540627e+13
6.540081e+13
6.31346e+13
5.685054e+13
5.053379e+13
4.543407e+13
4.184875e+13
3.839083e+13
3.521996e+13
2.44909e+13
2.426488e+13
3.524631e+13
3.880574e+13
4.285592e+13
4.958521e+13
5.769736e+13
6.642456e+13
7.284398e+13
7.762187e+13
8.537872e+13
8.537063e+13
7.760456e+13
7.281772e+13
6.639123e+13
5.76692e+13
4.955595e+13
4.283344e+13
3.878052e+13
3.522082e+13
2.425119e+13
2.371162e+13
3.461381e+13
3.842087e+13
4.285964e+13
5.20685e+13
6.436245e+13
7.280721e+13
7.975469e+13
9.093083e+13
9.59361e+13
9.88878e+13
9.888059e+13
9.591545e+13
9.090127e+13
7.972322e+13
7.277366e+13
6.432709e+13
5.203855e+13
4.283228e+13
3.839707e+13
3.459087e+13
2.369768e+13
2.762245e+13
3.654924e+13
4.187964e+13
4.958936e+13
6.43641e+13
7.616507e+13
8.958423e+13
9.701538e+13
1.028212e+14
1.064065e+14
1.082312e+14
1.082258e+14
1.063898e+14
1.027984e+14
9.698795e+13
8.95527e+13
7.613543e+13
6.433931e+13
4.956696e+13
4.186426e+13
3.653627e+13
2.761035e+13
2.325931e+13
3.519068e+13
3.935888e+13
4.546764e+13
5.770349e+13
7.282185e+13
8.959148e+13
9.967687e+13
1.061858e+14
1.106883e+14
1.135481e+14
1.14959e+14
1.149557e+14
1.135368e+14
1.106725e+14
1.061665e+14
9.965446e+13
8.95697e+13
7.280532e+13
5.769282e+13
4.545816e+13
3.93456e+13
3.516721e+13
2.323738e+13
2.643823e+13
3.63535e+13
4.203135e+13
5.057995e+13
6.645166e+13
7.978035e+13
9.703349e+13
1.061957e+14
1.121035e+14
1.1609e+14
1.186101e+14
1.198387e+14
1.19837e+14
1.186033e+14
1.160773e+14
1.120841e+14
1.06171e+14
9.700603e+13
7.975494e+13
6.642892e+13
5.055526e+13
4.201264e+13
3.632379e+13
2.641109e+13
2.751593e+13
3.767298e+13
4.425889e+13
5.689763e+13
7.28828e+13
9.096652e+13
1.028534e+14
1.107156e+14
1.161099e+14
1.198096e+14
1.221543e+14
1.232996e+14
1.232977e+14
1.221476e+14
1.197943e+14
1.160872e+14
1.106903e+14
1.028266e+14
9.093714e+13
7.284626e+13
5.688284e+13
4.424323e+13
3.764068e+13
2.748861e+13
2.825449e+13
3.912242e+13
4.714477e+13
6.320526e+13
7.767431e+13
9.598693e+13
1.064549e+14
1.135975e+14
1.186587e+14
1.221874e+14
1.244221e+14
1.255111e+14
1.255014e+14
1.243978e+14
1.221522e+14
1.186217e+14
1.135686e+14
1.064336e+14
9.596646e+13
7.764943e+13
6.318678e+13
4.711963e+13
3.909298e+13
2.82328e+13
2.871349e+13
4.026006e+13
4.95079e+13
6.547015e+13
8.544759e+13
9.895348e+13
1.082951e+14
1.150223e+14
1.199006e+14
1.233538e+14
1.255436e+14
1.26615e+14
1.265954e+14
1.255051e+14
1.23307e+14
1.198578e+14
1.14991e+14
1.082756e+14
9.894014e+13
8.543259e+13
6.545464e+13
4.949161e+13
4.024104e+13
2.869776e+13
2.870935e+13
4.02534e+13
4.950208e+13
6.54693e+13
8.545556e+13
9.896439e+13
1.083052e+14
1.150305e+14
1.199068e+14
1.233589e+14
1.25551e+14
1.266286e+14
1.266096e+14
1.255151e+14
1.233141e+14
1.198633e+14
1.149972e+14
1.082843e+14
9.895224e+13
8.544536e+13
6.545749e+13
4.949018e+13
4.02399e+13
2.869721e+13
2.824459e+13
3.911471e+13
4.715092e+13
6.322225e+13
7.769058e+13
9.601452e+13
1.064847e+14
1.136232e+14
1.186786e+14
1.222076e+14
1.244477e+14
1.255433e+14
1.255316e+14
1.244228e+14
1.221743e+14
1.186436e+14
1.135942e+14
1.064653e+14
9.600425e+13
7.768633e+13
6.321241e+13
4.714096e+13
3.910621e+13
2.823579e+13
2.750917e+13
3.767368e+13
4.427957e+13
5.692775e+13
7.290989e+13
9.100725e+13
1.029e+14
1.107624e+14
1.161529e+14
1.198514e+14
1.221984e+14
1.233473e+14
1.233419e+14
1.221899e+14
1.19838e+14
1.161367e+14
1.107474e+14
1.028897e+14
9.100239e+13
7.29094e+13
5.691502e+13
4.426604e+13
3.766873e+13
2.750301e+13
2.64367e+13
3.636174e+13
4.20573e+13
5.06042e+13
6.649335e+13
7.982921e+13
9.709065e+13
1.062534e+14
1.121586e+14
1.161451e+14
1.186682e+14
1.199024e+14
1.199036e+14
1.18677e+14
1.161566e+14
1.121696e+14
1.062622e+14
9.709595e+13
7.982665e+13
6.648591e+13
5.060107e+13
4.204574e+13
3.635754e+13
2.643118e+13
2.326044e+13
3.520531e+13
3.938592e+13
4.549348e+13
5.774743e+13
7.287157e+13
8.964954e+13
9.973789e+13
1.062507e+14
1.107595e+14
1.136291e+14
1.150472e+14
1.150525e+14
1.136469e+14
1.107866e+14
1.062816e+14
9.976756e+13
8.967111e+13
7.287536e+13
5.774336e+13
4.549315e+13
3.937633e+13
3.519993e+13
2.325633e+13
2.764293e+13
3.657273e+13
4.190369e+13
4.96233e+13
6.441496e+13
7.622332e+13
8.96564e+13
9.710021e+13
1.029181e+14
1.065179e+14
1.083483e+14
1.083541e+14
1.065348e+14
1.02944e+14
9.713054e+13
8.96877e+13
7.624675e+13
6.442239e+13
4.962431e+13
4.190758e+13
3.656525e+13
2.762811e+13
2.372988e+13
3.463207e+13
3.844633e+13
4.289264e+13
5.211513e+13
6.442807e+13
7.289338e+13
7.985759e+13
9.105039e+13
9.607406e+13
9.90345e+13
9.904041e+13
9.608474e+13
9.106399e+13
7.986764e+13
7.290569e+13
6.443847e+13
5.211776e+13
4.289135e+13
3.844811e+13
3.462672e+13
2.371047e+13
2.428742e+13
3.528565e+13
3.884701e+13
4.289756e+13
4.963596e+13
5.776896e+13
6.652992e+13
7.296338e+13
7.775523e+13
8.552855e+13
8.553421e+13
7.776051e+13
7.296309e+13
6.652308e+13
5.776996e+13
4.963688e+13
4.28953e+13
3.884237e+13
3.528133e+13
2.427642e+13
2.4531e+13
3.528618e+13
3.845752e+13
4.192564e+13
4.551841e+13
5.06243e+13
5.696212e+13
6.327677e+13
6.553526e+13
6.553636e+13
6.326992e+13
5.695711e+13
5.062561e+13
4.551138e+13
4.1917e+13
3.845107e+13
3.528158e+13
2.452483e+13
2.428229e+13
3.464381e+13
3.658819e+13
3.940027e+13
4.207158e+13
4.430635e+13
4.718762e+13
4.955315e+13
4.955198e+13
4.71824e+13
4.429504e+13
4.206767e+13
3.940012e+13
3.658455e+13
3.463759e+13
2.427775e+13
2.373297e+13
2.764946e+13
3.522415e+13
3.638542e+13
3.770434e+13
3.915093e+13
4.029456e+13
4.029412e+13
3.914787e+13
3.769667e+13
3.637676e+13
3.522531e+13
2.765016e+13
2.372979e+13
2.32682e+13
2.644886e+13
2.752532e+13
2.826415e+13
2.872857e+13
2.872784e+13
2.82676e+13
2.752847e+13
2.644975e+13
2.326549e+13
1.968676e+13
2.232154e+13
2.298203e+13
2.323581e+13
2.322977e+13
2.296387e+13
2.228923e+13
1.965873e+13
1.966664e+13
2.358756e+13
2.583033e+13
3.253608e+13
3.375314e+13
3.446528e+13
3.478899e+13
3.478226e+13
3.44438e+13
3.371754e+13
3.2509e+13
2.581093e+13
2.356996e+13
1.966039e+13
2.169123e+13
3.155074e+13
3.457069e+13
3.812072e+13
4.200381e+13
4.380728e+13
4.49156e+13
4.543497e+13
4.542812e+13
4.48946e+13
4.37723e+13
4.196064e+13
3.808345e+13
3.453588e+13
3.151865e+13
2.168568e+13
2.032829e+13
2.526587e+13
3.393939e+13
4.034475e+13
4.725768e+13
5.50047e+13
5.894682e+13
6.12439e+13
6.277236e+13
6.356321e+13
6.355351e+13
6.274336e+13
6.119634e+13
5.888377e+13
5.493501e+13
4.719881e+13
4.030219e+13
3.389879e+13
2.524528e+13
2.031057e+13
2.052235e+13
3.094129e+13
3.592509e+13
4.469057e+13
5.602836e+13
6.406413e+13
7.078477e+13
8.139078e+13
8.634406e+13
8.925965e+13
9.07073e+13
9.069501e+13
8.922434e+13
8.6289e+13
8.132304e+13
7.072173e+13
6.39977e+13
5.595816e+13
4.463012e+13
3.588927e+13
3.09032e+13
2.050344e+13
2.033124e+13
3.095045e+13
3.710165e+13
4.650875e+13
6.013613e+13
7.017228e+13
8.382727e+13
9.265921e+13
1.00321e+14
1.060099e+14
1.098656e+14
1.117837e+14
1.117687e+14
1.098242e+14
1.059407e+14
1.00231e+14
9.256043e+13
8.372254e+13
7.007589e+13
6.005051e+13
4.645202e+13
3.704939e+13
3.090688e+13
2.030899e+13
2.528285e+13
3.594286e+13
4.652007e+13
6.110894e+13
7.255278e+13
8.864247e+13
1.004413e+14
1.100575e+14
1.182711e+14
1.249088e+14
1.296392e+14
1.315768e+14
1.315584e+14
1.295847e+14
1.248253e+14
1.1817e+14
1.099477e+14
1.003251e+14
8.85284e+13
7.245131e+13
6.101155e+13
4.645256e+13
3.58949e+13
2.525229e+13
2.172204e+13
3.395815e+13
4.47068e+13
6.016489e+13
7.256061e+13
9.009927e+13
1.040827e+14
1.163598e+14
1.269556e+14
1.359066e+14
1.425864e+14
1.473338e+14
1.500666e+14
1.500472e+14
1.47278e+14
1.42501e+14
1.358016e+14
1.268389e+14
1.162372e+14
1.039647e+14
8.998674e+13
7.246663e+13
6.00778e+13
4.46469e+13
3.391409e+13
2.169113e+13
1.96836e+13
3.157841e+13
4.037534e+13
5.606258e+13
7.02224e+13
8.867968e+13
1.040993e+14
1.186204e+14
1.318366e+14
1.426122e+14
1.51495e+14
1.589028e+14
1.64111e+14
1.669227e+14
1.669057e+14
1.640615e+14
1.588274e+14
1.514021e+14
1.425059e+14
1.317248e+14
1.185105e+14
1.039904e+14
8.857637e+13
7.013229e+13
5.597913e+13
4.032918e+13
3.153707e+13
1.965624e+13
2.361593e+13
3.460903e+13
4.729561e+13
6.4132e+13
8.389133e+13
1.004919e+14
1.163836e+14
1.318441e+14
1.450488e+14
1.567136e+14
1.6615e+14
1.734829e+14
1.784094e+14
1.809217e+14
1.809084e+14
1.783711e+14
1.734267e+14
1.660806e+14
1.566347e+14
1.449668e+14
1.317631e+14
1.163012e+14
1.004097e+14
8.380806e+13
6.404672e+13
4.724867e+13
3.457354e+13
2.358707e+13
2.58602e+13
3.815838e+13
5.504626e+13
7.087781e+13
9.27403e+13
1.101187e+14
1.26988e+14
1.426335e+14
1.567258e+14
1.68829e+14
1.78233e+14
1.851709e+14
1.897389e+14
1.920164e+14
1.920084e+14
1.897151e+14
1.851351e+14
1.781887e+14
1.687798e+14
1.56676e+14
1.425853e+14
1.269363e+14
1.100573e+14
9.266805e+13
7.079798e+13
5.500613e+13
3.812835e+13
2.583382e+13
1.970866e+13
3.258009e+13
4.204095e+13
5.900646e+13
8.150119e+13
1.004234e+14
1.183482e+14
1.359632e+14
1.515388e+14
1.661814e+14
1.782504e+14
1.874254e+14
1.940432e+14
1.983449e+14
2.004682e+14
2.004639e+14
1.983307e+14
1.940184e+14
1.873919e+14
1.782099e+14
1.661362e+14
1.514905e+14
1.359099e+14
1.182833e+14
1.003447e+14
8.141415e+13
5.896011e+13
4.200853e+13
3.25368e+13
1.968371e+13
2.233538e+13
3.37867e+13
4.385763e+13
6.132554e+13
8.647276e+13
1.061373e+14
1.250065e+14
1.426664e+14
1.589697e+14
1.735403e+14
1.852174e+14
1.940749e+14
2.004388e+14
2.045577e+14
2.06585e+14
2.065797e+14
2.04541e+14
2.004099e+14
1.940392e+14
1.851791e+14
1.735013e+14
1.589291e+14
1.426206e+14
1.249543e+14
1.060627e+14
8.638951e+13
6.127184e+13
4.38178e+13
3.375329e+13
2.231349e+13
2.300519e+13
3.450636e+13
4.497646e+13
6.287325e+13
8.940961e+13
1.100243e+14
1.297756e+14
1.474467e+14
1.642071e+14
1.784961e+14
1.898228e+14
1.984265e+14
2.04612e+14
2.086097e+14
2.105678e+14
2.105512e+14
2.085653e+14
2.045507e+14
1.983642e+14
1.897784e+14
1.784682e+14
1.641842e+14
1.474176e+14
1.297328e+14
1.099573e+14
8.933671e+13
6.281986e+13
4.493838e+13
3.447437e+13
2.298011e+13
2.326962e+13
3.484399e+13
4.550856e+13
6.368001e+13
9.08755e+13
1.119656e+14
1.317484e+14
1.50217e+14
1.670537e+14
1.810395e+14
1.921271e+14
2.005753e+14
2.066775e+14
2.106229e+14
2.12551e+14
2.125243e+14
2.105568e+14
2.065945e+14
2.005e+14
1.920764e+14
1.810138e+14
1.670395e+14
1.501986e+14
1.317147e+14
1.11913e+14
9.081549e+13
6.363201e+13
4.547205e+13
3.481064e+13
2.324446e+13
2.327237e+13
3.484686e+13
4.551052e+13
6.368276e+13
9.087743e+13
1.11971e+14
1.317615e+14
1.502362e+14
1.670758e+14
1.810607e+14
1.921445e+14
2.005888e+14
2.0669e+14
2.106377e+14
2.125697e+14
2.125442e+14
2.105744e+14
2.066091e+14
2.005129e+14
1.920903e+14
1.810314e+14
1.670616e+14
1.502217e+14
1.317341e+14
1.119301e+14
9.082999e+13
6.36412e+13
4.547839e+13
3.481656e+13
2.32496e+13
2.301543e+13
3.451864e+13
4.498518e+13
6.288261e+13
8.941649e+13
1.10047e+14
1.298215e+14
1.475025e+14
1.642691e+14
1.785578e+14
1.898768e+14
1.984697e+14
2.046559e+14
2.086598e+14
2.106237e+14
2.106056e+14
2.086138e+14
2.045949e+14
1.984095e+14
1.898313e+14
1.785322e+14
1.642574e+14
1.474921e+14
1.297998e+14
1.100172e+14
8.938041e+13
6.284254e+13
4.495559e+13
3.44912e+13
2.299477e+13
2.235472e+13
3.38068e+13
4.387325e+13
6.134501e+13
8.648656e+13
1.061758e+14
1.250779e+14
1.427523e+14
1.590625e+14
1.736364e+14
1.853119e+14
1.941636e+14
2.005225e+14
2.04642e+14
2.066705e+14
2.066634e+14
2.046247e+14
2.004988e+14
1.941397e+14
1.852946e+14
1.736297e+14
1.590632e+14
1.427509e+14
1.250649e+14
1.061572e+14
8.646061e+13
6.130119e+13
4.384328e+13
3.378118e+13
2.23355e+13
1.97305e+13
3.25967e+13
4.207011e+13
5.904309e+13
8.152145e+13
1.004724e+14
1.184242e+14
1.360637e+14
1.516507e+14
1.662996e+14
1.783675e+14
1.875383e+14
1.941535e+14
1.984576e+14
2.005868e+14
2.005916e+14
1.984733e+14
1.941767e+14
1.875654e+14
1.783955e+14
1.663258e+14
1.51673e+14
1.360802e+14
1.18434e+14
1.004674e+14
8.150816e+13
5.899537e+13
4.204037e+13
3.257834e+13
1.971281e+13
2.587761e+13
3.818817e+13
5.509414e+13
7.089697e+13
9.279459e+13
1.101907e+14
1.270893e+14
1.427505e+14
1.568495e+14
1.689567e+14
1.783668e+14
1.853145e+14
1.89896e+14
1.921869e+14
1.921995e+14
1.899333e+14
1.853714e+14
1.784353e+14
1.690273e+14
1.569122e+14
1.427989e+14
1.271285e+14
1.102188e+14
9.279866e+13
7.089904e+13
5.504691e+13
3.815918e+13
2.58612e+13
2.362517e+13
3.463138e+13
4.73363e+13
6.416552e+13
8.39495e+13
1.005591e+14
1.164757e+14
1.319615e+14
1.451836e+14
1.56868e+14
1.66327e+14
1.736826e+14
1.786326e+14
1.811634e+14
1.811765e+14
1.786705e+14
1.737411e+14
1.663998e+14
1.569482e+14
1.452605e+14
1.320264e+14
1.165294e+14
1.005938e+14
8.395482e+13
6.416891e+13
4.73067e+13
3.461318e+13
2.36179e+13
1.968586e+13
3.16073e+13
4.041408e+13
5.610708e+13
7.027954e+13
8.87515e+13
1.041981e+14
1.18752e+14
1.319987e+14
1.428067e+14
1.517232e+14
1.591597e+14
1.643968e+14
1.672309e+14
1.672407e+14
1.644224e+14
1.591972e+14
1.517701e+14
1.428626e+14
1.320557e+14
1.188039e+14
1.042412e+14
8.877707e+13
7.027383e+13
5.610771e+13
4.038984e+13
3.15862e+13
1.968913e+13
2.172337e+13
3.398565e+13
4.474921e+13
6.021329e+13
7.264172e+13
9.020891e+13
1.042273e+14
1.165383e+14
1.271714e+14
1.361644e+14
1.428774e+14
1.47655e+14
1.504111e+14
1.504172e+14
1.476681e+14
1.42894e+14
1.36186e+14
1.27202e+14
1.165712e+14
1.042588e+14
9.023505e+13
7.26571e+13
6.022053e+13
4.474324e+13
3.397473e+13
2.172003e+13
2.529815e+13
3.597521e+13
4.656715e+13
6.118153e+13
7.264918e+13
8.879287e+13
1.006327e+14
1.102851e+14
1.185309e+14
1.25205e+14
1.299732e+14
1.319343e+14
1.319352e+14
1.299739e+14
1.252077e+14
1.185394e+14
1.102948e+14
1.006449e+14
8.880747e+13
7.266223e+13
6.118674e+13
4.656343e+13
3.596439e+13
2.52895e+13
2.035231e+13
3.098033e+13
3.714211e+13
4.656861e+13
6.023997e+13
7.031569e+13
8.400554e+13
9.287639e+13
1.005739e+14
1.062959e+14
1.101811e+14
1.121157e+14
1.121135e+14
1.101779e+14
1.062892e+14
1.005687e+14
9.287767e+13
8.401547e+13
7.032247e+13
6.024223e+13
4.656775e+13
3.713678e+13
3.097256e+13
2.034419e+13
2.053888e+13
3.098306e+13
3.598445e+13
4.475609e+13
5.612162e+13
6.419328e+13
7.096009e+13
8.160296e+13
8.657841e+13
8.951465e+13
9.097388e+13
9.096995e+13
8.951385e+13
8.657872e+13
8.16017e+13
7.095597e+13
6.420491e+13
5.61351e+13
4.476083e+13
3.598066e+13
3.097782e+13
2.053499e+13
2.035379e+13
2.530876e+13
3.399024e+13
4.041997e+13
4.734356e+13
5.511509e+13
5.906877e+13
6.137514e+13
6.292102e+13
6.375017e+13
6.374111e+13
6.293132e+13
6.139084e+13
5.908301e+13
5.512779e+13
4.735201e+13
4.042058e+13
3.398983e+13
2.530125e+13
2.035136e+13
2.172877e+13
3.1604e+13
3.463894e+13
3.819659e+13
4.20803e+13
4.388552e+13
4.500211e+13
4.554107e+13
4.553135e+13
4.500438e+13
4.388713e+13
4.207992e+13
3.819151e+13
3.463026e+13
3.160925e+13
2.172427e+13
1.968797e+13
2.363112e+13
2.587885e+13
3.260468e+13
3.381024e+13
3.45251e+13
3.487364e+13
3.486932e+13
3.452084e+13
3.380262e+13
3.260085e+13
2.587276e+13
2.362188e+13
1.96923e+13
1.972646e+13
2.235054e+13
2.301259e+13
2.328e+13
2.327729e+13
2.300781e+13
2.234177e+13
1.97098e+13
1.74701e+13
1.968836e+13
2.018393e+13
2.017737e+13
1.96682e+13
1.74541e+13
1.679269e+13
2.087814e+13
2.336129e+13
2.618885e+13
3.252799e+13
3.390366e+13
3.443223e+13
3.441722e+13
3.38638e+13
3.247796e+13
2.616923e+13
2.334618e+13
2.085955e+13
1.678462e+13
1.692972e+13
2.191727e+13
3.043722e+13
3.561046e+13
4.015522e+13
4.667396e+13
5.028108e+13
5.17796e+13
5.250885e+13
5.24881e+13
5.172447e+13
5.021812e+13
4.662728e+13
4.010642e+13
3.555133e+13
3.039564e+13
2.189995e+13
1.692592e+13
1.894085e+13
2.940726e+13
3.680147e+13
4.724259e+13
5.332447e+13
5.935175e+13
6.47546e+13
7.373706e+13
7.719697e+13
7.857532e+13
7.855317e+13
7.713506e+13
7.365038e+13
6.466413e+13
5.924901e+13
5.322488e+13
4.713358e+13
3.67523e+13
2.936619e+13
1.893526e+13
2.029643e+13
3.266912e+13
4.248284e+13
5.432578e+13
6.372162e+13
7.66559e+13
8.504995e+13
9.149749e+13
9.689094e+13
1.002019e+14
1.017257e+14
1.017026e+14
1.001352e+14
9.678898e+13
9.137482e+13
8.491996e+13
7.653043e+13
6.360986e+13
5.421484e+13
4.242049e+13
3.262008e+13
2.028058e+13
2.105172e+13
3.533234e+13
4.893419e+13
5.941357e+13
6.976819e+13
8.670132e+13
9.885168e+13
1.084487e+14
1.152636e+14
1.204338e+14
1.237849e+14
1.254049e+14
1.253802e+14
1.237128e+14
1.203201e+14
1.151187e+14
1.082849e+14
9.868871e+13
8.65589e+13
6.965366e+13
5.929992e+13
4.884282e+13
3.527599e+13
2.102689e+13
2.030535e+13
3.533996e+13
5.111546e+13
6.327395e+13
8.044778e+13
9.465856e+13
1.088802e+14
1.207543e+14
1.306249e+14
1.389486e+14
1.450647e+14
1.489641e+14
1.508532e+14
1.508262e+14
1.488858e+14
1.449427e+14
1.387948e+14
1.304516e+14
1.205716e+14
1.087009e+14
9.448988e+13
8.030053e+13
6.315726e+13
5.100603e+13
3.528478e+13
2.028101e+13
1.895658e+13
3.268083e+13
4.896102e+13
6.328305e+13
8.255024e+13
9.944293e+13
1.151429e+14
1.290359e+14
1.420471e+14
1.530943e+14
1.621732e+14
1.688904e+14
1.732405e+14
1.753544e+14
1.753243e+14
1.731538e+14
1.687537e+14
1.619991e+14
1.52897e+14
1.418372e+14
1.288245e+14
1.149395e+14
9.926071e+13
8.239577e+13
6.317051e+13
4.887363e+13
3.263649e+13
1.893241e+13
1.694585e+13
2.942399e+13
4.252348e+13
5.944424e+13
8.048327e+13
9.9469e+13
1.17312e+14
1.331877e+14
1.485789e+14
1.625741e+14
1.743902e+14
1.839898e+14
1.912339e+14
1.959733e+14
1.982127e+14
1.981787e+14
1.958752e+14
1.910824e+14
1.83801e+14
1.74178e+14
1.623484e+14
1.483483e+14
1.329599e+14
1.170934e+14
9.92783e+13
8.032976e+13
5.933703e+13
4.246169e+13
2.938217e+13
1.692224e+13
2.194103e+13
3.68467e+13
5.435541e+13
6.984386e+13
9.472634e+13
1.152045e+14
1.332229e+14
1.507109e+14
1.670985e+14
1.817017e+14
1.941266e+14
2.041816e+14
2.117941e+14
2.169104e+14
2.195079e+14
2.194733e+14
2.168102e+14
2.116405e+14
2.039913e+14
1.939128e+14
1.81475e+14
1.668667e+14
1.504782e+14
1.329956e+14
1.149909e+14
9.454517e+13
6.971224e+13
5.426841e+13
3.679348e+13
2.191596e+13
1.681869e+13
3.046403e+13
4.727114e+13
6.378976e+13
8.681167e+13
1.089894e+14
1.291396e+14
1.486528e+14
1.671317e+14
1.840902e+14
1.991495e+14
2.120001e+14
2.225066e+14
2.306885e+14
2.363003e+14
2.391768e+14
2.391464e+14
2.362122e+14
2.305537e+14
2.223399e+14
2.118123e+14
1.989497e+14
1.838832e+14
1.669178e+14
1.484347e+14
1.289248e+14
1.087923e+14
8.665123e+13
6.366168e+13
4.720547e+13
3.042363e+13
1.680813e+13
2.089305e+13
3.564139e+13
5.337418e+13
7.677344e+13
9.899168e+13
1.209074e+14
1.421885e+14
1.62677e+14
1.817559e+14
1.991684e+14
2.146076e+14
2.28063e+14
2.391567e+14
2.477219e+14
2.535312e+14
2.564697e+14
2.564461e+14
2.534641e+14
2.476221e+14
2.390347e+14
2.279266e+14
2.144628e+14
1.990171e+14
1.815944e+14
1.625021e+14
1.419992e+14
1.207185e+14
9.88293e+13
7.662899e+13
5.328519e+13
3.559204e+13
2.087368e+13
2.33933e+13
4.0212e+13
5.944543e+13
8.520729e+13
1.086202e+14
1.308209e+14
1.532718e+14
1.745157e+14
1.941981e+14
2.120371e+14
2.28081e+14
2.420846e+14
2.535161e+14
2.621881e+14
2.680011e+14
2.70915e+14
2.709012e+14
2.679611e+14
2.621274e+14
2.534421e+14
2.420045e+14
2.279984e+14
2.119509e+14
1.940976e+14
1.743882e+14
1.531082e+14
1.306419e+14
1.084587e+14
8.505259e+13
5.933065e+13
4.013476e+13
2.33517e+13
2.623561e+13
4.678047e+13
6.490121e+13
9.168918e+13
1.154761e+14
1.391842e+14
1.623891e+14
1.841462e+14
2.042812e+14
2.22571e+14
2.392001e+14
2.535394e+14
2.650941e+14
2.737453e+14
2.794908e+14
2.823547e+14
2.823476e+14
2.794689e+14
2.737095e+14
2.650483e+14
2.534864e+14
2.391411e+14
2.22504e+14
2.041977e+14
1.840294e+14
1.622283e+14
1.390035e+14
1.153057e+14
9.152239e+13
6.475703e+13
4.665112e+13
2.617303e+13
1.750522e+13
3.258198e+13
5.040429e+13
7.391726e+13
9.711187e+13
1.206853e+14
1.453398e+14
1.691491e+14
1.914333e+14
2.119331e+14
2.307891e+14
2.478017e+14
2.62249e+14
2.73785e+14
2.823612e+14
2.880234e+14
2.908348e+14
2.908261e+14
2.879977e+14
2.82321e+14
2.737405e+14
2.622043e+14
2.477578e+14
2.307423e+14
2.118706e+14
1.913346e+14
1.690029e+14
1.451708e+14
1.205168e+14
9.694112e+13
7.375181e+13
5.026416e+13
3.249886e+13
1.745956e+13
1.971279e+13
3.396763e+13
5.190487e+13
7.739166e+13
1.004455e+14
1.240707e+14
1.492791e+14
1.735474e+14
1.962295e+14
2.171039e+14
2.364481e+14
2.536543e+14
2.68113e+14
2.795984e+14
2.880952e+14
2.936854e+14
2.964471e+14
2.96424e+14
2.93623e+14
2.880106e+14
2.795161e+14
2.680607e+14
2.536278e+14
2.364281e+14
2.170671e+14
1.96153e+14
1.734252e+14
1.491344e+14
1.239209e+14
1.002922e+14
7.723916e+13
5.177739e+13
3.388543e+13
1.967777e+13
2.021985e+13
3.451017e+13
5.264118e+13
7.87882e+13
1.019948e+14
1.25722e+14
1.512053e+14
1.757078e+14
1.985291e+14
2.197665e+14
2.393833e+14
2.566419e+14
2.710672e+14
2.824997e+14
2.90961e+14
2.965232e+14
2.992626e+14
2.992271e+14
2.964308e+14
2.908446e+14
2.823973e+14
2.710043e+14
2.566172e+14
2.393738e+14
2.197431e+14
1.984697e+14
1.756106e+14
1.510884e+14
1.255989e+14
1.018681e+14
7.866328e+13
5.254319e+13
3.444285e+13
2.018753e+13
2.022145e+13
3.451611e+13
5.265445e+13
7.879586e+13
1.020008e+14
1.257265e+14
1.512105e+14
1.757194e+14
1.985526e+14
2.197994e+14
2.394189e+14
2.566752e+14
2.710946e+14
2.825211e+14
2.909812e+14
2.96546e+14
2.992891e+14
2.992548e+14
2.964565e+14
2.90867e+14
2.824178e+14
2.710266e+14
2.566445e+14
2.394069e+14
2.197796e+14
1.985059e+14
1.75645e+14
1.511204e+14
1.256298e+14
1.019011e+14
7.869579e+13
5.257012e+13
3.446007e+13
2.019569e+13
1.972618e+13
3.39803e+13
5.191821e+13
7.740543e+13
1.00461e+14
1.240841e+14
1.492942e+14
1.73582e+14
1.962986e+14
2.171975e+14
2.365493e+14
2.537517e+14
2.681988e+14
2.796691e+14
2.881668e+14
2.937634e+14
2.965293e+14
2.96504e+14
2.936963e+14
2.880791e+14
2.795872e+14
2.68143e+14
2.537259e+14
2.365398e+14
2.171841e+14
1.962663e+14
1.735306e+14
1.492285e+14
1.240084e+14
1.003845e+14
7.732876e+13
5.185197e+13
3.393558e+13
1.97032e+13
1.752394e+13
3.258001e+13
5.040403e+13
7.393062e+13
9.713286e+13
1.207091e+14
1.453652e+14
1.69203e+14
1.915373e+14
2.120722e+14
2.309405e+14
2.479545e+14
2.623993e+14
2.739276e+14
2.824943e+14
2.881533e+14
2.90963e+14
2.909526e+14
2.881261e+14
2.824589e+14
2.738965e+14
2.62383e+14
2.479563e+14
2.309513e+14
2.120779e+14
1.915276e+14
1.691772e+14
1.453225e+14
1.206495e+14
9.707589e+13
7.3876e+13
5.036147e+13
3.255264e+13
1.750681e+13
2.624428e+13
4.676754e+13
6.491807e+13
9.171709e+13
1.155143e+14
1.392212e+14
1.624578e+14
1.842678e+14
2.044432e+14
2.227527e+14
2.393901e+14
2.537275e+14
2.652757e+14
2.739213e+14
2.796674e+14
2.825385e+14
2.825458e+14
2.796889e+14
2.73955e+14
2.653192e+14
2.537775e+14
2.394419e+14
2.228019e+14
2.044828e+14
1.842912e+14
1.624599e+14
1.392024e+14
1.154689e+14
9.167794e+13
6.488232e+13
4.674981e+13
2.622356e+13
2.340201e+13
4.022817e+13
5.947117e+13
8.523536e+13
1.086703e+14
1.308693e+14
1.533515e+14
1.746409e+14
1.943637e+14
2.122288e+14
2.282854e+14
2.422959e+14
2.537355e+14
2.624205e+14
2.682523e+14
2.711906e+14
2.712097e+14
2.683077e+14
2.625058e+14
2.538412e+14
2.424095e+14
2.283933e+14
2.123221e+14
1.944401e+14
1.746946e+14
1.533766e+14
1.308724e+14
1.086393e+14
8.521394e+13
5.944249e+13
4.020236e+13
2.338053e+13
2.091681e+13
3.567523e+13
5.341881e+13
7.680362e+13
9.904355e+13
1.209713e+14
1.422791e+14
1.628014e+14
1.819196e+14
1.993686e+14
2.148382e+14
2.283231e+14
2.394483e+14
2.480476e+14
2.538937e+14
2.568698e+14
2.568893e+14
2.539503e+14
2.481361e+14
2.395613e+14
2.284497e+14
2.149649e+14
1.994841e+14
1.820166e+14
1.628703e+14
1.423155e+14
1.209878e+14
9.903281e+13
7.67983e+13
5.338456e+13
3.564347e+13
2.089173e+13
1.683867e+13
3.049054e+13
4.733167e+13
6.381901e+13
8.68547e+13
1.090637e+14
1.292444e+14
1.487937e+14
1.673185e+14
1.84326e+14
1.994323e+14
2.123292e+14
2.228828e+14
2.311113e+14
2.367699e+14
2.396902e+14
2.397032e+14
2.368071e+14
2.311696e+14
2.229594e+14
2.124192e+14
1.995261e+14
1.844154e+14
1.673951e+14
1.488484e+14
1.292748e+14
1.090859e+14
8.686135e+13
6.382612e+13
4.728247e+13
3.047214e+13
1.682051e+13
2.195742e+13
3.686804e+13
5.44071e+13
6.986793e+13
9.480361e+13
1.153145e+14
1.333773e+14
1.509188e+14
1.673655e+14
1.820273e+14
1.945094e+14
2.046222e+14
2.122893e+14
2.174566e+14
2.200986e+14
2.201041e+14
2.174719e+14
2.123143e+14
2.046591e+14
1.945585e+14
1.820827e+14
1.674217e+14
1.509689e+14
1.33416e+14
1.153427e+14
9.482317e+13
6.988762e+13
5.439647e+13
3.685471e+13
2.194462e+13
1.695191e+13
2.945015e+13
4.255726e+13
5.951432e+13
8.057214e+13
9.958405e+13
1.17473e+14
1.334068e+14
1.488653e+14
1.629275e+14
1.74807e+14
1.844666e+14
1.917674e+14
1.965582e+14
1.988378e+14
1.988363e+14
1.965547e+14
1.917653e+14
1.844715e+14
1.748209e+14
1.629492e+14
1.488903e+14
1.334303e+14
1.174904e+14
9.959244e+13
8.056949e+13
5.950141e+13
4.254363e+13
2.944156e+13
1.69537e+13
1.896413e+13
3.27193e+13
4.902163e+13
6.335186e+13
8.265201e+13
9.959835e+13
1.153618e+14
1.293227e+14
1.423978e+14
1.535111e+14
1.626507e+14
1.694204e+14
1.738147e+14
1.7596e+14
1.75954e+14
1.738003e+14
1.69401e+14
1.626328e+14
1.535011e+14
1.42397e+14
1.293219e+14
1.153608e+14
9.960065e+13
8.265392e+13
6.335372e+13
4.899784e+13
3.270596e+13
1.896515e+13
2.031778e+13
3.537259e+13
5.119275e+13
6.335113e+13
8.059275e+13
9.485259e+13
1.091355e+14
1.210689e+14
1.31004e+14
1.393825e+14
1.45543e+14
1.494797e+14
1.513949e+14
1.513865e+14
1.494629e+14
1.455211e+14
1.393587e+14
1.309832e+14
1.210559e+14
1.091191e+14
9.483536e+13
8.058515e+13
6.334887e+13
5.118356e+13
3.536605e+13
2.031372e+13
2.106562e+13
3.537396e+13
4.90362e+13
5.953761e+13
6.992922e+13
8.692239e+13
9.91201e+13
1.08765e+14
1.156262e+14
1.208334e+14
1.242176e+14
1.258678e+14
1.258562e+14
1.242014e+14
1.208126e+14
1.156033e+14
1.087463e+14
9.910055e+13
8.689498e+13
6.989475e+13
5.952615e+13
4.903014e+13
3.537116e+13
2.106324e+13
2.031285e+13
3.271413e+13
4.258233e+13
5.443833e+13
6.385288e+13
7.685631e+13
8.530356e+13
9.179787e+13
9.722298e+13
1.005568e+14
1.020951e+14
1.020817e+14
1.005336e+14
9.719166e+13
9.17646e+13