/*--------------------------------*- C++ -*----------------------------------*\
  =========                 |
  \\      /  F ield         | OpenFOAM: The Open Source CFD Toolbox
   \\    /   O peration     | Website:  https://openfoam.org
    \\  /    A nd           | Version:  6
     \\/     M anipulation  |
\*---------------------------------------------------------------------------*/
FoamFile
{
    version     2.0;
    format      ascii;
    class       volScalarField;
    location    "49.8/region0/neutronTransport";
    object      precursor3.dnp;
}
// * * * * * * * * * * * * * * * * * * * * * * * * * * * * * * * * * * * * * //

dimensions      [0 -3 0 0 0 0 0];

internalField   nonuniform List<scalar> 
203709
(
2.510092e+14
2.761531e+14
2.76114e+14
2.510533e+14
2.623474e+14
2.936746e+14
3.635484e+14
3.597177e+14
3.596666e+14
3.635073e+14
2.936116e+14
2.623271e+14
2.563394e+14
2.947342e+14
3.682953e+14
3.672405e+14
3.776813e+14
3.802802e+14
3.802591e+14
3.776394e+14
3.671684e+14
3.68238e+14
2.946724e+14
2.562903e+14
2.56378e+14
3.580238e+14
3.656541e+14
3.799906e+14
3.874367e+14
3.939868e+14
3.968816e+14
3.968841e+14
3.93945e+14
3.873671e+14
3.799316e+14
3.655921e+14
3.579777e+14
2.563397e+14
2.947681e+14
3.656662e+14
3.821765e+14
3.938899e+14
4.027582e+14
4.091644e+14
4.123482e+14
4.123501e+14
4.091192e+14
4.026963e+14
3.938318e+14
3.82105e+14
3.65592e+14
2.947007e+14
2.624207e+14
3.683481e+14
3.800323e+14
3.939067e+14
4.05974e+14
4.154942e+14
4.220961e+14
4.25368e+14
4.253632e+14
4.220726e+14
4.154571e+14
4.058993e+14
3.938155e+14
3.799415e+14
3.682599e+14
2.623389e+14
2.937316e+14
3.672927e+14
3.874929e+14
4.028003e+14
4.155362e+14
4.254225e+14
4.319994e+14
4.351056e+14
4.351027e+14
4.319963e+14
4.25378e+14
4.154545e+14
4.027259e+14
3.874204e+14
3.672126e+14
2.936699e+14
2.511943e+14
3.636877e+14
3.778013e+14
3.940989e+14
4.092851e+14
4.222088e+14
4.320857e+14
4.381987e+14
4.412115e+14
4.411912e+14
4.381485e+14
4.31986e+14
4.221074e+14
4.09199e+14
3.940256e+14
3.777364e+14
3.636518e+14
2.510704e+14
2.762831e+14
3.59846e+14
3.804065e+14
3.97037e+14
4.125004e+14
4.255013e+14
4.352389e+14
4.412961e+14
4.445765e+14
4.44453e+14
4.412028e+14
4.351369e+14
4.254146e+14
4.124158e+14
3.969614e+14
3.803649e+14
3.597916e+14
2.761965e+14
2.763312e+14
3.599408e+14
3.804592e+14
3.970492e+14
4.125096e+14
4.255151e+14
4.352385e+14
4.413066e+14
4.446707e+14
4.445459e+14
4.412309e+14
4.351479e+14
4.254123e+14
4.124291e+14
3.969805e+14
3.803907e+14
3.598612e+14
2.762663e+14
2.511762e+14
3.63819e+14
3.778937e+14
3.941708e+14
4.093388e+14
4.222465e+14
4.321216e+14
4.38263e+14
4.413105e+14
4.412635e+14
4.382065e+14
4.320492e+14
4.221524e+14
4.09246e+14
3.940806e+14
3.778027e+14
3.636924e+14
2.511376e+14
2.938113e+14
3.674145e+14
3.876234e+14
4.029315e+14
4.156383e+14
4.255224e+14
4.321069e+14
4.352436e+14
4.352008e+14
4.320893e+14
4.254712e+14
4.155642e+14
4.028311e+14
3.875126e+14
3.673241e+14
2.937579e+14
2.625152e+14
3.685027e+14
3.801701e+14
3.940498e+14
4.061005e+14
4.1563e+14
4.222184e+14
4.255367e+14
4.255143e+14
4.222354e+14
4.156182e+14
4.060765e+14
3.940024e+14
3.801094e+14
3.684304e+14
2.624451e+14
2.948928e+14
3.658066e+14
3.823288e+14
3.940537e+14
4.029307e+14
4.093656e+14
4.127445e+14
4.127339e+14
4.093611e+14
4.029288e+14
3.940455e+14
3.82317e+14
3.658093e+14
2.948643e+14
2.565167e+14
3.582328e+14
3.658424e+14
3.802068e+14
3.876513e+14
3.942343e+14
3.973055e+14
3.973035e+14
3.94228e+14
3.876452e+14
3.801831e+14
3.658109e+14
3.582068e+14
2.564346e+14
2.565534e+14
2.949511e+14
3.685768e+14
3.67479e+14
3.779884e+14
3.806946e+14
3.807197e+14
3.779795e+14
3.674858e+14
3.685367e+14
2.948713e+14
2.564621e+14
2.625895e+14
2.939044e+14
3.639276e+14
3.602262e+14
3.602717e+14
3.639191e+14
2.938849e+14
2.625293e+14
2.513167e+14
2.764535e+14
2.764711e+14
2.513008e+14
2.102982e+14
2.390322e+14
2.487662e+14
2.554452e+14
2.596187e+14
2.59613e+14
2.554286e+14
2.487319e+14
2.389856e+14
2.102663e+14
2.145253e+14
2.499582e+14
3.183556e+14
3.287473e+14
3.406059e+14
3.536641e+14
3.639949e+14
3.639864e+14
3.536545e+14
3.405264e+14
3.285769e+14
3.181158e+14
2.497361e+14
2.143321e+14
2.196035e+14
3.131518e+14
3.307464e+14
3.561727e+14
3.80298e+14
4.003721e+14
4.262933e+14
4.476683e+14
4.476464e+14
4.26242e+14
4.001974e+14
3.800417e+14
3.559272e+14
3.304872e+14
3.129402e+14
2.19476e+14
2.217986e+14
3.1905e+14
3.477187e+14
3.790189e+14
4.114581e+14
4.576375e+14
5.148221e+14
5.716532e+14
5.9203e+14
5.919806e+14
5.714678e+14
5.145871e+14
4.574105e+14
4.1125e+14
3.787972e+14
3.474976e+14
3.187963e+14
2.216813e+14
2.196354e+14
3.190347e+14
3.512532e+14
3.879137e+14
4.488244e+14
5.222521e+14
6.012471e+14
6.59353e+14
7.026004e+14
7.728122e+14
7.727389e+14
7.024438e+14
6.591153e+14
6.009454e+14
5.219973e+14
4.485595e+14
3.877102e+14
3.510249e+14
3.18804e+14
2.195115e+14
2.146276e+14
3.133097e+14
3.477696e+14
3.879474e+14
4.713021e+14
5.825818e+14
6.590202e+14
7.219059e+14
8.230675e+14
8.683731e+14
8.950907e+14
8.950254e+14
8.681862e+14
8.227999e+14
7.21621e+14
6.587164e+14
5.822617e+14
4.71031e+14
3.876998e+14
3.475541e+14
3.13102e+14
2.145014e+14
2.500268e+14
3.308283e+14
3.790768e+14
4.48862e+14
5.825967e+14
6.894141e+14
8.108787e+14
8.781424e+14
9.306941e+14
9.631468e+14
9.796636e+14
9.796146e+14
9.629954e+14
9.304874e+14
8.77894e+14
8.105933e+14
6.891458e+14
5.823723e+14
4.486592e+14
3.789376e+14
3.307109e+14
2.499173e+14
2.105334e+14
3.185312e+14
3.5626e+14
4.115539e+14
5.223077e+14
6.591527e+14
8.109443e+14
9.02233e+14
9.611493e+14
1.001904e+15
1.027789e+15
1.04056e+15
1.04053e+15
1.027687e+15
1.001761e+15
9.609744e+14
9.020302e+14
8.107472e+14
6.590031e+14
5.222111e+14
4.114681e+14
3.561398e+14
3.183188e+14
2.10335e+14
2.393077e+14
3.290565e+14
3.8045e+14
4.578284e+14
6.014924e+14
7.221381e+14
8.783063e+14
9.61239e+14
1.014714e+15
1.050798e+15
1.073609e+15
1.08473e+15
1.084714e+15
1.073547e+15
1.050683e+15
1.014538e+15
9.610154e+14
8.780577e+14
7.219081e+14
6.012866e+14
4.576049e+14
3.802807e+14
3.287876e+14
2.390621e+14
2.490626e+14
3.41e+14
4.006128e+14
5.150134e+14
6.597044e+14
8.233906e+14
9.309858e+14
1.002151e+15
1.050978e+15
1.084466e+15
1.105689e+15
1.116056e+15
1.116038e+15
1.105628e+15
1.084327e+15
1.050772e+15
1.001922e+15
9.307431e+14
8.231247e+14
6.593736e+14
5.148794e+14
4.004711e+14
3.407075e+14
2.488153e+14
2.557477e+14
3.541196e+14
4.267346e+14
5.721074e+14
7.030752e+14
8.688333e+14
9.635848e+14
1.028236e+15
1.074048e+15
1.105989e+15
1.126216e+15
1.136073e+15
1.135986e+15
1.125997e+15
1.10567e+15
1.073713e+15
1.027975e+15
9.633917e+14
8.686479e+14
7.028499e+14
5.719401e+14
4.26507e+14
3.538531e+14
2.555514e+14
2.599024e+14
3.644171e+14
4.481246e+14
5.926082e+14
7.734355e+14
8.956852e+14
9.802412e+14
1.041134e+15
1.08529e+15
1.116546e+15
1.136368e+15
1.146066e+15
1.145888e+15
1.136019e+15
1.116123e+15
1.084902e+15
1.04085e+15
9.800648e+14
8.955644e+14
7.732998e+14
5.924678e+14
4.479772e+14
3.642449e+14
2.5976e+14
2.598649e+14
3.643568e+14
4.48072e+14
5.926005e+14
7.735077e+14
8.957839e+14
9.803333e+14
1.041208e+15
1.085346e+15
1.116592e+15
1.136435e+15
1.146189e+15
1.146016e+15
1.13611e+15
1.116188e+15
1.084952e+15
1.040907e+15
9.801437e+14
8.95674e+14
7.734154e+14
5.924936e+14
4.479642e+14
3.642346e+14
2.597551e+14
2.556581e+14
3.540498e+14
4.267903e+14
5.722612e+14
7.032224e+14
8.690829e+14
9.638548e+14
1.02847e+15
1.074229e+15
1.106172e+15
1.126448e+15
1.136365e+15
1.136259e+15
1.126222e+15
1.10587e+15
1.073912e+15
1.028206e+15
9.636791e+14
8.6899e+14
7.031839e+14
5.72172e+14
4.267001e+14
3.539729e+14
2.555785e+14
2.490014e+14
3.410062e+14
4.008e+14
5.15286e+14
6.599496e+14
8.237593e+14
9.314073e+14
1.002574e+15
1.051367e+15
1.084844e+15
1.106088e+15
1.116487e+15
1.116438e+15
1.106011e+15
1.084723e+15
1.051221e+15
1.002439e+15
9.313146e+14
8.237153e+14
6.599451e+14
5.151708e+14
4.006776e+14
3.409615e+14
2.489456e+14
2.392938e+14
3.291311e+14
3.806849e+14
4.580479e+14
6.018698e+14
7.225803e+14
8.788237e+14
9.617607e+14
1.015213e+15
1.051297e+15
1.074134e+15
1.085306e+15
1.085317e+15
1.074214e+15
1.0514e+15
1.015312e+15
9.618403e+14
8.788716e+14
7.225571e+14
6.018025e+14
4.580195e+14
3.805803e+14
3.290932e+14
2.392439e+14
2.105437e+14
3.186636e+14
3.565048e+14
4.117878e+14
5.227054e+14
6.596027e+14
8.114699e+14
9.027854e+14
9.617362e+14
1.002548e+15
1.028523e+15
1.041359e+15
1.041407e+15
1.028684e+15
1.002793e+15
9.620166e+14
9.030539e+14
8.116651e+14
6.596371e+14
5.226686e+14
4.117848e+14
3.564179e+14
3.186149e+14
2.105065e+14
2.502122e+14
3.310409e+14
3.792946e+14
4.491692e+14
5.830571e+14
6.899413e+14
8.11532e+14
8.789101e+14
9.315713e+14
9.641554e+14
9.80723e+14
9.807758e+14
9.643084e+14
9.318061e+14
8.791847e+14
8.118152e+14
6.901535e+14
5.831243e+14
4.491783e+14
3.793297e+14
3.309732e+14
2.50078e+14
2.147929e+14
3.134749e+14
3.48e+14
3.882461e+14
4.717242e+14
5.831757e+14
6.598002e+14
7.228372e+14
8.241498e+14
8.696219e+14
8.964185e+14
8.964721e+14
8.697186e+14
8.242729e+14
7.229282e+14
6.599116e+14
5.832698e+14
4.71748e+14
3.882344e+14
3.480161e+14
3.134265e+14
2.146172e+14
2.198395e+14
3.193908e+14
3.516268e+14
3.882906e+14
4.492838e+14
5.229003e+14
6.022008e+14
6.604338e+14
7.038076e+14
7.741683e+14
7.742196e+14
7.038553e+14
6.604311e+14
6.021389e+14
5.229093e+14
4.492921e+14
3.882702e+14
3.515847e+14
3.193518e+14
2.1974e+14
2.220443e+14
3.193956e+14
3.481013e+14
3.794932e+14
4.120135e+14
4.582298e+14
5.155971e+14
5.727547e+14
5.931976e+14
5.932075e+14
5.726927e+14
5.155517e+14
4.582417e+14
4.119498e+14
3.794151e+14
3.480429e+14
3.19354e+14
2.219884e+14
2.197931e+14
3.135811e+14
3.311809e+14
3.566346e+14
3.808142e+14
4.010424e+14
4.271224e+14
4.485343e+14
4.485236e+14
4.270752e+14
4.009401e+14
3.807788e+14
3.566333e+14
3.31148e+14
3.135249e+14
2.197519e+14
2.148208e+14
2.502713e+14
3.188342e+14
3.293455e+14
3.412838e+14
3.543777e+14
3.647294e+14
3.647254e+14
3.5435e+14
3.412143e+14
3.292671e+14
3.188447e+14
2.502776e+14
2.147921e+14
2.106139e+14
2.394039e+14
2.491476e+14
2.558352e+14
2.600389e+14
2.600323e+14
2.558664e+14
2.491761e+14
2.39412e+14
2.105894e+14
1.781963e+14
2.020452e+14
2.080236e+14
2.103207e+14
2.10266e+14
2.078592e+14
2.017527e+14
1.779425e+14
1.780142e+14
2.135046e+14
2.338053e+14
2.945029e+14
3.055192e+14
3.119652e+14
3.148952e+14
3.148343e+14
3.117708e+14
3.05197e+14
2.942578e+14
2.336296e+14
2.133454e+14
1.779576e+14
1.963399e+14
2.85584e+14
3.129193e+14
3.450527e+14
3.802007e+14
3.96525e+14
4.06557e+14
4.112582e+14
4.111962e+14
4.06367e+14
3.962084e+14
3.7981e+14
3.447153e+14
3.126043e+14
2.852936e+14
1.962896e+14
1.840031e+14
2.28696e+14
3.07205e+14
3.651836e+14
4.277566e+14
4.978793e+14
5.335618e+14
5.543539e+14
5.681889e+14
5.753474e+14
5.752596e+14
5.679264e+14
5.539234e+14
5.329911e+14
4.972485e+14
4.272237e+14
3.647984e+14
3.068375e+14
2.285097e+14
1.838427e+14
1.857597e+14
2.800675e+14
3.251787e+14
4.045202e+14
5.071451e+14
5.798815e+14
6.407139e+14
7.367151e+14
7.8155e+14
8.079407e+14
8.210442e+14
8.20933e+14
8.076211e+14
7.810516e+14
7.361019e+14
6.401433e+14
5.792802e+14
5.065096e+14
4.03973e+14
3.248545e+14
2.797228e+14
1.855885e+14
1.840299e+14
2.801504e+14
3.358285e+14
4.209776e+14
5.443269e+14
6.351699e+14
7.587691e+14
8.387121e+14
9.080632e+14
9.595572e+14
9.944571e+14
1.011819e+15
1.011683e+15
9.940821e+14
9.589306e+14
9.07249e+14
8.37818e+14
7.578211e+14
6.342974e+14
5.435519e+14
4.204641e+14
3.353554e+14
2.797561e+14
1.838284e+14
2.288497e+14
3.253397e+14
4.210801e+14
5.531323e+14
6.567172e+14
8.023543e+14
9.09152e+14
9.961943e+14
1.07054e+15
1.130622e+15
1.173439e+15
1.190978e+15
1.190811e+15
1.172946e+15
1.129866e+15
1.069625e+15
9.952004e+14
9.08101e+14
8.013217e+14
6.557987e+14
5.522508e+14
4.20469e+14
3.249055e+14
2.285731e+14
1.966187e+14
3.073748e+14
4.046671e+14
5.445872e+14
6.56788e+14
8.155406e+14
9.421126e+14
1.05324e+15
1.149149e+15
1.230169e+15
1.290632e+15
1.333604e+15
1.35834e+15
1.358164e+15
1.333098e+15
1.289859e+15
1.229218e+15
1.148092e+15
1.05213e+15
9.410446e+14
8.145221e+14
6.559374e+14
5.437989e+14
4.041249e+14
3.06976e+14
1.96339e+14
1.781677e+14
2.858344e+14
3.654605e+14
5.074548e+14
6.356235e+14
8.026911e+14
9.422628e+14
1.073702e+15
1.193329e+15
1.290866e+15
1.371269e+15
1.438321e+15
1.485464e+15
1.510914e+15
1.51076e+15
1.485016e+15
1.437638e+15
1.370428e+15
1.289903e+15
1.192318e+15
1.072707e+15
9.412773e+14
8.017559e+14
6.348079e+14
5.066995e+14
3.650427e+14
2.854602e+14
1.7792e+14
2.137614e+14
3.132663e+14
4.280999e+14
5.804958e+14
7.59349e+14
9.0961e+14
1.053455e+15
1.193397e+15
1.31292e+15
1.418505e+15
1.50392e+15
1.570294e+15
1.614887e+15
1.637627e+15
1.637506e+15
1.61454e+15
1.569786e+15
1.503292e+15
1.417791e+15
1.312179e+15
1.192664e+15
1.05271e+15
9.08866e+14
7.585952e+14
5.797239e+14
4.276751e+14
3.129451e+14
2.135002e+14
2.340756e+14
3.453936e+14
4.982556e+14
6.41556e+14
8.394461e+14
9.967479e+14
1.149441e+15
1.291058e+15
1.418616e+15
1.528169e+15
1.61329e+15
1.676089e+15
1.717437e+15
1.738052e+15
1.737979e+15
1.717222e+15
1.675764e+15
1.612889e+15
1.527724e+15
1.418165e+15
1.290622e+15
1.148974e+15
9.961925e+14
8.387921e+14
6.408335e+14
4.978923e+14
3.451218e+14
2.338369e+14
1.783945e+14
2.949013e+14
3.805369e+14
5.341016e+14
7.377144e+14
9.089903e+14
1.071238e+15
1.230682e+15
1.371666e+15
1.504204e+15
1.613448e+15
1.696496e+15
1.756397e+15
1.795334e+15
1.814554e+15
1.814515e+15
1.795206e+15
1.756173e+15
1.696192e+15
1.613081e+15
1.503795e+15
1.371228e+15
1.230199e+15
1.070651e+15
9.082779e+14
7.369266e+14
5.33682e+14
3.802435e+14
2.945094e+14
1.781686e+14
2.021705e+14
3.05823e+14
3.969808e+14
5.55093e+14
7.82715e+14
9.607101e+14
1.131506e+15
1.291356e+15
1.438927e+15
1.570814e+15
1.67651e+15
1.756684e+15
1.814287e+15
1.851571e+15
1.869921e+15
1.869873e+15
1.851419e+15
1.814026e+15
1.756361e+15
1.676163e+15
1.570461e+15
1.438559e+15
1.290942e+15
1.131034e+15
9.600346e+14
7.819614e+14
5.546068e+14
3.966202e+14
3.055206e+14
2.019723e+14
2.082333e+14
3.12337e+14
4.07108e+14
5.691021e+14
8.092981e+14
9.95894e+14
1.174674e+15
1.334625e+15
1.486334e+15
1.615671e+15
1.718196e+15
1.796073e+15
1.852062e+15
1.888247e+15
1.905971e+15
1.905821e+15
1.887845e+15
1.851507e+15
1.795509e+15
1.717794e+15
1.615419e+15
1.486126e+15
1.334362e+15
1.174287e+15
9.952869e+14
8.086382e+14
5.686189e+14
4.067633e+14
3.120474e+14
2.080062e+14
2.106268e+14
3.153931e+14
4.119243e+14
5.764046e+14
8.225667e+14
1.013466e+15
1.192531e+15
1.359701e+15
1.5121e+15
1.638693e+15
1.739054e+15
1.815523e+15
1.870758e+15
1.90647e+15
1.923922e+15
1.92368e+15
1.905871e+15
1.870006e+15
1.814842e+15
1.738594e+15
1.63846e+15
1.511972e+15
1.359535e+15
1.192226e+15
1.01299e+15
8.220236e+14
5.759702e+14
4.115939e+14
3.150912e+14
2.10399e+14
2.106517e+14
3.154191e+14
4.11942e+14
5.764295e+14
8.225842e+14
1.013515e+15
1.19265e+15
1.359875e+15
1.512299e+15
1.638885e+15
1.739211e+15
1.815645e+15
1.870871e+15
1.906604e+15
1.924091e+15
1.92386e+15
1.906031e+15
1.870138e+15
1.814958e+15
1.738721e+15
1.63862e+15
1.512171e+15
1.359743e+15
1.192402e+15
1.013144e+15
8.221548e+14
5.760533e+14
4.116512e+14
3.151448e+14
2.104456e+14
2.08326e+14
3.124482e+14
4.071869e+14
5.691869e+14
8.093604e+14
9.960992e+14
1.17509e+15
1.33513e+15
1.486894e+15
1.61623e+15
1.718685e+15
1.796464e+15
1.852459e+15
1.888701e+15
1.906477e+15
1.906313e+15
1.888285e+15
1.851907e+15
1.79592e+15
1.718273e+15
1.615998e+15
1.486789e+15
1.335036e+15
1.174893e+15
9.958292e+14
8.090338e+14
5.688242e+14
4.06919e+14
3.121998e+14
2.081389e+14
2.023455e+14
3.060049e+14
3.971221e+14
5.552692e+14
7.828398e+14
9.610585e+14
1.132152e+15
1.292134e+15
1.439767e+15
1.571683e+15
1.677365e+15
1.757487e+15
1.815045e+15
1.852333e+15
1.870694e+15
1.87063e+15
1.852176e+15
1.81483e+15
1.757271e+15
1.677209e+15
1.571623e+15
1.439773e+15
1.292121e+15
1.132035e+15
9.608903e+14
7.82605e+14
5.548725e+14
3.968509e+14
3.05773e+14
2.021715e+14
1.785922e+14
2.950516e+14
3.808009e+14
5.344332e+14
7.378978e+14
9.094341e+14
1.071926e+15
1.231591e+15
1.372678e+15
1.505274e+15
1.614508e+15
1.697517e+15
1.757395e+15
1.796355e+15
1.815627e+15
1.815671e+15
1.796497e+15
1.757606e+15
1.697763e+15
1.614761e+15
1.505511e+15
1.37288e+15
1.231741e+15
1.072015e+15
9.09389e+14
7.377775e+14
5.340012e+14
3.805317e+14
2.948854e+14
1.784321e+14
2.342332e+14
3.456632e+14
4.98689e+14
6.417295e+14
8.399375e+14
9.973997e+14
1.150358e+15
1.292117e+15
1.419735e+15
1.529325e+15
1.614501e+15
1.677389e+15
1.718859e+15
1.739595e+15
1.739709e+15
1.719196e+15
1.677904e+15
1.615121e+15
1.529964e+15
1.420303e+15
1.292555e+15
1.150713e+15
9.976543e+14
8.399743e+14
6.417482e+14
4.982615e+14
3.454008e+14
2.340847e+14
2.138451e+14
3.134687e+14
4.284683e+14
5.807992e+14
7.598755e+14
9.102186e+14
1.054289e+15
1.19446e+15
1.314141e+15
1.419903e+15
1.505521e+15
1.572102e+15
1.616907e+15
1.639814e+15
1.639933e+15
1.61725e+15
1.572631e+15
1.506181e+15
1.420629e+15
1.314837e+15
1.195047e+15
1.054775e+15
9.10533e+14
7.599236e+14
5.808299e+14
4.282003e+14
3.133039e+14
2.137793e+14
1.781881e+14
2.860959e+14
3.658112e+14
5.078577e+14
6.361407e+14
8.033412e+14
9.431574e+14
1.074893e+15
1.194797e+15
1.292626e+15
1.373335e+15
1.440646e+15
1.48805e+15
1.513703e+15
1.513792e+15
1.488282e+15
1.440986e+15
1.373759e+15
1.293132e+15
1.195313e+15
1.075362e+15
9.435471e+14
8.035726e+14
6.360891e+14
5.078633e+14
3.655918e+14
2.85905e+14
1.782177e+14
1.966308e+14
3.076238e+14
4.05051e+14
5.450253e+14
6.575222e+14
8.16533e+14
9.434214e+14
1.054856e+15
1.151102e+15
1.232503e+15
1.293266e+15
1.336511e+15
1.361457e+15
1.361513e+15
1.336629e+15
1.293416e+15
1.232699e+15
1.151379e+15
1.055153e+15
9.437063e+14
8.167696e+14
6.576615e+14
5.450908e+14
4.049969e+14
3.075249e+14
1.966006e+14
2.289882e+14
3.256324e+14
4.215062e+14
5.537894e+14
6.575898e+14
8.037156e+14
9.108848e+14
9.98254e+14
1.072891e+15
1.133303e+15
1.176462e+15
1.194214e+15
1.194222e+15
1.176469e+15
1.133327e+15
1.072969e+15
9.983419e+14
9.109956e+14
8.038478e+14
6.577079e+14
5.538365e+14
4.214726e+14
3.255345e+14
2.289099e+14
1.842206e+14
2.804209e+14
3.361947e+14
4.215195e+14
5.452668e+14
6.36468e+14
7.603828e+14
8.406779e+14
9.103527e+14
9.621455e+14
9.973131e+14
1.014824e+15
1.014804e+15
9.972835e+14
9.620852e+14
9.103056e+14
8.406895e+14
7.604726e+14
6.365293e+14
5.452872e+14
4.215116e+14
3.361465e+14
2.803505e+14
1.84147e+14
1.859093e+14
2.804456e+14
3.257161e+14
4.051133e+14
5.079893e+14
5.810505e+14
6.423008e+14
7.386356e+14
7.836712e+14
8.102489e+14
8.234572e+14
8.234216e+14
8.102417e+14
7.836741e+14
7.386241e+14
6.422635e+14
5.811558e+14
5.081113e+14
4.051562e+14
3.256818e+14
2.803981e+14
1.858741e+14
1.842339e+14
2.290842e+14
3.076653e+14
3.658646e+14
4.285339e+14
4.988786e+14
5.346656e+14
5.555419e+14
5.695345e+14
5.770397e+14
5.769577e+14
5.696278e+14
5.55684e+14
5.347945e+14
4.989935e+14
4.286104e+14
3.6587e+14
3.076616e+14
2.290162e+14
1.842119e+14
1.966796e+14
2.860661e+14
3.135371e+14
3.457394e+14
3.808931e+14
3.972332e+14
4.073401e+14
4.122185e+14
4.121306e+14
4.073607e+14
3.972478e+14
3.808897e+14
3.456934e+14
3.134585e+14
2.861136e+14
1.966389e+14
1.782072e+14
2.138989e+14
2.342445e+14
2.951238e+14
3.060361e+14
3.125067e+14
3.156615e+14
3.156224e+14
3.124681e+14
3.05967e+14
2.950891e+14
2.341893e+14
2.138153e+14
1.782464e+14
1.785556e+14
2.023077e+14
2.083003e+14
2.107208e+14
2.106962e+14
2.08257e+14
2.022283e+14
1.784048e+14
1.58132e+14
1.782108e+14
1.826964e+14
1.826371e+14
1.780283e+14
1.579871e+14
1.520003e+14
1.889801e+14
2.114565e+14
2.370505e+14
2.944297e+14
3.068817e+14
3.11666e+14
3.115302e+14
3.065209e+14
2.939768e+14
2.368728e+14
2.113198e+14
1.888119e+14
1.519273e+14
1.532407e+14
1.983859e+14
2.755049e+14
3.223309e+14
3.634681e+14
4.22473e+14
4.551232e+14
4.686871e+14
4.75288e+14
4.751002e+14
4.681881e+14
4.545532e+14
4.220505e+14
3.630264e+14
3.217956e+14
2.751285e+14
1.982291e+14
1.532063e+14
1.714446e+14
2.661821e+14
3.331114e+14
4.276201e+14
4.826706e+14
5.37227e+14
5.861313e+14
6.674368e+14
6.987545e+14
7.112307e+14
7.110302e+14
6.98194e+14
6.666522e+14
5.853124e+14
5.36297e+14
4.817691e+14
4.266333e+14
3.326664e+14
2.658103e+14
1.71394e+14
1.837147e+14
2.957071e+14
3.845368e+14
4.91734e+14
5.767812e+14
6.938569e+14
7.698363e+14
8.281967e+14
8.770159e+14
9.069854e+14
9.207782e+14
9.205692e+14
9.063818e+14
8.76093e+14
8.270863e+14
7.686597e+14
6.927212e+14
5.757696e+14
4.907299e+14
3.839724e+14
2.952632e+14
1.835713e+14
1.905513e+14
3.198135e+14
4.429317e+14
5.377866e+14
6.315122e+14
7.847838e+14
8.947638e+14
9.816318e+14
1.043318e+15
1.090116e+15
1.120449e+15
1.135112e+15
1.134889e+15
1.119796e+15
1.089087e+15
1.042006e+15
9.80149e+14
8.932886e+14
7.834946e+14
6.304755e+14
5.367578e+14
4.421046e+14
3.193034e+14
1.903265e+14
1.837954e+14
3.198824e+14
4.626756e+14
5.727291e+14
7.281793e+14
8.568094e+14
9.855379e+14
1.093017e+15
1.182362e+15
1.257704e+15
1.313065e+15
1.34836e+15
1.365459e+15
1.365215e+15
1.347651e+15
1.31196e+15
1.256312e+15
1.180793e+15
1.091364e+15
9.839148e+14
8.552825e+14
7.268465e+14
5.716729e+14
4.616851e+14
3.193829e+14
1.835751e+14
1.71587e+14
2.958131e+14
4.431745e+14
5.728115e+14
7.472099e+14
9.001155e+14
1.042225e+15
1.167979e+15
1.285751e+15
1.385745e+15
1.467923e+15
1.528724e+15
1.5681e+15
1.587234e+15
1.586962e+15
1.567315e+15
1.527488e+15
1.466347e+15
1.383959e+15
1.283851e+15
1.166065e+15
1.040384e+15
8.984661e+14
7.458118e+14
5.717928e+14
4.423835e+14
2.954118e+14
1.713682e+14
1.533867e+14
2.663336e+14
3.849047e+14
5.380642e+14
7.285006e+14
9.003514e+14
1.061859e+15
1.205559e+15
1.344873e+15
1.471552e+15
1.578506e+15
1.665398e+15
1.730968e+15
1.773868e+15
1.794138e+15
1.79383e+15
1.77298e+15
1.729598e+15
1.663689e+15
1.576586e+15
1.46951e+15
1.342786e+15
1.203497e+15
1.05988e+15
8.986253e+14
7.271111e+14
5.370938e+14
3.843454e+14
2.65955e+14
1.531729e+14
1.986009e+14
3.335208e+14
4.920022e+14
6.321972e+14
8.574229e+14
1.042782e+15
1.205877e+15
1.364171e+15
1.512506e+15
1.644687e+15
1.757152e+15
1.848166e+15
1.917071e+15
1.963381e+15
1.986893e+15
1.986579e+15
1.962474e+15
1.915681e+15
1.846443e+15
1.755217e+15
1.642635e+15
1.510407e+15
1.362065e+15
1.20382e+15
1.040849e+15
8.55783e+14
6.310058e+14
4.912147e+14
3.33039e+14
1.98374e+14
1.522357e+14
2.757476e+14
4.278784e+14
5.77398e+14
7.857826e+14
9.865263e+14
1.168917e+15
1.345543e+15
1.512806e+15
1.666307e+15
1.802617e+15
1.918936e+15
2.014036e+15
2.088095e+15
2.138891e+15
2.164927e+15
2.164652e+15
2.138093e+15
2.086875e+15
2.012527e+15
1.917235e+15
1.800809e+15
1.664433e+15
1.510869e+15
1.343568e+15
1.166973e+15
9.84742e+14
7.843304e+14
5.762387e+14
4.27284e+14
2.753819e+14
1.521402e+14
1.89115e+14
3.226109e+14
4.831206e+14
6.949208e+14
8.960309e+14
1.094403e+15
1.287031e+15
1.472484e+15
1.645178e+15
1.802788e+15
1.942537e+15
2.06433e+15
2.164746e+15
2.242274e+15
2.294858e+15
2.321456e+15
2.321242e+15
2.29425e+15
2.241371e+15
2.163641e+15
2.063095e+15
1.941227e+15
1.801419e+15
1.643716e+15
1.4709e+15
1.285317e+15
1.092693e+15
8.945611e+14
6.936133e+14
4.82315e+14
3.221641e+14
1.889397e+14
2.117463e+14
3.639821e+14
5.380749e+14
7.712605e+14
9.831841e+14
1.184136e+15
1.387352e+15
1.579643e+15
1.757799e+15
1.91927e+15
2.064493e+15
2.191248e+15
2.29472e+15
2.373216e+15
2.425833e+15
2.452208e+15
2.452084e+15
2.425471e+15
2.372667e+15
2.294051e+15
2.190523e+15
2.063745e+15
1.91849e+15
1.75689e+15
1.578489e+15
1.385871e+15
1.182516e+15
9.817226e+14
7.698602e+14
5.37036e+14
3.63283e+14
2.113698e+14
2.374737e+14
4.234371e+14
5.874584e+14
8.299318e+14
1.045241e+15
1.259837e+15
1.469878e+15
1.666814e+15
1.849067e+15
2.014619e+15
2.165139e+15
2.294932e+15
2.39952e+15
2.477827e+15
2.529832e+15
2.555756e+15
2.555691e+15
2.529635e+15
2.477503e+15
2.399105e+15
2.294452e+15
2.164605e+15
2.014013e+15
1.848311e+15
1.665757e+15
1.468422e+15
1.258201e+15
1.043699e+15
8.284221e+14
5.861534e+14
4.222663e+14
2.369073e+14
1.584498e+14
2.949184e+14
4.562383e+14
6.690678e+14
8.790157e+14
1.092392e+15
1.315555e+15
1.531067e+15
1.732774e+15
1.918329e+15
2.089005e+15
2.242997e+15
2.373768e+15
2.478187e+15
2.555815e+15
2.607067e+15
2.632514e+15
2.632436e+15
2.606833e+15
2.555451e+15
2.477784e+15
2.373363e+15
2.242599e+15
2.088582e+15
1.917764e+15
1.73188e+15
1.529743e+15
1.314025e+15
1.090867e+15
8.774701e+14
6.675703e+14
4.5497e+14
2.94166e+14
1.580366e+14
1.784318e+14
3.074607e+14
4.69821e+14
7.005167e+14
9.0919e+14
1.123035e+15
1.351212e+15
1.570878e+15
1.776187e+15
1.965133e+15
2.140228e+15
2.295972e+15
2.426846e+15
2.530807e+15
2.607716e+15
2.658316e+15
2.683314e+15
2.683105e+15
2.657752e+15
2.60695e+15
2.530062e+15
2.426372e+15
2.295732e+15
2.140047e+15
1.9648e+15
1.775494e+15
1.569772e+15
1.349902e+15
1.12168e+15
9.078023e+14
6.991364e+14
4.686671e+14
3.067167e+14
1.781149e+14
1.830216e+14
3.123715e+14
4.764857e+14
7.131576e+14
9.232139e+14
1.137983e+15
1.368647e+15
1.590433e+15
1.797002e+15
1.989234e+15
2.166797e+15
2.323014e+15
2.453586e+15
2.557069e+15
2.633656e+15
2.684003e+15
2.708799e+15
2.708477e+15
2.683166e+15
2.632603e+15
2.556141e+15
2.453017e+15
2.32279e+15
2.16671e+15
1.989022e+15
1.796464e+15
1.589554e+15
1.367589e+15
1.136869e+15
9.22067e+14
7.120269e+14
4.755988e+14
3.117621e+14
1.82729e+14
1.83036e+14
3.124252e+14
4.766059e+14
7.132269e+14
9.232687e+14
1.138023e+15
1.368694e+15
1.590538e+15
1.797215e+15
1.989532e+15
2.167119e+15
2.323316e+15
2.453834e+15
2.557262e+15
2.633839e+15
2.68421e+15
2.709039e+15
2.708728e+15
2.6834e+15
2.632806e+15
2.556327e+15
2.453218e+15
2.323038e+15
2.16701e+15
1.989352e+15
1.796791e+15
1.589865e+15
1.367878e+15
1.137148e+15
9.223654e+14
7.123211e+14
4.758425e+14
3.11918e+14
1.828029e+14
1.785531e+14
3.075754e+14
4.699417e+14
7.006413e+14
9.093302e+14
1.123157e+15
1.351348e+15
1.571191e+15
1.776812e+15
1.965981e+15
2.141144e+15
2.296853e+15
2.427623e+15
2.531447e+15
2.608365e+15
2.659023e+15
2.684059e+15
2.683829e+15
2.658415e+15
2.60757e+15
2.530705e+15
2.427117e+15
2.29662e+15
2.141058e+15
1.965859e+15
1.776519e+15
1.570726e+15
1.350753e+15
1.122472e+15
9.086378e+14
6.999473e+14
4.693421e+14
3.071705e+14
1.783451e+14
1.586193e+14
2.949005e+14
4.562361e+14
6.691888e+14
8.792057e+14
1.092608e+15
1.315784e+15
1.531554e+15
1.733715e+15
1.919588e+15
2.090376e+15
2.24438e+15
2.375127e+15
2.479477e+15
2.557019e+15
2.608242e+15
2.633674e+15
2.63358e+15
2.607996e+15
2.556699e+15
2.479196e+15
2.37498e+15
2.244396e+15
2.090474e+15
1.91964e+15
1.733627e+15
1.531321e+15
1.315398e+15
1.092068e+15
8.7869e+14
6.686944e+14
4.558508e+14
2.946528e+14
1.584643e+14
2.375521e+14
4.233201e+14
5.87611e+14
8.301844e+14
1.045587e+15
1.260172e+15
1.4705e+15
1.667915e+15
1.850534e+15
2.016264e+15
2.166859e+15
2.296635e+15
2.401164e+15
2.47942e+15
2.531431e+15
2.55742e+15
2.557485e+15
2.531626e+15
2.479725e+15
2.401558e+15
2.297087e+15
2.167327e+15
2.016709e+15
1.850892e+15
1.668126e+15
1.470519e+15
1.260001e+15
1.045176e+15
8.298301e+14
5.872874e+14
4.231596e+14
2.373647e+14
2.118251e+14
3.641284e+14
5.38308e+14
7.715145e+14
9.836374e+14
1.184573e+15
1.388073e+15
1.580776e+15
1.759298e+15
1.921006e+15
2.066343e+15
2.19316e+15
2.296707e+15
2.37532e+15
2.428107e+15
2.454703e+15
2.454876e+15
2.428608e+15
2.376092e+15
2.297664e+15
2.194189e+15
2.06732e+15
1.92185e+15
1.75999e+15
1.581261e+15
1.3883e+15
1.184602e+15
9.833574e+14
7.713206e+14
5.380484e+14
3.638948e+14
2.116307e+14
1.893302e+14
3.229171e+14
4.835245e+14
6.95194e+14
8.965004e+14
1.094981e+15
1.28785e+15
1.473609e+15
1.646659e+15
1.8046e+15
1.944625e+15
2.066684e+15
2.167385e+15
2.245222e+15
2.298139e+15
2.325077e+15
2.325254e+15
2.298651e+15
2.246023e+15
2.168408e+15
2.06783e+15
1.945772e+15
1.805646e+15
1.647537e+15
1.474233e+15
1.288179e+15
1.09513e+15
8.964033e+14
6.951458e+14
4.832145e+14
3.226297e+14
1.891032e+14
1.524166e+14
2.759875e+14
4.284263e+14
5.776628e+14
7.861721e+14
9.871987e+14
1.169865e+15
1.346818e+15
1.514496e+15
1.668441e+15
1.805177e+15
1.921914e+15
2.017442e+15
2.091922e+15
2.143141e+15
2.169575e+15
2.169692e+15
2.143478e+15
2.09245e+15
2.018135e+15
1.922729e+15
1.806026e+15
1.66925e+15
1.51519e+15
1.347313e+15
1.170141e+15
9.873992e+14
7.862323e+14
5.777271e+14
4.27981e+14
2.75821e+14
1.522522e+14
1.987493e+14
3.337139e+14
4.924702e+14
6.324151e+14
8.581223e+14
1.043778e+15
1.207275e+15
1.366053e+15
1.514922e+15
1.647634e+15
1.760617e+15
1.852154e+15
1.921553e+15
1.968326e+15
1.99224e+15
1.992289e+15
1.968464e+15
1.921779e+15
1.852488e+15
1.761062e+15
1.648136e+15
1.515431e+15
1.366507e+15
1.207626e+15
1.044034e+15
8.582993e+14
6.325932e+14
4.92374e+14
3.335933e+14
1.986335e+14
1.534416e+14
2.665704e+14
3.852104e+14
5.386986e+14
7.29305e+14
9.013928e+14
1.063316e+15
1.207543e+15
1.347466e+15
1.474751e+15
1.582279e+15
1.669714e+15
1.735798e+15
1.779162e+15
1.799796e+15
1.799782e+15
1.779131e+15
1.735779e+15
1.669758e+15
1.582405e+15
1.474947e+15
1.347692e+15
1.207755e+15
1.063474e+15
9.014688e+14
7.292811e+14
5.385817e+14
3.85087e+14
2.664926e+14
1.534577e+14
1.716553e+14
2.961613e+14
4.437231e+14
5.734344e+14
7.481311e+14
9.015223e+14
1.044207e+15
1.170574e+15
1.288925e+15
1.389518e+15
1.472245e+15
1.533522e+15
1.573297e+15
1.592716e+15
1.592661e+15
1.573167e+15
1.533346e+15
1.472084e+15
1.389427e+15
1.288918e+15
1.170567e+15
1.044197e+15
9.015431e+14
7.481484e+14
5.734511e+14
4.435078e+14
2.960406e+14
1.716646e+14
1.83908e+14
3.201778e+14
4.633752e+14
5.734277e+14
7.294916e+14
8.585657e+14
9.878489e+14
1.095865e+15
1.185793e+15
1.261632e+15
1.317394e+15
1.353027e+15
1.370363e+15
1.370287e+15
1.352876e+15
1.317196e+15
1.261416e+15
1.185605e+15
1.095747e+15
9.877e+14
8.584097e+14
7.294228e+14
5.734073e+14
4.63292e+14
3.201186e+14
1.838712e+14
1.906771e+14
3.201902e+14
4.43855e+14
5.389094e+14
6.329698e+14
7.867849e+14
8.971934e+14
9.844948e+14
1.046599e+15
1.093733e+15
1.124365e+15
1.139303e+15
1.139197e+15
1.124219e+15
1.093545e+15
1.046393e+15
9.843256e+14
8.970164e+14
7.865367e+14
6.326578e+14
5.388056e+14
4.438001e+14
3.201649e+14
1.906555e+14
1.838633e+14
2.961145e+14
3.854373e+14
4.927528e+14
5.779694e+14
6.95671e+14
7.721319e+14
8.309156e+14
8.800215e+14
9.101973e+14
9.241214e+14
9.240002e+14
9.099877e+14
8.797379e+14
8.306145e+14
7.719291e+14
6.95584e+14