/*--------------------------------*- C++ -*----------------------------------*\
  =========                 |
  \\      /  F ield         | OpenFOAM: The Open Source CFD Toolbox
   \\    /   O peration     | Website:  https://openfoam.org
    \\  /    A nd           | Version:  6
     \\/     M anipulation  |
\*---------------------------------------------------------------------------*/
FoamFile
{
    version     2.0;
    format      ascii;
    class       volScalarField;
    location    "49.8/region0/neutronTransport";
    object      precursor3.dnp;
}
// * * * * * * * * * * * * * * * * * * * * * * * * * * * * * * * * * * * * * //

dimensions      [0 -3 0 0 0 0 0];

internalField   nonuniform List<scalar> 
203709
(
2.470964e+14
2.718594e+14
2.718301e+14
2.471597e+14
2.582285e+14
2.890835e+14
3.578835e+14
3.541198e+14
3.54081e+14
3.578738e+14
2.890638e+14
2.582599e+14
2.52289e+14
2.901035e+14
3.625392e+14
3.615092e+14
3.717939e+14
3.743606e+14
3.743505e+14
3.717818e+14
3.614856e+14
3.625506e+14
2.901202e+14
2.523375e+14
2.522824e+14
3.523708e+14
3.598939e+14
3.740226e+14
3.813727e+14
3.878346e+14
3.906974e+14
3.907135e+14
3.878316e+14
3.813707e+14
3.740653e+14
3.599638e+14
3.524881e+14
2.523955e+14
2.900481e+14
3.598541e+14
3.761224e+14
3.876725e+14
3.964259e+14
4.027527e+14
4.059046e+14
4.05924e+14
4.027634e+14
3.964607e+14
3.877532e+14
3.762292e+14
3.599929e+14
2.90179e+14
2.581822e+14
3.624541e+14
3.739663e+14
3.876407e+14
3.995392e+14
4.089329e+14
4.154564e+14
4.187001e+14
4.187138e+14
4.154964e+14
4.090115e+14
3.996336e+14
3.877674e+14
3.74134e+14
3.626542e+14
2.583102e+14
2.889808e+14
3.613829e+14
3.81266e+14
3.963415e+14
4.088972e+14
4.186599e+14
4.251708e+14
4.282592e+14
4.282758e+14
4.25235e+14
4.187404e+14
4.089941e+14
3.964833e+14
3.814285e+14
3.615428e+14
2.891278e+14
2.471077e+14
3.578219e+14
3.717023e+14
3.877373e+14
4.02681e+14
4.154076e+14
4.251563e+14
4.312129e+14
4.342152e+14
4.342149e+14
4.312225e+14
4.251538e+14
4.154348e+14
4.027445e+14
3.878321e+14
3.718235e+14
3.579872e+14
2.471546e+14
2.717862e+14
3.540311e+14
3.742548e+14
3.906093e+14
4.05821e+14
4.186247e+14
4.282377e+14
4.342399e+14
4.375076e+14
4.374126e+14
4.342241e+14
4.282525e+14
4.1868e+14
4.058889e+14
3.906906e+14
3.743757e+14
3.54149e+14
2.718754e+14
2.71815e+14
3.541012e+14
3.742923e+14
3.906097e+14
4.05808e+14
4.186041e+14
4.282041e+14
4.342275e+14
4.375868e+14
4.374949e+14
4.342448e+14
4.282588e+14
4.186734e+14
4.058938e+14
3.906945e+14
3.743799e+14
3.541932e+14
2.719226e+14
2.470474e+14
3.578932e+14
3.717354e+14
3.877408e+14
4.026575e+14
4.153627e+14
4.251032e+14
4.31191e+14
4.342437e+14
4.342397e+14
4.312521e+14
4.251968e+14
4.154544e+14
4.027508e+14
3.878294e+14
3.718201e+14
3.579527e+14
2.471699e+14
2.88979e+14
3.613955e+14
3.812669e+14
3.963273e+14
4.088415e+14
4.185904e+14
4.251022e+14
4.282269e+14
4.282229e+14
4.251914e+14
4.18696e+14
4.089526e+14
3.964233e+14
3.813517e+14
3.614933e+14
2.890959e+14
2.581715e+14
3.624476e+14
3.739192e+14
3.875788e+14
3.994479e+14
4.088426e+14
4.153473e+14
4.186366e+14
4.18641e+14
4.154418e+14
4.08955e+14
3.995843e+14
3.877146e+14
3.740515e+14
3.625722e+14
2.582644e+14
2.900129e+14
3.597816e+14
3.760399e+14
3.875831e+14
3.963277e+14
4.026722e+14
4.060128e+14
4.060218e+14
4.027262e+14
3.964223e+14
3.877063e+14
3.761867e+14
3.599599e+14
2.901487e+14
2.522563e+14
3.52326e+14
3.598075e+14
3.739386e+14
3.812673e+14
3.877521e+14
3.907866e+14
3.908019e+14
3.877975e+14
3.81345e+14
3.740291e+14
3.599124e+14
3.524584e+14
2.523192e+14
2.522807e+14
2.900502e+14
3.624683e+14
3.613944e+14
3.717392e+14
3.744144e+14
3.74456e+14
3.717804e+14
3.614792e+14
3.625368e+14
2.9008e+14
2.523112e+14
2.582159e+14
2.890199e+14
3.578871e+14
3.542601e+14
3.543196e+14
3.579225e+14
2.890544e+14
2.582258e+14
2.471386e+14
2.718646e+14
2.718892e+14
2.471426e+14
2.070536e+14
2.353527e+14
2.4494e+14
2.515199e+14
2.55635e+14
2.556384e+14
2.51532e+14
2.449575e+14
2.353841e+14
2.071065e+14
2.111857e+14
2.460784e+14
3.134434e+14
3.236788e+14
3.353614e+14
3.482274e+14
3.584118e+14
3.584189e+14
3.482652e+14
3.35365e+14
3.23635e+14
3.133762e+14
2.460073e+14
2.111341e+14
2.161586e+14
3.082692e+14
3.25592e+14
3.506395e+14
3.744023e+14
3.941776e+14
4.19715e+14
4.407827e+14
4.407832e+14
4.197271e+14
3.941024e+14
3.742886e+14
3.505751e+14
3.25553e+14
3.0831e+14
2.161922e+14
2.182958e+14
3.140396e+14
3.422666e+14
3.730818e+14
4.050305e+14
4.505084e+14
5.068285e+14
5.628127e+14
5.829076e+14
5.828942e+14
5.627282e+14
5.067428e+14
4.50457e+14
4.050207e+14
3.730917e+14
3.422957e+14
3.140521e+14
2.183428e+14
2.161497e+14
3.140068e+14
3.457258e+14
3.818249e+14
4.418018e+14
5.141038e+14
5.91904e+14
6.491207e+14
6.917118e+14
7.60872e+14
7.608391e+14
6.916681e+14
6.490435e+14
5.917983e+14
5.140783e+14
4.417697e+14
3.818548e+14
3.457454e+14
3.140295e+14
2.161959e+14
2.11205e+14
3.08359e+14
3.422908e+14
3.818497e+14
4.639402e+14
5.735677e+14
6.488414e+14
7.107569e+14
8.103685e+14
8.549723e+14
8.812882e+14
8.81242e+14
8.548504e+14
8.102045e+14
7.106151e+14
6.487098e+14
5.734406e+14
4.639001e+14
3.818312e+14
3.423132e+14
3.084064e+14
2.112656e+14
2.46037e+14
3.255894e+14
3.730871e+14
4.417978e+14
5.735258e+14
6.787407e+14
7.983733e+14
8.646258e+14
9.16388e+14
9.483456e+14
9.646098e+14
9.645679e+14
9.482237e+14
9.162421e+14
8.644935e+14
7.982657e+14
6.787009e+14
5.735606e+14
4.41849e+14
3.731938e+14
3.257183e+14
2.461402e+14
2.071288e+14
3.134385e+14
3.505858e+14
4.05005e+14
5.140496e+14
6.488287e+14
7.983219e+14
8.882472e+14
9.463026e+14
9.864749e+14
1.011994e+15
1.024587e+15
1.024571e+15
1.011947e+15
9.864505e+14
9.463278e+14
8.883326e+14
7.984918e+14
6.490801e+14
5.143344e+14
4.052507e+14
3.507746e+14
3.135463e+14
2.07157e+14
2.354205e+14
3.237515e+14
3.743499e+14
4.50518e+14
5.919864e+14
7.107896e+14
8.645737e+14
9.462674e+14
9.989679e+14
1.034553e+15
1.057076e+15
1.068075e+15
1.068091e+15
1.057128e+15
1.034665e+15
9.991425e+14
9.465153e+14
8.648918e+14
7.111359e+14
5.923213e+14
4.507208e+14
3.745549e+14
3.238512e+14
2.354575e+14
2.450041e+14
3.354675e+14
3.941513e+14
5.067803e+14
6.492614e+14
8.104129e+14
9.163391e+14
9.864153e+14
1.034527e+15
1.067584e+15
1.088596e+15
1.098897e+15
1.09893e+15
1.088702e+15
1.06776e+15
1.034757e+15
9.866945e+14
9.166296e+14
8.106608e+14
6.493887e+14
5.070352e+14
3.943617e+14
3.355309e+14
2.450338e+14
2.515731e+14
3.483598e+14
4.198313e+14
5.629749e+14
6.919319e+14
8.551096e+14
9.483605e+14
1.011965e+15
1.057055e+15
1.088593e+15
1.108657e+15
1.118502e+15
1.118489e+15
1.108651e+15
1.088596e+15
1.057094e+15
1.012054e+15
9.48486e+14
8.552363e+14
6.92028e+14
5.631355e+14
4.199358e+14
3.484203e+14
2.516347e+14
2.556529e+14
3.584821e+14
4.408599e+14
5.831235e+14
7.611678e+14
8.815322e+14
9.647291e+14
1.024618e+15
1.06807e+15
1.098919e+15
1.118589e+15
1.128308e+15
1.128255e+15
1.118577e+15
1.098955e+15
1.068148e+15
1.024716e+15
9.648398e+14
8.81647e+14
7.612924e+14
5.832816e+14
4.410255e+14
3.58607e+14
2.557483e+14
2.556091e+14
3.584157e+14
4.407937e+14
5.830863e+14
7.611945e+14
8.815948e+14
9.648202e+14
1.02467e+15
1.068064e+15
1.098881e+15
1.118586e+15
1.128393e+15
1.128381e+15
1.118699e+15
1.099074e+15
1.068258e+15
1.024814e+15
9.649281e+14
8.817345e+14
7.613678e+14
5.83267e+14
4.40979e+14
3.585663e+14
2.557207e+14
2.514651e+14
3.482681e+14
4.19839e+14
5.630417e+14
6.919578e+14
8.552373e+14
9.485103e+14
1.012063e+15
1.057072e+15
1.088551e+15
1.108641e+15
1.118595e+15
1.11867e+15
1.108894e+15
1.088877e+15
1.05737e+15
1.012301e+15
9.487058e+14
8.554427e+14
6.921981e+14
5.632379e+14
4.20028e+14
3.484526e+14
2.515986e+14
2.449128e+14
3.354291e+14
3.942498e+14
5.069166e+14
6.493281e+14
8.105558e+14
9.164824e+14
9.864974e+14
1.034519e+15
1.067511e+15
1.088509e+15
1.09887e+15
1.098953e+15
1.088795e+15
1.067893e+15
1.034911e+15
9.868484e+14
9.167787e+14
8.108173e+14
6.495957e+14
5.070762e+14
3.943895e+14
3.356346e+14
2.450629e+14
2.353608e+14
3.237429e+14
3.744509e+14
4.505675e+14
5.921276e+14
7.109165e+14
8.646641e+14
9.46281e+14
9.988993e+14
1.034444e+15
1.056966e+15
1.068019e+15
1.068096e+15
1.057238e+15
1.034843e+15
9.993579e+14
9.467329e+14
8.650492e+14
7.111644e+14
5.923078e+14
4.507748e+14
3.745814e+14
3.239354e+14
2.355041e+14
2.070751e+14
3.134457e+14
3.506562e+14
4.050331e+14
5.141735e+14
6.489067e+14
7.983486e+14
8.882038e+14
9.462116e+14
9.863727e+14
1.011938e+15
1.024586e+15
1.024663e+15
1.012187e+15
9.867628e+14
9.466872e+14
8.887014e+14
7.987829e+14
6.491742e+14
5.143499e+14
4.052329e+14
3.507728e+14
3.136032e+14
2.072031e+14
2.460929e+14
3.256028e+14
3.730596e+14
4.417983e+14
5.73539e+14
6.786995e+14
7.983087e+14
8.645762e+14
9.1637e+14
9.484215e+14
9.647303e+14
9.64808e+14
9.486477e+14
9.167237e+14
8.650075e+14
7.987721e+14
6.790963e+14
5.738047e+14
4.419848e+14
3.732686e+14
3.257099e+14
2.461211e+14
2.112474e+14
3.083128e+14
3.422566e+14
3.818263e+14
4.639295e+14
5.735453e+14
6.488999e+14
7.108932e+14
8.105388e+14
8.552695e+14
8.816458e+14
8.817308e+14
8.554596e+14
8.10808e+14
7.111657e+14
6.492149e+14
5.738527e+14
4.641363e+14
3.819827e+14
3.424314e+14
3.084232e+14
2.112109e+14
2.162031e+14
3.141047e+14
3.457883e+14
3.818315e+14
4.418072e+14
5.141966e+14
5.921812e+14
6.494503e+14
6.921083e+14
7.613228e+14
7.614036e+14
6.922422e+14
6.495708e+14
5.92277e+14
5.143682e+14
4.419802e+14
3.819653e+14
3.458906e+14
3.141987e+14
2.162135e+14
2.183658e+14
3.140976e+14
3.42313e+14
3.731743e+14
4.051469e+14
4.505899e+14
5.069973e+14
5.632068e+14
5.833183e+14
5.833463e+14
5.632003e+14
5.070323e+14
4.506964e+14
4.051861e+14
3.732042e+14
3.423555e+14
3.141518e+14
2.183916e+14
2.161607e+14
3.08384e+14
3.256792e+14
3.506947e+14
3.744615e+14
3.943476e+14
4.199906e+14
4.410488e+14
4.410499e+14
4.199763e+14
3.942931e+14
3.744823e+14
3.5075e+14
3.257022e+14
3.083803e+14
2.16164e+14
2.112705e+14
2.461227e+14
3.135234e+14
3.238472e+14
3.355774e+14
3.484487e+14
3.586301e+14
3.586345e+14
3.484442e+14
3.35541e+14
3.238066e+14
3.135699e+14
2.461541e+14
2.11266e+14
2.071125e+14
2.354092e+14
2.449801e+14
2.515514e+14
2.556856e+14
2.556834e+14
2.515946e+14
2.450259e+14
2.354363e+14
2.071016e+14
1.754826e+14
1.989743e+14
2.048615e+14
2.071268e+14
2.070812e+14
2.047257e+14
1.987315e+14
1.752884e+14
1.752891e+14
2.102499e+14
2.302464e+14
2.900387e+14
3.00886e+14
3.072337e+14
3.101248e+14
3.1008e+14
3.070914e+14
3.006584e+14
2.899333e+14
2.30192e+14
2.102235e+14
1.753511e+14
1.933178e+14
2.812103e+14
3.081395e+14
3.397997e+14
3.74426e+14
3.905056e+14
4.00389e+14
4.050291e+14
4.049904e+14
4.002742e+14
3.903255e+14
3.742385e+14
3.397027e+14
3.080786e+14
2.811899e+14
1.934186e+14
1.811473e+14
2.251529e+14
3.024649e+14
3.595661e+14
4.21211e+14
4.90301e+14
5.254664e+14
5.459555e+14
5.595945e+14
5.666683e+14
5.666237e+14
5.594695e+14
5.457716e+14
5.252631e+14
4.901303e+14
4.210988e+14
3.595637e+14
3.024251e+14
2.25187e+14
1.811586e+14
1.828583e+14
2.757062e+14
3.201161e+14
3.982517e+14
4.993285e+14
5.709831e+14
6.309257e+14
7.254882e+14
7.69666e+14
7.956884e+14
8.086426e+14
8.086049e+14
7.95596e+14
7.695563e+14
7.254236e+14
6.309782e+14
5.710708e+14
4.993625e+14
3.982068e+14
3.201815e+14
2.756992e+14
1.828735e+14
1.811404e+14
2.757626e+14
3.305654e+14
4.143977e+14
5.358658e+14
6.253468e+14
7.470651e+14
8.258164e+14
8.941302e+14
9.448695e+14
9.792852e+14
9.964549e+14
9.964176e+14
9.792054e+14
9.447298e+14
8.939872e+14
8.257466e+14
7.470412e+14
6.253413e+14
5.358961e+14
4.144586e+14
3.305263e+14
2.757299e+14
1.811475e+14
2.252395e+14
3.202122e+14
4.144552e+14
5.444704e+14
6.464844e+14
7.898969e+14
8.95061e+14
9.807858e+14
1.054007e+15
1.113197e+15
1.155411e+15
1.172767e+15
1.172717e+15
1.155264e+15
1.112993e+15
1.053831e+15
9.806991e+14
8.950374e+14
7.89916e+14
6.465099e+14
5.444315e+14
4.144393e+14
3.202078e+14
2.252385e+14
1.934983e+14
3.025111e+14
3.982681e+14
5.360132e+14
6.465017e+14
8.028267e+14
9.274788e+14
1.036912e+15
1.131357e+15
1.211139e+15
1.270686e+15
1.313034e+15
1.337462e+15
1.337396e+15
1.312853e+15
1.270429e+15
1.210874e+15
1.131148e+15
1.036776e+15
9.274521e+14
8.028448e+14
6.465574e+14
5.360046e+14
3.982821e+14
3.025209e+14
1.934497e+14
1.753311e+14
2.812956e+14
3.596527e+14
4.994237e+14
6.256281e+14
7.901543e+14
9.276246e+14
1.057097e+15
1.174925e+15
1.270973e+15
1.350134e+15
1.416146e+15
1.462568e+15
1.487662e+15
1.487578e+15
1.462335e+15
1.415815e+15
1.34978e+15
1.270636e+15
1.174667e+15
1.056966e+15
9.275654e+14
7.901387e+14
6.256279e+14
4.993663e+14
3.597133e+14
2.812901e+14
1.752901e+14
2.103467e+14
3.08264e+14
4.212728e+14
5.712954e+14
7.47428e+14
8.95447e+14
1.037143e+15
1.174998e+15
1.29273e+15
1.396719e+15
1.480831e+15
1.546185e+15
1.590084e+15
1.612479e+15
1.612392e+15
1.589846e+15
1.545863e+15
1.480498e+15
1.396428e+15
1.292546e+15
1.174943e+15
1.037161e+15
8.955144e+14
7.475051e+14
5.712595e+14
4.213974e+14
3.083306e+14
2.103362e+14
2.3032e+14
3.398588e+14
4.902922e+14
6.313772e+14
8.262476e+14
9.811946e+14
1.131586e+15
1.27107e+15
1.396709e+15
1.504624e+15
1.588481e+15
1.650352e+15
1.691086e+15
1.711395e+15
1.711342e+15
1.690951e+15
1.650203e+15
1.588384e+15
1.504626e+15
1.396852e+15
1.271358e+15
1.131944e+15
9.815277e+14
8.26513e+14
6.314776e+14
4.906213e+14
3.400246e+14
2.303569e+14
1.755179e+14
2.901727e+14
3.744233e+14
5.2554e+14
7.259545e+14
8.946018e+14
1.054424e+15
1.211464e+15
1.350313e+15
1.48085e+15
1.588465e+15
1.670304e+15
1.729359e+15
1.767777e+15
1.786759e+15
1.786765e+15
1.7678e+15
1.729445e+15
1.6705e+15
1.588801e+15
1.48133e+15
1.350901e+15
1.212081e+15
1.054946e+15
8.950044e+14
7.261929e+14
5.259045e+14
3.746354e+14
2.901555e+14
1.755059e+14
1.989049e+14
3.009019e+14
3.905881e+14
5.461815e+14
7.701719e+14
9.453912e+14
1.11364e+15
1.271118e+15
1.41644e+15
1.546294e+15
1.650376e+15
1.729373e+15
1.786207e+15
1.823091e+15
1.841305e+15
1.84134e+15
1.823206e+15
1.786434e+15
1.729718e+15
1.65082e+15
1.54679e+15
1.416943e+15
1.271609e+15
1.114132e+15
9.457436e+14
7.703832e+14
5.464264e+14
3.907299e+14
3.00982e+14
1.989564e+14
2.048573e+14
3.072972e+14
4.005413e+14
5.599606e+14
7.963093e+14
9.799378e+14
1.156045e+15
1.31365e+15
1.463061e+15
1.590368e+15
1.691228e+15
1.767856e+15
1.823126e+15
1.859002e+15
1.876695e+15
1.876688e+15
1.859008e+15
1.823169e+15
1.767961e+15
1.691403e+15
1.590609e+15
1.463341e+15
1.313965e+15
1.156388e+15
9.801747e+14
7.964213e+14
5.600737e+14
4.006438e+14
3.07369e+14
2.048848e+14
2.071996e+14
3.102908e+14
4.052711e+14
5.671454e+14
8.093654e+14
9.972095e+14
1.173545e+15
1.338263e+15
1.488399e+15
1.613001e+15
1.711714e+15
1.786939e+15
1.841418e+15
1.876829e+15
1.894312e+15
1.894307e+15
1.876869e+15
1.841518e+15
1.787086e+15
1.711884e+15
1.613201e+15
1.488626e+15
1.338551e+15
1.173862e+15
9.974227e+14
8.094265e+14
5.671745e+14
4.053177e+14
3.103138e+14
2.072192e+14
2.072122e+14
3.103028e+14
4.052795e+14
5.671703e+14
8.093917e+14
9.972654e+14
1.17362e+15
1.338336e+15
1.488502e+15
1.613172e+15
1.711851e+15
1.786982e+15
1.841396e+15
1.876824e+15
1.894382e+15
1.894451e+15
1.877061e+15
1.841734e+15
1.787303e+15
1.712085e+15
1.613381e+15
1.488787e+15
1.338687e+15
1.173957e+15
9.974949e+14
8.094699e+14
5.671733e+14
4.053052e+14
3.103044e+14
2.072256e+14
2.049136e+14
3.073657e+14
4.005898e+14
5.600405e+14
7.963865e+14
9.801394e+14
1.156319e+15
1.313903e+15
1.463361e+15
1.590706e+15
1.691509e+15
1.768011e+15
1.823156e+15
1.859004e+15
1.876795e+15
1.87694e+15
1.859402e+15
1.823657e+15
1.76848e+15
1.691902e+15
1.59106e+15
1.463737e+15
1.314298e+15
1.156671e+15
9.804268e+14
7.965495e+14
5.600537e+14
4.006336e+14
3.07388e+14
2.049402e+14
1.990229e+14
3.010132e+14
3.906732e+14
5.463343e+14
7.702849e+14
9.456572e+14
1.11404e+15
1.271524e+15
1.41686e+15
1.546696e+15
1.65068e+15
1.729526e+15
1.786219e+15
1.823033e+15
1.841282e+15
1.841422e+15
1.823434e+15
1.786775e+15
1.730127e+15
1.65125e+15
1.547204e+15
1.417311e+15
1.271929e+15
1.114377e+15
9.459711e+14
7.705171e+14
5.463311e+14
3.907302e+14
3.010657e+14
1.990587e+14
1.756529e+14
2.902286e+14
3.746003e+14
5.258111e+14
7.260384e+14
8.948361e+14
1.054739e+15
1.211875e+15
1.350726e+15
1.481201e+15
1.588692e+15
1.67039e+15
1.729343e+15
1.767732e+15
1.786767e+15
1.786897e+15
1.768122e+15
1.729936e+15
1.671099e+15
1.589422e+15
1.481864e+15
1.351274e+15
1.212338e+15
1.055155e+15
8.951592e+14
7.263132e+14
5.257537e+14
3.746526e+14
2.903457e+14
1.756782e+14
2.303908e+14
3.400195e+14
4.906124e+14
6.313667e+14
8.264034e+14
9.813431e+14
1.131853e+15
1.271342e+15
1.396908e+15
1.504727e+15
1.588515e+15
1.650371e+15
1.691159e+15
1.711563e+15
1.7117e+15
1.691569e+15
1.651014e+15
1.58932e+15
1.505594e+15
1.39772e+15
1.272015e+15
1.132425e+15
9.818273e+14
8.267121e+14
6.316885e+14
4.905056e+14
3.400343e+14
2.304559e+14
2.103398e+14
3.083403e+14
4.214727e+14
5.713696e+14
7.475606e+14
8.95476e+14
1.037214e+15
1.175096e+15
1.292799e+15
1.396792e+15
1.480965e+15
1.546417e+15
1.590462e+15
1.612991e+15
1.613133e+15
1.590875e+15
1.547064e+15
1.481789e+15
1.397712e+15
1.293694e+15
1.175865e+15
1.037863e+15
8.959692e+14
7.478273e+14
5.716561e+14
4.214709e+14
3.084067e+14
2.104534e+14
1.752727e+14
2.814196e+14
3.598204e+14
4.995492e+14
6.257382e+14
7.901877e+14
9.276745e+14
1.057202e+15
1.175084e+15
1.271255e+15
1.350596e+15
1.416774e+15
1.46339e+15
1.488637e+15
1.48877e+15
1.463752e+15
1.417325e+15
1.351298e+15
1.272073e+15
1.175913e+15
1.05794e+15
9.282932e+14
7.906285e+14
6.258986e+14
4.997851e+14
3.598132e+14
2.814197e+14
1.754342e+14
1.9342e+14
3.025977e+14
3.984097e+14
5.360569e+14
6.466687e+14
8.030091e+14
9.277518e+14
1.037295e+15
1.131905e+15
1.211923e+15
1.271658e+15
1.314183e+15
1.338742e+15
1.338849e+15
1.314455e+15
1.272044e+15
1.212416e+15
1.132503e+15
1.037905e+15
9.283104e+14
8.034924e+14
6.470251e+14
5.363288e+14
3.985344e+14
3.026505e+14
1.935012e+14
2.252585e+14
3.203069e+14
4.145839e+14
5.446594e+14
6.467044e+14
7.903582e+14
8.956968e+14
9.81564e+14
1.054916e+15
1.114293e+15
1.156728e+15
1.17421e+15
1.17427e+15
1.156883e+15
1.114534e+15
1.055246e+15
9.819042e+14
8.960404e+14
7.906925e+14
6.470037e+14
5.448753e+14
4.14706e+14
3.203401e+14
2.252757e+14
1.812434e+14
2.758783e+14
3.307115e+14
4.146083e+14
5.362834e+14
6.259203e+14
7.477175e+14
8.266167e+14
8.950788e+14
9.459756e+14
9.805533e+14
9.977987e+14
9.978269e+14
9.806584e+14
9.461085e+14
8.952444e+14
8.268263e+14
7.479798e+14
6.261274e+14
5.364337e+14
4.147194e+14
3.307642e+14
2.758944e+14
1.812273e+14
1.829067e+14
2.758994e+14
3.204008e+14
3.984556e+14
4.995882e+14
5.713856e+14
6.315609e+14
7.262379e+14
7.704973e+14
7.966346e+14
8.096494e+14
8.096545e+14
7.967423e+14
7.706687e+14
7.264151e+14
6.316888e+14
5.716345e+14
4.998413e+14
3.986137e+14
3.204507e+14
2.759326e+14
1.829174e+14
1.812566e+14
2.253596e+14
3.026243e+14
3.59825e+14
4.214178e+14
4.905522e+14
5.25707e+14
5.46221e+14
5.599847e+14
5.673831e+14
5.673284e+14
5.601533e+14
5.464806e+14
5.259791e+14
4.908017e+14
4.216163e+14
3.599389e+14
3.027086e+14
2.253443e+14
1.812741e+14
1.934668e+14
2.813586e+14
3.083479e+14
3.399855e+14
3.745327e+14
3.905903e+14
4.005291e+14
4.053347e+14
4.052623e+14
4.005926e+14
3.906755e+14
3.746202e+14
3.400272e+14
3.083488e+14
2.814933e+14
1.934641e+14
1.752842e+14
2.103683e+14
2.303562e+14
2.902109e+14
3.00932e+14
3.072931e+14
3.103997e+14
3.103707e+14
3.072848e+14
3.009143e+14
2.902441e+14
2.303477e+14
2.103286e+14
1.753545e+14
1.755859e+14
1.989359e+14
2.048248e+14
2.072055e+14
2.071859e+14
2.047966e+14
1.98881e+14
1.754586e+14
1.557382e+14
1.755195e+14
1.799404e+14
1.798886e+14
1.753601e+14
1.556263e+14
1.496994e+14
1.861291e+14
2.082675e+14
2.334825e+14
2.900175e+14
3.022817e+14
3.070003e+14
3.068834e+14
3.019799e+14
2.89662e+14
2.334032e+14
2.08237e+14
1.860724e+14
1.497176e+14
1.50913e+14
1.953789e+14
2.713413e+14
3.174805e+14
3.580205e+14
4.161645e+14
4.483441e+14
4.617085e+14
4.682248e+14
4.680759e+14
4.613315e+14
4.47986e+14
4.16044e+14
3.57868e+14
3.172468e+14
2.712498e+14
1.953932e+14
1.51007e+14
1.688253e+14
2.621293e+14
3.280576e+14
4.211438e+14
4.754121e+14
5.291846e+14
5.773804e+14
6.574992e+14
6.883675e+14
7.006909e+14
7.005609e+14
6.880256e+14
6.57086e+14
5.770386e+14
5.288118e+14
4.75102e+14
4.207511e+14
3.280218e+14
2.620761e+14
1.689411e+14
1.808916e+14
2.911796e+14
3.786602e+14
4.842354e+14
5.680228e+14
6.833813e+14
7.582638e+14
8.157906e+14
8.639189e+14
8.934822e+14
9.071297e+14
9.070261e+14
8.93203e+14
8.63549e+14
8.154392e+14
7.579896e+14
6.831917e+14
5.678663e+14
4.839724e+14
3.786179e+14
2.91106e+14
1.809318e+14
1.876094e+14
3.14898e+14
4.361194e+14
5.295267e+14
6.218452e+14
7.728098e+14
8.811756e+14
9.667808e+14
1.027592e+15
1.073748e+15
1.103703e+15
1.118249e+15
1.118176e+15
1.103508e+15
1.073489e+15
1.027329e+15
9.665455e+14
8.810061e+14
7.727615e+14
6.218199e+14
5.293539e+14
4.359574e+14
3.147902e+14
1.875794e+14
1.809453e+14
3.149462e+14
4.555304e+14
5.638777e+14
7.169396e+14
8.436252e+14
9.704169e+14
1.076307e+15
1.164338e+15
1.23859e+15
1.29319e+15
1.328068e+15
1.345063e+15
1.345022e+15
1.327971e+15
1.293092e+15
1.23854e+15
1.164348e+15
1.076343e+15
9.704542e+14
8.435885e+14
7.168812e+14
5.637726e+14
4.552277e+14
3.148321e+14
1.809034e+14
1.689175e+14
2.912296e+14
4.36308e+14
5.639174e+14
7.356008e+14
8.861511e+14
1.026104e+15
1.149957e+15
1.265958e+15
1.364453e+15
1.445417e+15
1.50537e+15
1.544282e+15
1.563319e+15
1.563298e+15
1.544242e+15
1.505339e+15
1.445439e+15
1.364548e+15
1.266091e+15
1.150082e+15
1.026176e+15
8.861782e+14
7.35539e+14
5.63812e+14
4.361135e+14
2.911426e+14
1.688618e+14
1.509903e+14
2.621957e+14
3.789151e+14
5.296836e+14
7.171296e+14
8.862926e+14
1.045309e+15
1.186826e+15
1.324021e+15
1.448772e+15
1.554096e+15
1.639678e+15
1.704311e+15
1.746688e+15
1.76685e+15
1.766808e+15
1.74659e+15
1.704218e+15
1.639664e+15
1.554189e+15
1.448941e+15
1.324206e+15
1.186958e+15
1.045342e+15
8.862479e+14
7.170042e+14
5.295395e+14
3.788178e+14
2.621034e+14
1.509324e+14
1.95488e+14
3.283213e+14
4.843301e+14
6.222994e+14
8.439749e+14
1.026432e+15
1.187023e+15
1.342922e+15
1.489005e+15
1.619165e+15
1.729894e+15
1.819503e+15
1.887378e+15
1.933069e+15
1.956391e+15
1.956325e+15
1.932895e+15
1.887162e+15
1.819338e+15
1.72983e+15
1.619216e+15
1.489139e+15
1.343058e+15
1.187104e+15
1.026396e+15
8.438733e+14
6.221493e+14
4.842378e+14
3.28226e+14
1.954749e+14
1.498254e+14
2.714295e+14
4.212057e+14
5.683535e+14
7.73425e+14
9.709874e+14
1.150537e+15
1.324496e+15
1.48928e+15
1.640493e+15
1.774741e+15
1.889264e+15
1.982872e+15
2.055776e+15
2.10582e+15
2.131553e+15
2.131451e+15
2.105543e+15
2.055405e+15
1.982515e+15
1.888988e+15
1.774596e+15
1.640478e+15
1.489328e+15
1.324545e+15
1.150528e+15
9.708965e+14
7.732772e+14
5.680315e+14
4.211393e+14
2.713759e+14
1.499038e+14
1.861147e+14
3.175376e+14
4.755543e+14
6.839925e+14
8.81881e+14
1.077101e+15
1.266769e+15
1.449514e+15
1.619699e+15
1.774992e+15
1.912652e+15
2.03259e+15
2.131446e+15
2.207751e+15
2.259505e+15
2.285712e+15
2.28559e+15
2.259174e+15
2.20731e+15
2.131013e+15
2.032257e+15
1.912481e+15
1.774987e+15
1.619795e+15
1.449648e+15
1.266867e+15
1.077087e+15
8.818023e+14
6.836689e+14
4.753302e+14
3.174595e+14
1.861598e+14
2.083699e+14
3.582387e+14
5.296178e+14
7.590901e+14
9.676026e+14
1.165352e+15
1.365472e+15
1.555015e+15
1.730576e+15
1.889653e+15
2.0327e+15
2.157547e+15
2.259457e+15
2.336755e+15
2.388555e+15
2.414522e+15
2.414434e+15
2.388326e+15
2.336486e+15
2.259266e+15
2.157521e+15
2.032877e+15
1.890014e+15
1.731036e+15
1.555461e+15
1.365805e+15
1.165498e+15
9.67635e+14
7.58778e+14
5.292374e+14
3.579699e+14
2.082507e+14
2.336739e+14
4.16756e+14
5.781966e+14
8.167994e+14
1.028628e+15
1.239774e+15
1.44658e+15
1.640694e+15
1.820299e+15
1.983377e+15
2.131635e+15
2.259495e+15
2.362551e+15
2.439733e+15
2.491014e+15
2.516589e+15
2.516579e+15
2.490994e+15
2.439788e+15
2.36278e+15
2.259955e+15
2.132332e+15
1.984239e+15
1.821196e+15
1.641476e+15
1.447146e+15
1.240072e+15
1.02871e+15
8.165064e+14
5.776785e+14
4.161348e+14
2.334138e+14
1.558768e+14
2.901907e+14
4.490084e+14
6.584924e+14
8.650805e+14
1.075e+15
1.294537e+15
1.506642e+15
1.705427e+15
1.888343e+15
2.056486e+15
2.208127e+15
2.336912e+15
2.439806e+15
2.51638e+15
2.567059e+15
2.5923e+15
2.592335e+15
2.567186e+15
2.516666e+15
2.440295e+15
2.337588e+15
2.208913e+15
2.057325e+15
1.889183e+15
1.70618e+15
1.50717e+15
1.294775e+15
1.075004e+15
8.647542e+14
6.5791e+14
4.483815e+14
2.898624e+14
1.55692e+14
1.755267e+14
3.02507e+14
4.623386e+14
6.894106e+14
8.947568e+14
1.105145e+15
1.329602e+15
1.54572e+15
1.747996e+15
1.934304e+15
2.106849e+15
2.260192e+15
2.388952e+15
2.491242e+15
2.567155e+15
2.617312e+15
2.642261e+15
2.642269e+15
2.617358e+15
2.567274e+15
2.491467e+15
2.389301e+15
2.260651e+15
2.107392e+15
1.934902e+15
1.748572e+15
1.54608e+15
1.329657e+15
1.104997e+15
8.944006e+14
6.888883e+14
4.618347e+14
3.022138e+14
1.754723e+14
1.800311e+14
3.073157e+14
4.688595e+14
7.018119e+14
9.085377e+14
1.119856e+15
1.346767e+15
1.564946e+15
1.76837e+15
1.957896e+15
2.132954e+15
2.286791e+15
2.415244e+15
2.517031e+15
2.59254e+15
2.642434e+15
2.667265e+15
2.667295e+15
2.642542e+15
2.59273e+15
2.517287e+15
2.41555e+15
2.287165e+15
2.133403e+15
1.958448e+15
1.768903e+15
1.565229e+15
1.346722e+15
1.119599e+15
9.081496e+14
7.013741e+14
4.685519e+14
3.071363e+14
1.799911e+14
1.800367e+14
3.073481e+14
4.689398e+14
7.018336e+14
9.085613e+14
1.119894e+15
1.346837e+15
1.565077e+15
1.768528e+15
1.958035e+15
2.133107e+15
2.287031e+15
2.41548e+15
2.517141e+15
2.592541e+15
2.642419e+15
2.667311e+15
2.667436e+15
2.642767e+15
2.59301e+15
2.517586e+15
2.415837e+15
2.287423e+15
2.133631e+15
1.958654e+15
1.769096e+15
1.565412e+15
1.346873e+15
1.119714e+15
9.082596e+14
7.014816e+14
4.686558e+14
3.072183e+14
1.800496e+14
1.756225e+14
3.025626e+14
4.623487e+14
6.893972e+14
8.947988e+14
1.105244e+15
1.329781e+15
1.546075e+15
1.748441e+15
1.934738e+15
2.107325e+15
2.260724e+15
2.389446e+15
2.491572e+15
2.567286e+15
2.617331e+15
2.642329e+15
2.64251e+15
2.617806e+15
2.567889e+15
2.49217e+15
2.390009e+15
2.2613e+15
2.107955e+15
1.935396e+15
1.74904e+15
1.546526e+15
1.33002e+15
1.105288e+15
8.947542e+14
6.892878e+14
4.622342e+14
3.025299e+14
1.756523e+14
1.56012e+14
2.900907e+14
4.48843e+14
6.584014e+14
8.650969e+14
1.075134e+15
1.294764e+15
1.507079e+15
1.706025e+15
1.889002e+15
2.057174e+15
2.208813e+15
2.337492e+15
2.44018e+15
2.516527e+15
2.567055e+15
2.592285e+15
2.592441e+15
2.567493e+15
2.517158e+15
2.440914e+15
2.338262e+15
2.209574e+15
2.057903e+15
1.889669e+15
1.706619e+15
1.507599e+15
1.295156e+15
1.075359e+15
8.653007e+14
6.585479e+14
4.489579e+14
2.901952e+14
1.560535e+14
2.336702e+14
4.164519e+14
5.781031e+14
8.168043e+14
1.028795e+15
1.239977e+15
1.446955e+15
1.641227e+15
1.820959e+15
1.984082e+15
2.132291e+15
2.26e+15
2.362862e+15
2.43988e+15
2.491091e+15
2.516723e+15
2.516876e+15
2.491543e+15
2.440586e+15
2.363755e+15
2.260984e+15
2.133256e+15
1.984955e+15
1.821723e+15
1.641894e+15
1.447528e+15
1.240457e+15
1.029094e+15
8.171416e+14
5.783582e+14
4.167474e+14
2.337473e+14
2.083682e+14
3.582148e+14
5.295904e+14
7.59044e+14
9.677695e+14
1.165496e+15
1.365745e+15
1.555368e+15
1.731038e+15
1.890159e+15
2.033149e+15
2.157894e+15
2.25972e+15
2.337004e+15
2.388886e+15
2.415026e+15
2.41521e+15
2.389427e+15
2.337862e+15
2.260824e+15
2.159127e+15
2.034365e+15
1.891244e+15
1.73198e+15
1.556162e+15
1.366388e+15
1.166056e+15
9.680974e+14
7.594443e+14
5.298251e+14
3.583409e+14
2.083919e+14
1.862534e+14
3.176878e+14
4.757044e+14
6.839454e+14
8.819853e+14
1.077254e+15
1.267002e+15
1.449752e+15
1.619983e+15
1.775312e+15
1.912982e+15
2.032963e+15
2.131926e+15
2.208405e+15
2.260395e+15
2.286871e+15
2.287073e+15
2.260986e+15
2.209346e+15
2.133148e+15
2.034353e+15
1.914386e+15
1.776588e+15
1.621081e+15
1.450648e+15
1.267699e+15
1.077862e+15
8.82393e+14
6.843733e+14
4.757862e+14
3.176805e+14
1.862009e+14
1.499501e+14
2.715444e+14
4.215221e+14
5.683282e+14
7.734211e+14
9.711275e+14
1.150754e+15
1.324741e+15
1.489585e+15
1.64091e+15
1.775306e+15
1.890036e+15
1.983915e+15
2.057112e+15
2.107458e+15
2.133472e+15
2.133654e+15
2.107988e+15
2.05795e+15
1.985019e+15
1.891323e+15
1.776642e+15
1.642172e+15
1.490704e+15
1.325661e+15
1.151475e+15
9.717794e+14
7.739062e+14
5.687432e+14
4.213718e+14
2.715755e+14
1.499062e+14
1.955536e+14
3.283614e+14
4.845457e+14
6.221939e+14
8.441633e+14
1.026685e+15
1.187389e+15
1.343442e+15
1.489743e+15
1.620157e+15
1.731173e+15
1.821115e+15
1.889311e+15
1.935294e+15
1.958849e+15
1.958987e+15
1.935688e+15
1.889931e+15
1.821937e+15
1.732148e+15
1.621191e+15
1.49076e+15
1.344397e+15
1.188237e+15
1.027413e+15
8.447474e+14
6.226882e+14
4.847146e+14
3.284297e+14
1.955592e+14
1.509915e+14
2.623221e+14
3.790546e+14
5.300437e+14
7.175042e+14
8.866992e+14
1.045857e+15
1.187583e+15
1.325061e+15
1.450109e+15
1.555734e+15
1.641622e+15
1.706552e+15
1.749193e+15
1.769538e+15
1.769627e+15
1.749453e+15
1.706967e+15
1.642178e+15
1.556394e+15
1.450831e+15
1.325802e+15
1.188308e+15
1.046509e+15
8.872134e+14
7.178333e+14
5.301789e+14
3.791086e+14
2.623672e+14
1.510799e+14
1.689201e+14
2.914539e+14
4.366513e+14
5.642269e+14
7.360107e+14
8.86785e+14
1.026993e+15
1.151131e+15
1.267383e+15
1.366178e+15
1.447438e+15
1.507654e+15
1.546785e+15
1.565951e+15
1.566003e+15
1.546961e+15
1.507937e+15
1.447821e+15
1.366664e+15
1.26795e+15
1.151702e+15
1.027535e+15
8.872858e+14
7.364069e+14
5.64504e+14
4.366221e+14
2.914514e+14
1.689955e+14
1.809842e+14
3.150943e+14
4.559752e+14
5.641851e+14
7.176098e+14
8.444468e+14
9.714688e+14
1.077576e+15
1.165896e+15
1.240403e+15
1.29522e+15
1.330295e+15
1.347419e+15
1.347443e+15
1.330437e+15
1.295476e+15
1.240748e+15
1.166326e+15
1.078077e+15
9.71928e+14
8.448239e+14
7.179626e+14
5.64453e+14
4.56091e+14
3.151561e+14
1.810043e+14
1.876457e+14
3.150819e+14
4.367211e+14
5.301568e+14
6.225948e+14
7.737781e+14
8.822733e+14
9.680405e+14
1.029071e+15
1.075425e+15
1.105589e+15
1.120348e+15
1.12033e+15
1.105701e+15
1.075648e+15
1.029384e+15
9.684502e+14
8.826596e+14
7.740545e+14
6.226797e+14
5.303529e+14
4.368773e+14
3.151814e+14
1.876748e+14
1.809293e+14
2.913623e+14
3.791925e+14
4.847062e+14
5.684615e+14
6.841651e+14
7.593058e+14
8.170949e+14
8.653987e+14
8.95111e+14
9.088592e+14
9.088065e+14
8.951062e+14