/*--------------------------------*- C++ -*----------------------------------*\
  =========                 |
  \\      /  F ield         | OpenFOAM: The Open Source CFD Toolbox
   \\    /   O peration     | Website:  https://openfoam.org
    \\  /    A nd           | Version:  6
     \\/     M anipulation  |
\*---------------------------------------------------------------------------*/
FoamFile
{
    version     2.0;
    format      ascii;
    class       volScalarField;
    location    "49.8/region0/neutronTransport";
    object      precursor1.dnp;
}
// * * * * * * * * * * * * * * * * * * * * * * * * * * * * * * * * * * * * * //

dimensions      [0 -3 0 0 0 0 0];

internalField   nonuniform List<scalar> 
203709
(
2.322079e+16
2.485774e+16
2.5414e+16
2.420237e+16
1.96499e+16
2.122093e+16
2.429683e+16
2.507375e+16
2.527498e+16
2.559263e+16
2.594053e+16
2.36362e+16
2.001942e+16
2.052293e+16
2.120332e+16
2.190191e+16
2.333714e+16
2.471599e+16
2.528191e+16
2.410117e+16
2.436009e+16
2.390508e+16
2.314003e+16
2.090051e+16
2.487937e+16
2.402128e+16
2.547127e+16
2.544446e+16
2.529757e+16
2.520484e+16
2.467793e+16
2.316706e+16
2.381186e+16
2.595398e+16
2.435734e+16
2.344806e+16
2.305195e+16
2.197678e+16
2.748987e+16
2.707799e+16
2.74527e+16
2.720383e+16
2.703993e+16
2.725552e+16
2.725191e+16
2.688404e+16
2.640657e+16
2.491097e+16
2.401264e+16
2.523221e+16
2.371482e+16
2.328631e+16
2.582072e+16
2.639499e+16
2.468303e+16
2.379539e+16
2.400329e+16
2.555411e+16
2.626712e+16
2.637618e+16
2.604566e+16
2.569955e+16
2.525584e+16
2.447664e+16
2.375137e+16
2.28086e+16
2.467125e+16
2.328874e+16
2.571655e+16
2.570396e+16
2.245176e+16
1.714159e+16
1.887263e+16
2.439769e+16
2.630083e+16
2.721837e+16
2.720488e+16
2.651013e+16
2.569214e+16
2.481663e+16
2.433445e+16
2.386633e+16
2.373268e+16
2.417537e+16
2.618288e+16
2.525217e+16
2.540584e+16
2.376174e+16
2.160798e+16
2.230613e+16
2.441894e+16
2.61845e+16
2.695259e+16
2.723165e+16
2.705012e+16
2.668935e+16
2.597874e+16
2.547214e+16
2.494324e+16
2.459338e+16
2.441731e+16
2.529631e+16
2.619006e+16
2.557008e+16
2.554507e+16
2.515362e+16
2.520916e+16
2.619069e+16
2.671724e+16
2.724117e+16
2.728732e+16
2.725939e+16
2.677871e+16
2.647493e+16
2.587484e+16
2.552396e+16
2.517493e+16
2.484818e+16
2.493616e+16
2.515807e+16
2.653102e+16
2.607603e+16
2.596788e+16
2.596415e+16
2.623303e+16
2.678119e+16
2.696327e+16
2.725714e+16
2.707652e+16
2.684961e+16
2.634226e+16
2.597798e+16
2.546024e+16
2.520609e+16
2.500287e+16
2.481254e+16
2.506741e+16
2.536173e+16
2.738048e+16
2.660439e+16
2.650734e+16
2.657379e+16
2.680011e+16
2.710614e+16
2.716646e+16
2.702932e+16
2.675353e+16
2.634025e+16
2.580694e+16
2.53547e+16
2.499251e+16
2.482055e+16
2.473238e+16
2.465108e+16
2.526489e+16
2.571808e+16
2.683009e+16
2.681369e+16
2.69302e+16
2.703327e+16
2.699756e+16
2.682566e+16
2.641499e+16
2.586906e+16
2.537596e+16
2.497597e+16
2.465995e+16
2.448798e+16
2.447445e+16
2.45095e+16
2.460481e+16
2.54089e+16
2.665402e+16
2.660637e+16
2.658717e+16
2.645911e+16
2.621342e+16
2.583942e+16
2.537835e+16
2.493891e+16
2.453448e+16
2.425032e+16
2.409291e+16
2.410782e+16
2.425962e+16
2.432154e+16
2.479606e+16
2.599685e+16
2.599181e+16
2.59066e+16
2.54899e+16
2.50115e+16
2.454901e+16
2.408756e+16
2.383217e+16
2.358651e+16
2.363728e+16
2.372087e+16
2.395302e+16
2.429219e+16
2.437361e+16
2.517085e+16
2.403446e+16
2.439548e+16
2.38998e+16
2.350206e+16
2.323004e+16
2.311827e+16
2.323913e+16
2.327476e+16
2.349786e+16
2.373442e+16
2.413563e+16
2.463545e+16
2.473432e+16
2.553943e+16
2.224684e+16
2.203863e+16
2.265051e+16
2.261732e+16
2.291036e+16
2.317213e+16
2.333132e+16
2.368359e+16
2.411004e+16
2.455984e+16
2.490122e+16
2.433612e+16
2.192251e+16
2.205902e+16
2.3273e+16
2.354035e+16
2.378831e+16
2.394562e+16
2.430815e+16
2.365531e+16
2.228269e+16
2.308173e+16
2.349673e+16
2.273313e+16
2.528374e+16
2.553585e+16
2.564496e+16
2.60726e+16
2.67119e+16
2.724343e+16
2.758116e+16
2.78697e+16
2.820733e+16
2.675521e+16
2.468203e+16
2.489858e+16
2.571352e+16
2.569582e+16
2.571487e+16
2.606003e+16
2.659764e+16
2.709191e+16
2.748183e+16
2.778205e+16
2.816077e+16
2.798402e+16
2.694962e+16
2.416313e+16
2.403953e+16
2.554824e+16
2.511634e+16
2.547177e+16
2.55091e+16
2.550262e+16
2.579305e+16
2.621932e+16
2.65868e+16
2.704966e+16
2.742101e+16
2.793603e+16
2.788959e+16
2.749314e+16
2.639519e+16
2.388537e+16
2.346833e+16
2.543616e+16
2.564294e+16
2.441007e+16
2.46859e+16
2.532568e+16
2.512451e+16
2.582595e+16
2.664667e+16
2.704622e+16
2.74694e+16
2.690361e+16
2.731344e+16
2.741035e+16
2.734124e+16
2.647623e+16
2.548947e+16
2.4585e+16
2.399075e+16
2.521552e+16
2.523265e+16
2.445256e+16
2.364865e+16
2.395657e+16
2.587148e+16
2.590264e+16
2.577621e+16
2.626606e+16
2.659856e+16
2.731176e+16
2.757501e+16
2.793335e+16
2.681034e+16
2.679401e+16
2.629453e+16
2.555994e+16
2.533347e+16
2.500003e+16
2.544049e+16
2.57864e+16
2.507023e+16
2.423459e+16
2.435153e+16
2.39342e+16
2.415906e+16
2.493629e+16
2.497486e+16
2.481678e+16
2.579875e+16
2.621184e+16
2.589157e+16
2.617735e+16
2.69979e+16
2.738789e+16
2.682114e+16
2.608074e+16
2.544093e+16
2.495123e+16
2.486412e+16
2.500012e+16
2.543038e+16
2.561001e+16
2.466357e+16
2.434201e+16
2.452839e+16
2.414845e+16
2.50637e+16
2.538047e+16
2.563354e+16
2.56531e+16
2.594167e+16
2.516173e+16
2.566745e+16
2.684364e+16
2.605405e+16
2.556491e+16
2.492021e+16
2.434815e+16
2.405719e+16
2.376726e+16
2.338812e+16
2.346729e+16
2.682594e+16
2.703309e+16
2.561748e+16
2.476796e+16
2.46643e+16
2.543708e+16
2.504931e+16
2.534366e+16
2.51483e+16
2.493248e+16
2.508778e+16
2.527435e+16
2.524223e+16
2.562905e+16
2.493283e+16
2.526708e+16
2.679413e+16
2.583237e+16
2.529761e+16
2.418721e+16
2.358274e+16
2.31004e+16
2.319403e+16
2.314136e+16
2.709229e+16
2.731163e+16
2.562875e+16
2.504837e+16
2.448794e+16
2.495839e+16
2.352876e+16
2.301983e+16
2.231183e+16
2.268152e+16
2.31098e+16
2.324619e+16
2.326405e+16
2.345809e+16
2.342859e+16
2.330224e+16
2.271877e+16
2.185221e+16
2.342144e+16
2.200992e+16
2.249477e+16
2.243967e+16
2.248507e+16
2.332218e+16
2.724252e+16
2.727423e+16
2.616671e+16
2.5114e+16
2.419651e+16
2.40293e+16
2.05918e+16
1.794112e+16
1.810635e+16
2.141107e+16
2.270706e+16
2.328567e+16
2.324028e+16
2.28625e+16
2.233278e+16
2.188076e+16
2.174606e+16
2.163559e+16
2.178673e+16
2.221294e+16
2.285905e+16
2.270651e+16
2.284698e+16
2.399378e+16
2.739211e+16
2.738374e+16
2.665336e+16
2.52429e+16
2.470399e+16
2.404875e+16
2.104142e+16
1.84096e+16
1.856857e+16
2.061834e+16
2.217063e+16
2.296214e+16
2.320183e+16
2.314044e+16
2.292882e+16
2.265225e+16
2.241147e+16
2.22627e+16
2.244744e+16
2.284151e+16
2.326536e+16
2.31322e+16
2.315045e+16
2.439475e+16
2.745126e+16
2.74825e+16
2.707438e+16
2.575212e+16
2.518058e+16
2.451651e+16
2.279308e+16
2.169248e+16
2.197893e+16
2.255118e+16
2.297897e+16
2.318872e+16
2.316049e+16
2.296021e+16
2.270356e+16
2.248402e+16
2.236025e+16
2.23467e+16
2.242618e+16
2.285792e+16
2.327404e+16
2.343316e+16
2.352122e+16
2.458336e+16
2.734323e+16
2.750157e+16
2.72937e+16
2.627255e+16
2.5687e+16
2.508223e+16
2.408973e+16
2.346361e+16
2.340065e+16
2.353063e+16
2.360518e+16
2.352017e+16
2.326338e+16
2.291291e+16
2.258135e+16
2.236044e+16
2.229323e+16
2.237673e+16
2.253949e+16
2.302257e+16
2.342313e+16
2.365395e+16
2.379352e+16
2.466413e+16
2.697633e+16
2.733093e+16
2.726459e+16
2.666342e+16
2.617033e+16
2.570067e+16
2.507742e+16
2.470235e+16
2.450877e+16
2.433232e+16
2.407869e+16
2.371005e+16
2.32619e+16
2.28318e+16
2.25159e+16
2.237505e+16
2.24152e+16
2.259685e+16
2.281961e+16
2.351285e+16
2.358579e+16
2.390425e+16
2.405075e+16
2.47946e+16
2.646188e+16
2.697564e+16
2.708223e+16
2.697384e+16
2.652392e+16
2.60703e+16
2.563827e+16
2.528469e+16
2.496066e+16
2.457616e+16
2.410334e+16
2.357357e+16
2.306937e+16
2.270145e+16
2.2531e+16
2.258068e+16
2.28025e+16
2.307936e+16
2.339678e+16
2.406072e+16
2.40899e+16
2.433593e+16
2.436954e+16
2.498169e+16
2.572176e+16
2.634759e+16
2.657487e+16
2.661115e+16
2.64168e+16
2.621508e+16
2.588118e+16
2.547853e+16
2.497837e+16
2.438983e+16
2.376933e+16
2.321305e+16
2.28232e+16
2.26848e+16
2.277117e+16
2.308161e+16
2.348294e+16
2.378198e+16
2.430938e+16
2.45878e+16
2.460857e+16
2.463682e+16
2.464938e+16
2.521267e+16
2.41046e+16
2.527363e+16
2.558467e+16
2.594428e+16
2.567675e+16
2.577877e+16
2.537594e+16
2.483431e+16
2.424986e+16
2.364523e+16
2.313481e+16
2.280921e+16
2.274283e+16
2.297789e+16
2.334775e+16
2.391077e+16
2.436702e+16
2.460075e+16
2.516168e+16
2.513502e+16
2.510743e+16
2.484898e+16
2.504413e+16
2.570407e+16
2.43718e+16
2.471208e+16
2.489759e+16
2.49792e+16
2.44865e+16
2.431066e+16
2.370158e+16
2.322738e+16
2.288698e+16
2.274646e+16
2.281163e+16
2.313549e+16
2.37391e+16
2.4243e+16
2.498919e+16
2.531522e+16
2.572329e+16
2.604536e+16
2.547699e+16
2.528433e+16
2.476116e+16
2.489149e+16
2.24099e+16
2.358729e+16
2.353472e+16
2.334137e+16
2.291974e+16
2.276006e+16
2.259579e+16
2.277815e+16
2.277717e+16
2.300949e+16
2.33903e+16
2.397145e+16
2.48174e+16
2.51937e+16
2.621658e+16
2.623375e+16
2.64599e+16
2.600093e+16
2.5676e+16
2.537931e+16
2.489393e+16
2.499222e+16
2.094158e+16
2.238701e+16
2.220563e+16
2.235533e+16
2.226936e+16
2.249858e+16
2.291258e+16
2.327129e+16
2.382921e+16
2.426918e+16
2.489053e+16
2.593226e+16
2.595919e+16
2.684757e+16
2.618179e+16
2.586192e+16
2.617007e+16
2.591302e+16
2.540307e+16
2.383306e+16
2.022072e+16
2.214364e+16
2.254051e+16
2.241204e+16
2.288443e+16
2.30732e+16
2.340748e+16
2.407113e+16
2.488238e+16
2.544379e+16
2.638059e+16
2.575775e+16
2.627831e+16
2.646762e+16
2.610045e+16
2.650378e+16
2.577482e+16
2.396995e+16
2.005414e+16
2.276361e+16
2.249643e+16
2.31893e+16
2.341852e+16
2.380434e+16
2.413696e+16
2.470898e+16
2.51421e+16
2.57884e+16
2.601691e+16
2.667679e+16
2.674166e+16
2.60333e+16
2.624168e+16
2.446754e+16
2.100457e+16
2.180164e+16
2.353931e+16
2.374068e+16
2.399967e+16
2.44048e+16
2.50106e+16
2.55536e+16
2.601147e+16
2.625875e+16
2.661657e+16
2.657272e+16
2.563582e+16
2.543527e+16
2.148654e+16
2.320876e+16
2.351077e+16
2.386692e+16
2.438261e+16
2.488405e+16
2.536021e+16
2.572537e+16
2.613237e+16
2.57394e+16
2.774626e+16
2.68163e+16
2.719139e+16
2.775717e+16
2.826813e+16
2.862065e+16
2.899096e+16
3.016825e+16
2.742225e+16
2.646493e+16
2.650145e+16
2.641006e+16
2.641414e+16
2.676221e+16
2.729151e+16
2.778979e+16
2.816881e+16
2.859462e+16
2.907183e+16
2.879689e+16
2.860947e+16
2.768655e+16
2.715301e+16
2.62598e+16
2.616911e+16
2.630948e+16
2.605195e+16
2.60805e+16
2.640171e+16
2.693189e+16
2.741711e+16
2.777397e+16
2.81913e+16
2.867991e+16
2.869479e+16
2.821948e+16
2.733351e+16
2.382053e+16
2.789511e+16
2.683087e+16
2.677876e+16
2.604019e+16
2.570248e+16
2.613766e+16
2.612705e+16
2.614768e+16
2.635966e+16
2.682702e+16
2.727462e+16
2.764074e+16
2.81235e+16
2.86515e+16
2.861251e+16
2.724508e+16
2.682546e+16
2.425766e+16
2.103101e+16
1.919194e+16
2.768028e+16
2.741241e+16
2.682856e+16
2.639853e+16
2.609651e+16
2.60917e+16
2.605771e+16
2.581554e+16
2.578695e+16
2.593139e+16
2.636282e+16
2.678472e+16
2.712872e+16
2.75885e+16
2.815845e+16
2.859692e+16
2.77959e+16
2.724398e+16
2.345746e+16
2.115531e+16
2.045687e+16
1.558569e+16
2.836939e+16
2.792798e+16
2.728513e+16
2.648913e+16
2.672627e+16
2.607784e+16
2.585933e+16
2.568688e+16
2.556271e+16
2.555337e+16
2.564063e+16
2.600892e+16
2.640132e+16
2.672895e+16
2.716926e+16
2.770549e+16
2.806374e+16
2.763971e+16
2.751066e+16
2.537613e+16
2.071133e+16
2.003454e+16
1.739784e+16
1.451136e+16
2.794755e+16
2.787098e+16
2.694337e+16
2.699724e+16
2.685816e+16
2.579581e+16
2.578733e+16
2.562029e+16
2.548963e+16
2.533899e+16
2.517803e+16
2.547573e+16
2.582416e+16
2.615863e+16
2.665169e+16
2.722059e+16
2.760279e+16
2.743066e+16
2.725698e+16
2.596479e+16
2.394004e+16
2.115968e+16
1.900057e+16
1.703648e+16
2.776939e+16
2.842258e+16
2.757452e+16
2.752502e+16
2.71938e+16
2.657277e+16
2.586074e+16
2.573343e+16
2.5432e+16
2.485371e+16
2.476574e+16
2.465861e+16
2.48606e+16
2.523388e+16
2.556113e+16
2.603631e+16
2.665963e+16
2.704613e+16
2.709109e+16
2.69942e+16
2.613386e+16
2.481225e+16
2.437697e+16
2.286275e+16
2.133673e+16
1.951438e+16
2.859656e+16
2.8516e+16
2.829057e+16
2.836756e+16
2.767611e+16
2.669937e+16
2.64569e+16
2.572514e+16
2.524875e+16
2.503112e+16
2.458738e+16
2.438511e+16
2.411066e+16
2.456322e+16
2.496416e+16
2.474677e+16
2.516321e+16
2.572906e+16
2.622772e+16
2.653556e+16
2.657051e+16
2.616057e+16
2.531325e+16
2.445569e+16
2.451804e+16
2.399436e+16
2.326827e+16
2.294116e+16
2.849495e+16
2.868112e+16
2.809715e+16
2.86221e+16
2.714488e+16
2.656895e+16
2.632359e+16
2.573796e+16
2.553718e+16
2.563508e+16
2.556324e+16
2.553754e+16
2.541535e+16
2.55606e+16
2.495569e+16
2.5007e+16
2.577094e+16
2.529346e+16
2.508909e+16
2.481944e+16
2.477577e+16
2.467073e+16
2.447296e+16
2.395777e+16
2.369057e+16
2.341146e+16
2.306176e+16
2.306967e+16
2.832259e+16
2.839633e+16
2.841435e+16
2.872888e+16
2.677555e+16
2.656752e+16
2.623913e+16
2.595035e+16
2.595499e+16
2.594517e+16
2.568629e+16
2.539064e+16
2.528871e+16
2.531035e+16
2.514288e+16
2.534076e+16
2.488361e+16
2.532049e+16
2.643546e+16
2.611457e+16
2.58458e+16
2.542075e+16
2.485427e+16
2.413036e+16
2.35436e+16
2.316017e+16
2.289033e+16
2.316487e+16
2.836027e+16
2.889974e+16
2.848117e+16
2.843423e+16
2.827409e+16
2.668533e+16
2.642515e+16
2.574635e+16
2.543256e+16
2.462369e+16
2.373106e+16
2.277076e+16
2.259331e+16
2.312672e+16
2.339115e+16
2.356105e+16
2.380993e+16
2.380421e+16
2.358288e+16
2.28837e+16
2.232119e+16
2.304735e+16
2.280158e+16
2.299777e+16
2.290537e+16
2.273977e+16
2.287047e+16
2.276133e+16
2.291242e+16
2.305525e+16
2.796049e+16
2.856188e+16
2.835226e+16
2.831686e+16
2.798734e+16
2.670864e+16
2.622732e+16
2.543204e+16
2.456821e+16
2.209995e+16
1.94439e+16
1.880323e+16
2.157166e+16
2.295429e+16
2.355596e+16
2.356665e+16
2.32497e+16
2.276966e+16
2.237238e+16
2.228457e+16
2.213904e+16
2.220019e+16
2.240658e+16
2.296933e+16
2.295481e+16
2.287917e+16
2.311345e+16
2.306252e+16
2.289867e+16
2.348947e+16
2.776943e+16
2.828375e+16
2.814447e+16
2.812253e+16
2.77601e+16
2.680749e+16
2.620041e+16
2.558865e+16
2.464617e+16
2.208859e+16
1.891351e+16
1.848248e+16
2.096127e+16
2.275858e+16
2.365567e+16
2.396212e+16
2.39455e+16
2.37485e+16
2.347409e+16
2.32117e+16
2.300131e+16
2.296532e+16
2.300863e+16
2.334275e+16
2.338734e+16
2.323396e+16
2.342346e+16
2.345056e+16
2.336012e+16
2.409004e+16
2.743356e+16
2.792028e+16
2.786778e+16
2.787459e+16
2.754245e+16
2.687641e+16
2.634516e+16
2.582895e+16
2.515416e+16
2.362461e+16
2.222993e+16
2.25768e+16
2.334513e+16
2.395424e+16
2.427403e+16
2.431696e+16
2.415332e+16
2.390674e+16
2.365834e+16
2.348351e+16
2.33835e+16
2.334427e+16
2.348271e+16
2.369827e+16
2.380559e+16
2.364915e+16
2.381849e+16
2.380931e+16
2.374264e+16
2.449759e+16
2.687808e+16
2.74069e+16
2.746064e+16
2.754215e+16
2.729085e+16
2.685317e+16
2.64846e+16
2.610136e+16
2.566962e+16
2.495246e+16
2.447492e+16
2.460339e+16
2.484199e+16
2.495677e+16
2.488487e+16
2.465876e+16
2.434376e+16
2.40428e+16
2.381708e+16
2.370968e+16
2.369936e+16
2.374254e+16
2.392098e+16
2.41396e+16
2.423009e+16
2.404038e+16
2.420561e+16
2.407706e+16
2.405659e+16
2.465955e+16
2.630961e+16
2.679318e+16
2.689914e+16
2.70734e+16
2.693135e+16
2.667731e+16
2.646847e+16
2.626589e+16
2.602247e+16
2.571314e+16
2.559121e+16
2.560398e+16
2.553516e+16
2.532349e+16
2.499535e+16
2.461595e+16
2.426506e+16
2.401941e+16
2.39174e+16
2.395464e+16
2.406709e+16
2.419707e+16
2.446188e+16
2.467185e+16
2.46822e+16
2.43997e+16
2.454165e+16
2.424387e+16
2.423181e+16
2.468252e+16
2.579204e+16
2.61681e+16
2.627564e+16
2.652238e+16
2.64589e+16
2.633608e+16
2.621936e+16
2.614893e+16
2.603476e+16
2.590087e+16
2.581706e+16
2.566355e+16
2.53849e+16
2.499727e+16
2.457455e+16
2.421133e+16
2.398505e+16
2.393059e+16
2.404958e+16
2.428755e+16
2.452037e+16
2.472078e+16
2.500051e+16
2.511542e+16
2.506031e+16
2.467592e+16
2.480275e+16
2.430536e+16
2.431477e+16
2.464617e+16
2.495824e+16
2.529906e+16
2.547541e+16
2.574408e+16
2.574631e+16
2.575668e+16
2.573072e+16
2.572003e+16
2.568076e+16
2.560597e+16
2.537015e+16
2.502231e+16
2.460818e+16
2.420301e+16
2.389266e+16
2.373824e+16
2.377838e+16
2.399741e+16
2.436611e+16
2.477491e+16
2.504701e+16
2.530663e+16
2.555681e+16
2.56013e+16
2.532272e+16
2.487252e+16
2.497941e+16
2.42317e+16
2.4474e+16
2.453548e+16
2.4525e+16
2.474978e+16
2.519981e+16
2.520669e+16
2.505773e+16
2.496606e+16
2.485861e+16
2.479905e+16
2.452607e+16
2.413958e+16
2.377009e+16
2.348936e+16
2.334294e+16
2.336042e+16
2.354195e+16
2.389484e+16
2.435881e+16
2.490232e+16
2.534783e+16
2.553568e+16
2.578077e+16
2.585906e+16
2.588218e+16
2.538694e+16
2.5243e+16
2.507934e+16
2.414314e+16
2.427925e+16
2.436724e+16
2.438483e+16
2.390814e+16
2.429523e+16
2.412407e+16
2.403571e+16
2.390747e+16
2.361765e+16
2.327558e+16
2.297214e+16
2.284618e+16
2.289507e+16
2.310465e+16
2.343484e+16
2.386608e+16
2.43948e+16
2.494563e+16
2.551551e+16
2.58444e+16
2.596033e+16
2.612012e+16
2.612055e+16
2.600006e+16
2.536411e+16
2.540717e+16
2.450689e+16
2.423414e+16
2.451794e+16
2.370206e+16
2.401684e+16
2.363001e+16
2.364993e+16
2.372877e+16
2.337281e+16
2.310446e+16
2.283569e+16
2.267624e+16
2.270762e+16
2.291016e+16
2.318434e+16
2.354326e+16
2.39626e+16
2.445855e+16
2.499529e+16
2.551212e+16
2.604426e+16
2.622354e+16
2.627252e+16
2.616073e+16
2.616336e+16
2.603033e+16
2.575785e+16
2.557801e+16
2.447758e+16
2.448993e+16
2.419427e+16
2.219054e+16
2.333626e+16
2.293473e+16
2.310405e+16
2.314952e+16
2.294455e+16
2.304735e+16
2.321755e+16
2.344037e+16
2.365339e+16
2.393887e+16
2.420587e+16
2.455723e+16
2.502747e+16
2.551897e+16
2.603526e+16
2.649231e+16
2.655094e+16
2.65215e+16
2.619668e+16
2.620751e+16
2.628675e+16
2.560671e+16
2.453246e+16
2.488908e+16
2.395294e+16
2.239681e+16
2.287604e+16
2.272605e+16
2.30779e+16
2.351952e+16
2.370528e+16
2.386273e+16
2.412477e+16
2.438215e+16
2.460569e+16
2.471467e+16
2.511017e+16
2.559613e+16
2.605526e+16
2.657686e+16
2.695176e+16
2.677907e+16
2.663032e+16
2.618937e+16
2.647108e+16
2.608382e+16
2.46279e+16
2.487951e+16
2.493407e+16
2.179315e+16
2.293844e+16
2.324556e+16
2.281283e+16
2.35602e+16
2.42533e+16
2.417721e+16
2.444349e+16
2.46989e+16
2.492919e+16
2.517966e+16
2.567829e+16
2.619775e+16
2.662425e+16
2.690811e+16
2.709668e+16
2.688139e+16
2.667919e+16
2.637565e+16
2.638469e+16
2.538892e+16
2.507071e+16
2.520197e+16
2.48177e+16
2.1086e+16
2.316334e+16
2.312385e+16
2.322214e+16
2.411803e+16
2.439459e+16
2.477462e+16
2.487017e+16
2.50421e+16
2.53141e+16
2.587936e+16
2.638485e+16
2.675e+16
2.697362e+16
2.712406e+16
2.712798e+16
2.682282e+16
2.639995e+16
2.606194e+16
2.576278e+16
2.53079e+16
2.527902e+16
2.164178e+16
2.241357e+16
2.344194e+16
2.372882e+16
2.349176e+16
2.449044e+16
2.498445e+16
2.518913e+16
2.551613e+16
2.609412e+16
2.656292e+16
2.688121e+16
2.709126e+16
2.723968e+16
2.707359e+16
2.641688e+16
2.630897e+16
2.648111e+16
2.609803e+16
2.611354e+16
2.212598e+16
2.388747e+16
2.393063e+16
2.418095e+16
2.428368e+16
2.451503e+16
2.485778e+16
2.53878e+16
2.587175e+16
2.62424e+16
2.65213e+16
2.684871e+16
2.704e+16
2.684228e+16
2.655279e+16
2.754794e+16
2.323048e+16
2.393305e+16
2.407003e+16
2.457242e+16
2.483131e+16
2.515526e+16
2.571391e+16
2.618679e+16
2.650337e+16
2.670999e+16
2.698017e+16
2.722521e+16
2.722616e+16
2.827936e+16
2.489504e+16
2.485814e+16
2.51064e+16
2.565106e+16
2.613117e+16
2.652478e+16
2.684444e+16
2.838157e+16
2.920326e+16
2.741269e+16
2.795769e+16
2.852211e+16
2.900696e+16
3.145058e+16
2.874473e+16
2.728596e+16
2.703415e+16
2.684241e+16
2.669276e+16
2.661257e+16
2.715748e+16
2.767928e+16
2.801635e+16
2.855267e+16
2.968889e+16
3.012225e+16
3.056647e+16
3.122589e+16
2.91976e+16
2.731805e+16
2.657411e+16
2.644807e+16
2.639852e+16
2.601871e+16
2.616946e+16
2.609076e+16
2.659174e+16
2.708843e+16
2.748845e+16
2.817685e+16
2.890783e+16
2.917919e+16
2.939492e+16
2.911924e+16
2.883488e+16
2.887672e+16
2.92736e+16
2.759987e+16
2.679878e+16
2.598096e+16
2.593828e+16
2.607655e+16
2.574728e+16
2.590263e+16
2.590368e+16
2.640307e+16
2.687391e+16
2.727764e+16
2.78703e+16
2.857491e+16
2.882558e+16
2.87551e+16
2.824243e+16
2.717377e+16
2.616574e+16
2.571545e+16
2.917296e+16
2.782586e+16
2.700281e+16
2.64576e+16
2.582251e+16
2.562671e+16
2.578031e+16
2.545595e+16
2.567508e+16
2.573394e+16
2.625382e+16
2.668574e+16
2.703819e+16
2.751806e+16
2.799856e+16
2.811516e+16
2.786953e+16
2.733775e+16
2.573983e+16
2.37861e+16
2.226619e+16
2.071303e+16
2.933042e+16
2.812935e+16
2.727984e+16
2.68175e+16
2.627288e+16
2.558722e+16
2.536204e+16
2.545776e+16
2.517072e+16
2.542559e+16
2.55681e+16
2.614102e+16
2.655008e+16
2.68225e+16
2.715681e+16
2.740888e+16
2.736358e+16
2.698836e+16
2.608821e+16
2.482392e+16
2.30937e+16
2.131651e+16
1.990253e+16
1.882216e+16
2.971023e+16
2.859258e+16
2.798e+16
2.71796e+16
2.651351e+16
2.592843e+16
2.526675e+16
2.50477e+16
2.512428e+16
2.492457e+16
2.518413e+16
2.539574e+16
2.600223e+16
2.642367e+16
2.664818e+16
2.687269e+16
2.698502e+16
2.669833e+16
2.620518e+16
2.514675e+16
2.390834e+16
2.252783e+16
2.153836e+16
2.052557e+16
1.972889e+16
1.944456e+16
2.984139e+16
2.890636e+16
2.863866e+16
2.795402e+16
2.693273e+16
2.624071e+16
2.55081e+16
2.4882e+16
2.467771e+16
2.470731e+16
2.460081e+16
2.485007e+16
2.51182e+16
2.573529e+16
2.619684e+16
2.64265e+16
2.661849e+16
2.673986e+16
2.635164e+16
2.583785e+16
2.459678e+16
2.352791e+16
2.223726e+16
2.130749e+16
2.06863e+16
1.969906e+16
2.062794e+16
2.033192e+16
3.02197e+16
2.958414e+16
2.883151e+16
2.85193e+16
2.770726e+16
2.670198e+16
2.575215e+16
2.496173e+16
2.443379e+16
2.432087e+16
2.436779e+16
2.436178e+16
2.455673e+16
2.481461e+16
2.542062e+16
2.592457e+16
2.618996e+16
2.635026e+16
2.650932e+16
2.627452e+16
2.589338e+16
2.493265e+16
2.374322e+16
2.281132e+16
2.170973e+16
1.969906e+16
1.773274e+16
2.05941e+16
2.082481e+16
1.96927e+16
2.957341e+16
2.921211e+16
2.888099e+16
2.857639e+16
2.7446e+16
2.627653e+16
2.519446e+16
2.453671e+16
2.424606e+16
2.413871e+16
2.415641e+16
2.411683e+16
2.433863e+16
2.456594e+16
2.504826e+16
2.5589e+16
2.592173e+16
2.615243e+16
2.633775e+16
2.621298e+16
2.599704e+16
2.54729e+16
2.463181e+16
2.366051e+16
2.328964e+16
2.246278e+16
2.18396e+16
2.094999e+16
2.236469e+16
2.010619e+16
2.98829e+16
2.925824e+16
2.927743e+16
2.893479e+16
2.822171e+16
2.705269e+16
2.59073e+16
2.494114e+16
2.447415e+16
2.430444e+16
2.412483e+16
2.413853e+16
2.400867e+16
2.400937e+16
2.401109e+16
2.45707e+16
2.507525e+16
2.507744e+16
2.541339e+16
2.573001e+16
2.592094e+16
2.597515e+16
2.576981e+16
2.535568e+16
2.478844e+16
2.41505e+16
2.398131e+16
2.395019e+16
2.362712e+16
2.386414e+16
2.262261e+16
2.310977e+16
2.94529e+16
2.91888e+16
2.918622e+16
2.864958e+16
2.798767e+16
2.676403e+16
2.58288e+16
2.500979e+16
2.471766e+16
2.472654e+16
2.4748e+16
2.486462e+16
2.489741e+16
2.49718e+16
2.503237e+16
2.53168e+16
2.501702e+16
2.512926e+16
2.565824e+16
2.524366e+16
2.500587e+16
2.472959e+16
2.455425e+16
2.434611e+16
2.41948e+16
2.394286e+16
2.372533e+16
2.365081e+16
2.336894e+16
2.32666e+16
2.30518e+16
2.333889e+16
2.985183e+16
2.938741e+16
2.930136e+16
2.853256e+16
2.772524e+16
2.673322e+16
2.598659e+16
2.518791e+16
2.508027e+16
2.530782e+16
2.54957e+16
2.565004e+16
2.562466e+16
2.548481e+16
2.526656e+16
2.521078e+16
2.501963e+16
2.515067e+16
2.479054e+16
2.524391e+16
2.610603e+16
2.595737e+16
2.57126e+16
2.530904e+16
2.483396e+16
2.430858e+16
2.382671e+16
2.358659e+16
2.325042e+16
2.340857e+16
2.297858e+16
2.343003e+16
2.891383e+16
2.917291e+16
2.907003e+16
2.835398e+16
2.760522e+16
2.673159e+16
2.606007e+16
2.535456e+16
2.507231e+16
2.513939e+16
2.463369e+16
2.387873e+16
2.294195e+16
2.259053e+16
2.312028e+16
2.342502e+16
2.363737e+16
2.386995e+16
2.385083e+16
2.358609e+16
2.28729e+16
2.250475e+16
2.295516e+16
2.284661e+16
2.300828e+16
2.307887e+16
2.308311e+16
2.317102e+16
2.299018e+16
2.295859e+16
2.238201e+16
2.28982e+16
2.982228e+16
2.871402e+16
2.902778e+16
2.869627e+16
2.81825e+16
2.755885e+16
2.681124e+16
2.613902e+16
2.54173e+16
2.500828e+16
2.454089e+16
2.271243e+16
2.063773e+16
1.981606e+16
2.162292e+16
2.305546e+16
2.36003e+16
2.362655e+16
2.334843e+16
2.291436e+16
2.256633e+16
2.250569e+16
2.238304e+16
2.244373e+16
2.262259e+16
2.30571e+16
2.325012e+16
2.333653e+16
2.346189e+16
2.337551e+16
2.306715e+16
2.293896e+16
2.299323e+16
2.254216e+16
2.890845e+16
2.829431e+16
2.857158e+16
2.827316e+16
2.792367e+16
2.749062e+16
2.692632e+16
2.631951e+16
2.558622e+16
2.51594e+16
2.450261e+16
2.246431e+16
1.940964e+16
1.79735e+16
2.084567e+16
2.281778e+16
2.375982e+16
2.409222e+16
2.409871e+16
2.391985e+16
2.36722e+16
2.343537e+16
2.326092e+16
2.323338e+16
2.329392e+16
2.351785e+16
2.367274e+16
2.370011e+16
2.375913e+16
2.358712e+16
2.305072e+16
2.326034e+16
2.251993e+16
2.252431e+16
2.827402e+16
2.778516e+16
2.800306e+16
2.774307e+16
2.75361e+16
2.732215e+16
2.698821e+16
2.655562e+16
2.591372e+16
2.545363e+16
2.48783e+16
2.353515e+16
2.194248e+16
2.210853e+16
2.301327e+16
2.381431e+16
2.427509e+16
2.43945e+16
2.42731e+16
2.404656e+16
2.382532e+16
2.368308e+16
2.362242e+16
2.363032e+16
2.374415e+16
2.390541e+16
2.402804e+16
2.400958e+16
2.402565e+16
2.382443e+16
2.324785e+16
2.353801e+16
2.284446e+16
2.324713e+16
2.784057e+16
2.726326e+16
2.740315e+16
2.715927e+16
2.702725e+16
2.699706e+16
2.690259e+16
2.670855e+16
2.627282e+16
2.584373e+16
2.53934e+16
2.465235e+16
2.402737e+16
2.419088e+16
2.459155e+16
2.485337e+16
2.488188e+16
2.470166e+16
2.440288e+16
2.410535e+16
2.389959e+16
2.382691e+16
2.386332e+16
2.396079e+16
2.411532e+16
2.426112e+16
2.432131e+16
2.423007e+16
2.421104e+16
2.400388e+16
2.352007e+16
2.381336e+16
2.334251e+16
2.384982e+16
2.751033e+16
2.674887e+16
2.682352e+16
2.657908e+16
2.644112e+16
2.649771e+16
2.659515e+16
2.66414e+16
2.646483e+16
2.621868e+16
2.591884e+16
2.552704e+16
2.530394e+16
2.536801e+16
2.542687e+16
2.531552e+16
2.50286e+16
2.463951e+16
2.425803e+16
2.398792e+16
2.388965e+16
2.395694e+16
2.411887e+16
2.430151e+16
2.448508e+16
2.458438e+16
2.454461e+16
2.435282e+16
2.431275e+16
2.407952e+16
2.371749e+16
2.394948e+16
2.370192e+16
2.371509e+16
2.814919e+16
2.604301e+16
2.615163e+16
2.591884e+16
2.579847e+16
2.587614e+16
2.607637e+16
2.629555e+16
2.637434e+16
2.632893e+16
2.619845e+16
2.600642e+16
2.592445e+16
2.582296e+16
2.557733e+16
2.517237e+16
2.46834e+16
2.422759e+16
2.391541e+16
2.381018e+16
2.392067e+16
2.417528e+16
2.445035e+16
2.467165e+16
2.480713e+16
2.478556e+16
2.461355e+16
2.433597e+16
2.433342e+16
2.406783e+16
2.388988e+16
2.394304e+16
2.396416e+16
2.291429e+16
2.58859e+16
2.567603e+16
2.551655e+16
2.517774e+16
2.508421e+16
2.526487e+16
2.557561e+16
2.583644e+16
2.59674e+16
2.600229e+16
2.601066e+16
2.583132e+16
2.546115e+16
2.496187e+16
2.442271e+16
2.395513e+16
2.366041e+16
2.360214e+16
2.377676e+16
2.4138e+16
2.454066e+16
2.483867e+16
2.501172e+16
2.49971e+16
2.483765e+16
2.4469e+16
2.418024e+16
2.429814e+16
2.402185e+16
2.427679e+16
2.383427e+16
2.348943e+16
2.590393e+16
2.500678e+16
2.486881e+16
2.45194e+16
2.422836e+16
2.422747e+16
2.439882e+16
2.465864e+16
2.484954e+16
2.500703e+16
2.489222e+16
2.45482e+16
2.412866e+16
2.372206e+16
2.340599e+16
2.32519e+16
2.330807e+16
2.358749e+16
2.402985e+16
2.456411e+16
2.4967e+16
2.515685e+16
2.517994e+16
2.491885e+16
2.463648e+16
2.40862e+16
2.399716e+16
2.424078e+16
2.402743e+16
2.444777e+16
2.373769e+16
2.412078e+16
2.620781e+16
2.48074e+16
2.451766e+16
2.408048e+16
2.370788e+16
2.347387e+16
2.342837e+16
2.354908e+16
2.365528e+16
2.356375e+16
2.336018e+16
2.314111e+16
2.297226e+16
2.28835e+16
2.290871e+16
2.308107e+16
2.342297e+16
2.392138e+16
2.447973e+16
2.503569e+16
2.52676e+16
2.529794e+16
2.51133e+16
2.465682e+16
2.427453e+16
2.362382e+16
2.386712e+16
2.409659e+16
2.416863e+16
2.453844e+16
2.393319e+16
2.437212e+16
2.654667e+16
2.472203e+16
2.43676e+16
2.418837e+16
2.369045e+16
2.333016e+16
2.307978e+16
2.293327e+16
2.284589e+16
2.273065e+16
2.265632e+16
2.264956e+16
2.268558e+16
2.278362e+16
2.297488e+16
2.32938e+16
2.375774e+16
2.43264e+16
2.486915e+16
2.534893e+16
2.533016e+16
2.52366e+16
2.484754e+16
2.42931e+16
2.393084e+16
2.339224e+16
2.384214e+16
2.421994e+16
2.463536e+16
2.451442e+16
2.426959e+16
2.452672e+16
2.50438e+16
2.419886e+16
2.3983e+16
2.396971e+16
2.362276e+16
2.328685e+16
2.314103e+16
2.303572e+16
2.290894e+16
2.27948e+16
2.278197e+16
2.277164e+16
2.292702e+16
2.314267e+16
2.350818e+16
2.401558e+16
2.458957e+16
2.507458e+16
2.544013e+16
2.521469e+16
2.510214e+16
2.463867e+16
2.409209e+16
2.391649e+16
2.353166e+16
2.393325e+16
2.452503e+16
2.457061e+16
2.40829e+16
2.467257e+16
2.470521e+16
2.443025e+16
2.357225e+16
2.401864e+16
2.399467e+16
2.388197e+16
2.378781e+16
2.349476e+16
2.30408e+16
2.284025e+16
2.286037e+16
2.282759e+16
2.304974e+16
2.322163e+16
2.363569e+16
2.415167e+16
2.470186e+16
2.514617e+16
2.542352e+16
2.515248e+16
2.507627e+16
2.463191e+16
2.429689e+16
2.434582e+16
2.385287e+16
2.423157e+16
2.450943e+16
2.433534e+16
2.480926e+16
2.507973e+16
2.40756e+16
2.375075e+16
2.415699e+16
2.447442e+16
2.410177e+16
2.419363e+16
2.366973e+16
2.305941e+16
2.288314e+16
2.294196e+16
2.286519e+16
2.318947e+16
2.333179e+16
2.379187e+16
2.430237e+16
2.481167e+16
2.524638e+16
2.547497e+16
2.530585e+16
2.52445e+16
2.495199e+16
2.477383e+16
2.475168e+16
2.418954e+16
2.458329e+16
2.462367e+16
2.492214e+16
2.467434e+16
2.315445e+16
2.378746e+16
2.433056e+16
2.423719e+16
2.431697e+16
2.386118e+16
2.329176e+16
2.325291e+16
2.325477e+16
2.306048e+16
2.346828e+16
2.359052e+16
2.411267e+16
2.462191e+16
2.509329e+16
2.550568e+16
2.573621e+16
2.571422e+16
2.558717e+16
2.537428e+16
2.518039e+16
2.512145e+16
2.452816e+16
2.473802e+16
2.489442e+16
2.525361e+16
2.299859e+16
2.38028e+16
2.412811e+16
2.450132e+16
2.408728e+16
2.368662e+16
2.368911e+16
2.367512e+16
2.346641e+16
2.392476e+16
2.404027e+16
2.457782e+16
2.505616e+16
2.550295e+16
2.589053e+16
2.609243e+16
2.613207e+16
2.595e+16
2.575516e+16
2.557815e+16
2.551401e+16
2.482067e+16
2.526419e+16
2.583144e+16
2.31829e+16
2.396816e+16
2.375375e+16
2.397179e+16
2.394523e+16
2.391819e+16
2.412148e+16
2.394386e+16
2.437021e+16
2.448192e+16
2.499296e+16
2.545234e+16
2.586997e+16
2.623375e+16
2.645359e+16