/*--------------------------------*- C++ -*----------------------------------*\
  =========                 |
  \\      /  F ield         | OpenFOAM: The Open Source CFD Toolbox
   \\    /   O peration     | Website:  https://openfoam.org
    \\  /    A nd           | Version:  6
     \\/     M anipulation  |
\*---------------------------------------------------------------------------*/
FoamFile
{
    version     2.0;
    format      ascii;
    class       volScalarField;
    location    "49.8/region0/neutronTransport";
    object      precursor5.dnp;
}
// * * * * * * * * * * * * * * * * * * * * * * * * * * * * * * * * * * * * * //

dimensions      [0 -3 0 0 0 0 0];

internalField   nonuniform List<scalar> 
203709
(
1.235357e+12
1.359159e+12
1.359013e+12
1.235673e+12
1.291012e+12
1.445271e+12
1.789236e+12
1.770419e+12
1.770226e+12
1.789188e+12
1.445173e+12
1.291168e+12
1.261317e+12
1.450371e+12
1.812512e+12
1.807363e+12
1.858781e+12
1.871613e+12
1.871563e+12
1.858721e+12
1.807245e+12
1.812569e+12
1.450454e+12
1.261559e+12
1.261284e+12
1.761675e+12
1.799287e+12
1.869923e+12
1.90667e+12
1.938977e+12
1.953289e+12
1.953369e+12
1.938961e+12
1.90666e+12
1.870137e+12
1.799637e+12
1.762262e+12
1.26185e+12
1.450093e+12
1.799088e+12
1.880421e+12
1.938166e+12
1.981928e+12
2.013559e+12
2.029317e+12
2.029414e+12
2.013613e+12
1.982103e+12
1.938569e+12
1.880955e+12
1.799782e+12
1.450748e+12
1.29078e+12
1.812087e+12
1.869642e+12
1.938007e+12
1.997493e+12
2.044457e+12
2.077072e+12
2.093288e+12
2.093357e+12
2.077271e+12
2.04485e+12
1.997965e+12
1.93864e+12
1.87048e+12
1.813087e+12
1.29142e+12
1.444757e+12
1.806731e+12
1.906137e+12
1.981506e+12
2.044279e+12
2.093087e+12
2.125638e+12
2.141079e+12
2.141162e+12
2.125959e+12
2.09349e+12
2.044763e+12
1.982216e+12
1.906949e+12
1.807531e+12
1.445492e+12
1.235413e+12
1.788928e+12
1.858323e+12
1.93849e+12
2.013201e+12
2.076827e+12
2.125566e+12
2.155846e+12
2.170856e+12
2.170854e+12
2.155894e+12
2.125553e+12
2.076963e+12
2.013518e+12
1.938964e+12
1.858929e+12
1.789755e+12
1.235648e+12
1.358793e+12
1.769976e+12
1.871084e+12
1.952849e+12
2.028899e+12
2.092911e+12
2.140971e+12
2.170979e+12
2.187316e+12
2.186841e+12
2.1709e+12
2.141046e+12
2.093188e+12
2.029239e+12
1.953255e+12
1.871689e+12
1.770566e+12
1.359239e+12
1.358937e+12
1.770326e+12
1.871272e+12
1.95285e+12
2.028834e+12
2.092808e+12
2.140804e+12
2.170917e+12
2.187712e+12
2.187253e+12
2.171004e+12
2.141077e+12
2.093155e+12
2.029263e+12
1.953274e+12
1.87171e+12
1.770787e+12
1.359475e+12
1.235112e+12
1.789284e+12
1.858489e+12
1.938508e+12
2.013083e+12
2.076603e+12
2.125301e+12
2.155736e+12
2.170998e+12
2.170979e+12
2.156042e+12
2.125768e+12
2.077062e+12
2.01355e+12
1.93895e+12
1.858912e+12
1.789582e+12
1.235724e+12
1.444748e+12
1.806794e+12
1.906141e+12
1.981436e+12
2.044e+12
2.09274e+12
2.125295e+12
2.140917e+12
2.140898e+12
2.125742e+12
2.093268e+12
2.044556e+12
1.981916e+12
1.906565e+12
1.807283e+12
1.445333e+12
1.290727e+12
1.812054e+12
1.869407e+12
1.937698e+12
1.997037e+12
2.044006e+12
2.076526e+12
2.092971e+12
2.092993e+12
2.076998e+12
2.044568e+12
1.997719e+12
1.938376e+12
1.870068e+12
1.812677e+12
1.291191e+12
1.449918e+12
1.798726e+12
1.880009e+12
1.937719e+12
1.981438e+12
2.013157e+12
2.029858e+12
2.029903e+12
2.013427e+12
1.981911e+12
1.938335e+12
1.880743e+12
1.799617e+12
1.450596e+12
1.261154e+12
1.761451e+12
1.798855e+12
1.869504e+12
1.906143e+12
1.938564e+12
1.953735e+12
1.953811e+12
1.938791e+12
1.906532e+12
1.869956e+12
1.79938e+12
1.762113e+12
1.261468e+12
1.261275e+12
1.450104e+12
1.812158e+12
1.806789e+12
1.858508e+12
1.871882e+12
1.87209e+12
1.858713e+12
1.807213e+12
1.8125e+12
1.450253e+12
1.261428e+12
1.290949e+12
1.444953e+12
1.789254e+12
1.771121e+12
1.771418e+12
1.789431e+12
1.445125e+12
1.290998e+12
1.235568e+12
1.359185e+12
1.359308e+12
1.235588e+12
1.035163e+12
1.176644e+12
1.224576e+12
1.257472e+12
1.278046e+12
1.278062e+12
1.257533e+12
1.224663e+12
1.176801e+12
1.035428e+12
1.055822e+12
1.230267e+12
1.567058e+12
1.61823e+12
1.676637e+12
1.74096e+12
1.791877e+12
1.791913e+12
1.74115e+12
1.676655e+12
1.618011e+12
1.566722e+12
1.229912e+12
1.055563e+12
1.080683e+12
1.54119e+12
1.627795e+12
1.75302e+12
1.871822e+12
1.970688e+12
2.098362e+12
2.20369e+12
2.203692e+12
2.098422e+12
1.970312e+12
1.871253e+12
1.752698e+12
1.6276e+12
1.541394e+12
1.080851e+12
1.091368e+12
1.570039e+12
1.711159e+12
1.86522e+12
2.024947e+12
2.252314e+12
2.533885e+12
2.813778e+12
2.914242e+12
2.914175e+12
2.813356e+12
2.533457e+12
2.252057e+12
2.024898e+12
1.865269e+12
1.711305e+12
1.570101e+12
1.091603e+12
1.080639e+12
1.569875e+12
1.728454e+12
1.908931e+12
2.208785e+12
2.570258e+12
2.95922e+12
3.245274e+12
3.458208e+12
3.803974e+12
3.80381e+12
3.45799e+12
3.244889e+12
2.958692e+12
2.570131e+12
2.208625e+12
1.909081e+12
1.728552e+12
1.569988e+12
1.08087e+12
1.055918e+12
1.541639e+12
1.71128e+12
1.909055e+12
2.319466e+12
2.867548e+12
3.243878e+12
3.553424e+12
4.051432e+12
4.274428e+12
4.405994e+12
4.405763e+12
4.273819e+12
4.050612e+12
3.552715e+12
3.24322e+12
2.866912e+12
2.319265e+12
1.908962e+12
1.711393e+12
1.541875e+12
1.056221e+12
1.23006e+12
1.627782e+12
1.865247e+12
2.208765e+12
2.867338e+12
3.393359e+12
3.991462e+12
4.322691e+12
4.581476e+12
4.741247e+12
4.82256e+12
4.822351e+12
4.740638e+12
4.580746e+12
4.322029e+12
3.990924e+12
3.393161e+12
2.867512e+12
2.209021e+12
1.86578e+12
1.628426e+12
1.230576e+12
1.035539e+12
1.567034e+12
1.752751e+12
2.02482e+12
2.569987e+12
3.243815e+12
3.991205e+12
4.440786e+12
4.731033e+12
4.931874e+12
5.059459e+12
5.122414e+12
5.122335e+12
5.059222e+12
4.931752e+12
4.731159e+12
4.441213e+12
3.992054e+12
3.245071e+12
2.571411e+12
2.026048e+12
1.753695e+12
1.567573e+12
1.03568e+12
1.176983e+12
1.618593e+12
1.87156e+12
2.252362e+12
2.959632e+12
3.553588e+12
4.32243e+12
4.730857e+12
4.994333e+12
5.172242e+12
5.284846e+12
5.339832e+12
5.339914e+12
5.285104e+12
5.172798e+12
4.995206e+12
4.732096e+12
4.324021e+12
3.555319e+12
2.961306e+12
2.253375e+12
1.872585e+12
1.619092e+12
1.177168e+12
1.224897e+12
1.677167e+12
1.970557e+12
2.533645e+12
3.245978e+12
4.051654e+12
4.581231e+12
4.931577e+12
5.17211e+12
5.337379e+12
5.442429e+12
5.493928e+12
5.494095e+12
5.442959e+12
5.338257e+12
5.173261e+12
4.932972e+12
4.582683e+12
4.052893e+12
3.246614e+12
2.534919e+12
1.971608e+12
1.677484e+12
1.225045e+12
1.257738e+12
1.741622e+12
2.098944e+12
2.814589e+12
3.459309e+12
4.275114e+12
4.741322e+12
5.059312e+12
5.28474e+12
5.442412e+12
5.542723e+12
5.591941e+12
5.591877e+12
5.542693e+12
5.442427e+12
5.284936e+12
5.059755e+12
4.741949e+12
4.275748e+12
3.459789e+12
2.815392e+12
2.099466e+12
1.741925e+12
1.258046e+12
1.278135e+12
1.792229e+12
2.204076e+12
2.915322e+12
3.805453e+12
4.407214e+12
4.823156e+12
5.122573e+12
5.339809e+12
5.494038e+12
5.592379e+12
5.640969e+12
5.640702e+12
5.592319e+12
5.494216e+12
5.340201e+12
5.123061e+12
4.82371e+12
4.407788e+12
3.806076e+12
2.916112e+12
2.204904e+12
1.792853e+12
1.278612e+12
1.277916e+12
1.791897e+12
2.203745e+12
2.915136e+12
3.805587e+12
4.407527e+12
4.823612e+12
5.122832e+12
5.339776e+12
5.493847e+12
5.592365e+12
5.641393e+12
5.641332e+12
5.592927e+12
5.494812e+12
5.340748e+12
5.123552e+12
4.824151e+12
4.408226e+12
3.806453e+12
2.916039e+12
2.204672e+12
1.79265e+12
1.278474e+12
1.257198e+12
1.741164e+12
2.098982e+12
2.814923e+12
3.459438e+12
4.275753e+12
4.742071e+12
5.059801e+12
5.284826e+12
5.442203e+12
5.542642e+12
5.59241e+12
5.592782e+12
5.54391e+12
5.443832e+12
5.286316e+12
5.060993e+12
4.743048e+12
4.27678e+12
3.46064e+12
2.815904e+12
2.099927e+12
1.742087e+12
1.257865e+12
1.22444e+12
1.676976e+12
1.971049e+12
2.534326e+12
3.246311e+12
4.052368e+12
4.581947e+12
4.931987e+12
5.172071e+12
5.337013e+12
5.441995e+12
5.493791e+12
5.49421e+12
5.443421e+12
5.338923e+12
5.174031e+12
4.933742e+12
4.583429e+12
4.053675e+12
3.247649e+12
2.535124e+12
1.971747e+12
1.678003e+12
1.22519e+12
1.176685e+12
1.61855e+12
1.872065e+12
2.252609e+12
2.960338e+12
3.554222e+12
4.322882e+12
4.730926e+12
4.99399e+12
5.171695e+12
5.284294e+12
5.339555e+12
5.33994e+12
5.285653e+12
5.17369e+12
4.996283e+12
4.733185e+12
4.324808e+12
3.555461e+12
2.961239e+12
2.253645e+12
1.872717e+12
1.619513e+12
1.177401e+12
1.035271e+12
1.567069e+12
1.753103e+12
2.02496e+12
2.570607e+12
3.244205e+12
3.991338e+12
4.440569e+12
4.730578e+12
4.931363e+12
5.059178e+12
5.12241e+12
5.122794e+12
5.06042e+12
4.933314e+12
4.732956e+12
4.443057e+12
3.99351e+12
3.245542e+12
2.571489e+12
2.025959e+12
1.753686e+12
1.567857e+12
1.035911e+12
1.23034e+12
1.627849e+12
1.865109e+12
2.208768e+12
2.867404e+12
3.393153e+12
3.991139e+12
4.322443e+12
4.581386e+12
4.741627e+12
4.823162e+12
4.823551e+12
4.742758e+12
4.583154e+12
4.324599e+12
3.993456e+12
3.395137e+12
2.868733e+12
2.2097e+12
1.866154e+12
1.628384e+12
1.230481e+12
1.05613e+12
1.541408e+12
1.711109e+12
1.908938e+12
2.319412e+12
2.867436e+12
3.244171e+12
3.554106e+12
4.052283e+12
4.275914e+12
4.407782e+12
4.408207e+12
4.276865e+12
4.053629e+12
3.555468e+12
3.245745e+12
2.868973e+12
2.320446e+12
1.90972e+12
1.711983e+12
1.54196e+12
1.055948e+12
1.080906e+12
1.570364e+12
1.728766e+12
1.908964e+12
2.208812e+12
2.570723e+12
2.960606e+12
3.246922e+12
3.460191e+12
3.806228e+12
3.806632e+12
3.46086e+12
3.247525e+12
2.961085e+12
2.57158e+12
2.209677e+12
1.909633e+12
1.729278e+12
1.570834e+12
1.080958e+12
1.091718e+12
1.570329e+12
1.711392e+12
1.865683e+12
2.025529e+12
2.252721e+12
2.534729e+12
2.815749e+12
2.916296e+12
2.916436e+12
2.815716e+12
2.534905e+12
2.253253e+12
2.025725e+12
1.865832e+12
1.711604e+12
1.5706e+12
1.091847e+12
1.080694e+12
1.541764e+12
1.628231e+12
1.753296e+12
1.872118e+12
1.971538e+12
2.09974e+12
2.20502e+12
2.205026e+12
2.099669e+12
1.971266e+12
1.872222e+12
1.753572e+12
1.628346e+12
1.541745e+12
1.08071e+12
1.056246e+12
1.230489e+12
1.567458e+12
1.619072e+12
1.677717e+12
1.742067e+12
1.792969e+12
1.792991e+12
1.742044e+12
1.677535e+12
1.618869e+12
1.567691e+12
1.230646e+12
1.056223e+12
1.035457e+12
1.176927e+12
1.224776e+12
1.257629e+12
1.278298e+12
1.278288e+12
1.257845e+12
1.225005e+12
1.177062e+12
1.035403e+12
8.773241e+11
9.947707e+11
1.024203e+12
1.035529e+12
1.035301e+12
1.023525e+12
9.935569e+11
8.763532e+11
8.763566e+11
1.051143e+12
1.151115e+12
1.450046e+12
1.504278e+12
1.536013e+12
1.550467e+12
1.550243e+12
1.535301e+12
1.503139e+12
1.449519e+12
1.150843e+12
1.051011e+12
8.766664e+11
9.664911e+11
1.405909e+12
1.540541e+12
1.698826e+12
1.87194e+12
1.95233e+12
2.001742e+12
2.02494e+12
2.024747e+12
2.001168e+12
1.95143e+12
1.871003e+12
1.698341e+12
1.540237e+12
1.405807e+12
9.669952e+11
9.056445e+11
1.12565e+12
1.512171e+12
1.797648e+12
2.105842e+12
2.451257e+12
2.627065e+12
2.729501e+12
2.797689e+12
2.833054e+12
2.832831e+12
2.797064e+12
2.728581e+12
2.626049e+12
2.450403e+12
2.10528e+12
1.797636e+12
1.511972e+12
1.125821e+12
9.057009e+11
9.141987e+11
1.378391e+12
1.600418e+12
1.991057e+12
2.496389e+12
2.854626e+12
3.154309e+12
3.627073e+12
3.84794e+12
3.978039e+12
4.042803e+12
4.042615e+12
3.977577e+12
3.847391e+12
3.62675e+12
3.154571e+12
2.855065e+12
2.49656e+12
1.990832e+12
1.600745e+12
1.378356e+12
9.142749e+11
9.0561e+11
1.378673e+12
1.652659e+12
2.071779e+12
2.679057e+12
3.126417e+12
3.734947e+12
4.128664e+12
4.470198e+12
4.723868e+12
4.89593e+12
4.98177e+12
4.981583e+12
4.895531e+12
4.72317e+12
4.469483e+12
4.128314e+12
3.734827e+12
3.126389e+12
2.679209e+12
2.072083e+12
1.652464e+12
1.37851e+12
9.056456e+11
1.126083e+12
1.600899e+12
2.072066e+12
2.722076e+12
3.232094e+12
3.949084e+12
4.474851e+12
4.903432e+12
5.269503e+12
5.56542e+12
5.776468e+12
5.863242e+12
5.862992e+12
5.775737e+12
5.564402e+12
5.268623e+12
4.902998e+12
4.474733e+12
3.94918e+12
3.232222e+12
2.721881e+12
2.071986e+12
1.600877e+12
1.126078e+12
9.673933e+11
1.512402e+12
1.991139e+12
2.679794e+12
3.232181e+12
4.013726e+12
4.636924e+12
5.184035e+12
5.656212e+12
6.055083e+12
6.352787e+12
6.564502e+12
6.686632e+12
6.686301e+12
6.563598e+12
6.351501e+12
6.053755e+12
5.655165e+12
5.183356e+12
4.63679e+12
4.013817e+12
3.232459e+12
2.679751e+12
1.991209e+12
1.512451e+12
9.671507e+11
8.765666e+11
1.406336e+12
1.798081e+12
2.496865e+12
3.127823e+12
3.950371e+12
4.637653e+12
5.284951e+12
5.874028e+12
6.354223e+12
6.749985e+12
7.080012e+12
7.312099e+12
7.437557e+12
7.437136e+12
7.310935e+12
7.078359e+12
6.748215e+12
6.352537e+12
5.872739e+12
5.284294e+12
4.637357e+12
3.950293e+12
3.127822e+12
2.496578e+12
1.798384e+12
1.406308e+12
8.763617e+11
1.051627e+12
1.541164e+12
2.10615e+12
2.856187e+12
3.736761e+12
4.476781e+12
5.185189e+12
5.874396e+12
6.462994e+12
6.982887e+12
7.403406e+12
7.730139e+12
7.949615e+12
8.061579e+12
8.061141e+12
7.948423e+12
7.728532e+12
7.401742e+12
6.981434e+12
6.462077e+12
5.87412e+12
5.185281e+12
4.477118e+12
3.737146e+12
2.856008e+12
2.106774e+12
1.541497e+12
1.051574e+12
1.151483e+12
1.699122e+12
2.451212e+12
3.156566e+12
4.130819e+12
4.905476e+12
5.657355e+12
6.354704e+12
6.982839e+12
7.522357e+12
7.941601e+12
8.250922e+12
8.454571e+12
8.556106e+12
8.555844e+12
8.453897e+12
8.250179e+12
7.941115e+12
7.52237e+12
6.983554e+12
6.356144e+12
5.659145e+12
4.907141e+12
4.132146e+12
3.157068e+12
2.452858e+12
1.699951e+12
1.151668e+12
8.775004e+11
1.450717e+12
1.871927e+12
2.627434e+12
3.629405e+12
4.472555e+12
5.271584e+12
6.056707e+12
6.750879e+12
7.403497e+12
7.941521e+12
8.350674e+12
8.645918e+12
8.837991e+12
8.932889e+12
8.932919e+12
8.838102e+12
8.646349e+12
8.351654e+12
7.943198e+12
7.405898e+12
6.753822e+12
6.059793e+12
5.274194e+12
4.474568e+12
3.630596e+12
2.629256e+12
1.872987e+12
1.45063e+12
8.774405e+11
9.944236e+11
1.504357e+12
1.952743e+12
2.730631e+12
3.850469e+12
4.726477e+12
5.567634e+12
6.354944e+12
7.081483e+12
7.730685e+12
8.251042e+12
8.64599e+12
8.930129e+12
9.114532e+12
9.20559e+12
9.205766e+12
9.115105e+12
8.931264e+12
8.647711e+12
8.253265e+12
7.733168e+12
7.083998e+12
6.357399e+12
5.570097e+12
4.728239e+12
3.851526e+12
2.731855e+12
1.953452e+12
1.504757e+12
9.946813e+11
1.024183e+12
1.53633e+12
2.002503e+12
2.799519e+12
3.981143e+12
4.899192e+12
5.779639e+12
6.567583e+12
7.314562e+12
7.951034e+12
8.455281e+12
8.838384e+12
9.114706e+12
9.294069e+12
9.382523e+12
9.38249e+12
9.294098e+12
9.114922e+12
8.838908e+12
8.456159e+12
7.952236e+12
7.315966e+12
6.569157e+12
5.781355e+12
4.900377e+12
3.981703e+12
2.800084e+12
2.003016e+12
1.536689e+12
1.02432e+12
1.035893e+12
1.551297e+12
2.02615e+12
2.83544e+12
4.046416e+12
4.985542e+12
5.867128e+12
6.690634e+12
7.441242e+12
8.06419e+12
8.557702e+12
8.933791e+12
9.206156e+12
9.383195e+12
9.4706e+12
9.470576e+12
9.383391e+12
9.206657e+12
8.934524e+12
8.558552e+12
8.065189e+12
7.442376e+12
6.692079e+12
5.868716e+12
4.986608e+12
4.046722e+12
2.835585e+12
2.026383e+12
1.551412e+12
1.035991e+12
1.035956e+12
1.551357e+12
2.026192e+12
2.835564e+12
4.046548e+12
4.985821e+12
5.867504e+12
6.691e+12
7.441754e+12
8.06504e+12
8.558387e+12
8.934007e+12
9.206047e+12
9.383168e+12
9.470948e+12
9.471297e+12
9.384353e+12
9.207738e+12
8.935609e+12
8.559557e+12
8.066087e+12
7.443182e+12
6.692754e+12
5.869189e+12
4.986969e+12
4.046939e+12
2.835579e+12
2.026321e+12
1.551364e+12
1.036023e+12
1.024464e+12
1.536673e+12
2.002746e+12
2.799919e+12
3.981529e+12
4.9002e+12
5.781009e+12
6.568848e+12
7.316065e+12
7.952723e+12
8.456688e+12
8.83916e+12
9.114857e+12
9.294076e+12
9.383025e+12
9.383749e+12
9.296065e+12
9.11736e+12
8.841506e+12
8.458655e+12
7.954492e+12
7.317944e+12
6.570825e+12
5.782771e+12
4.901637e+12
3.982344e+12
2.799985e+12
2.002965e+12
1.536784e+12
1.024597e+12
9.950137e+11
1.504913e+12
1.953168e+12
2.731395e+12
3.851034e+12
4.727806e+12
5.569635e+12
6.356973e+12
7.083584e+12
7.732697e+12
8.252562e+12
8.646754e+12
8.930187e+12
9.11424e+12
9.205479e+12
9.206178e+12
9.116247e+12
8.932971e+12
8.649759e+12
8.255411e+12
7.735234e+12
7.085838e+12
6.359002e+12
5.571319e+12
4.729376e+12
3.852195e+12
2.731378e+12
1.953453e+12
1.505176e+12
9.951925e+11
8.781753e+11
1.450996e+12
1.872812e+12
2.628789e+12
3.629824e+12
4.473727e+12
5.273158e+12
6.058761e+12
6.752947e+12
7.405254e+12
7.942653e+12
8.351102e+12
8.64584e+12
8.837763e+12
8.932928e+12
8.933577e+12
8.839716e+12
8.648802e+12
8.354647e+12
7.946303e+12
7.408569e+12
6.755684e+12
6.061073e+12
5.275241e+12
4.475342e+12
3.631198e+12
2.628502e+12
1.873073e+12
1.451581e+12
8.783021e+11
1.151837e+12
1.699925e+12
2.452813e+12
3.156513e+12
4.131598e+12
4.906218e+12
5.658692e+12
6.356064e+12
6.98383e+12
7.522874e+12
7.941772e+12
8.251019e+12
8.454939e+12
8.556946e+12
8.557633e+12
8.45699e+12
8.254235e+12
7.945794e+12
7.527205e+12
6.987892e+12
6.359431e+12
5.661552e+12
4.908639e+12
4.133141e+12
3.158122e+12
2.45228e+12
1.699999e+12
1.152163e+12
1.051592e+12
1.541545e+12
2.10715e+12
2.856559e+12
3.737424e+12
4.476926e+12
5.185546e+12
5.874882e+12
6.463337e+12
6.983254e+12
7.404076e+12
7.7313e+12
7.951503e+12
8.064136e+12
8.064846e+12
7.95357e+12
7.734538e+12
7.408195e+12
6.98785e+12
6.467814e+12
5.878728e+12
5.188787e+12
4.479392e+12
3.738757e+12
2.857991e+12
2.107141e+12
1.541877e+12
1.05216e+12
8.762749e+11
1.406955e+12
1.79892e+12
2.497493e+12
3.128374e+12
3.950538e+12
4.637902e+12
5.285474e+12
5.874827e+12
6.355632e+12
6.752294e+12
7.083151e+12
7.316209e+12
7.442429e+12
7.443095e+12
7.31802e+12
7.085904e+12
6.755803e+12
6.35972e+12
5.878967e+12
5.289163e+12
4.640996e+12
3.952742e+12
3.129176e+12
2.498672e+12
1.798884e+12
1.406956e+12
8.770823e+11
9.670019e+11
1.512835e+12
1.991847e+12
2.680013e+12
3.233016e+12
4.014639e+12
4.638289e+12
5.185951e+12
5.658953e+12
6.059001e+12
6.357644e+12
6.570249e+12
6.693032e+12
6.693568e+12
6.571609e+12
6.359576e+12
6.061467e+12
5.661941e+12
5.188998e+12
4.641081e+12
4.017055e+12
3.234798e+12
2.681372e+12
1.99247e+12
1.513099e+12
9.674081e+11
1.126178e+12
1.601372e+12
2.072709e+12
2.723021e+12
3.233194e+12
3.95139e+12
4.47803e+12
4.907323e+12
5.274047e+12
5.570899e+12
5.783054e+12
5.870454e+12
5.870754e+12
5.783831e+12
5.572107e+12
5.275693e+12
4.909023e+12
4.479748e+12
3.953062e+12
3.23469e+12
2.7241e+12
2.07332e+12
1.601538e+12
1.126264e+12
9.061251e+11
1.379252e+12
1.65339e+12
2.072831e+12
2.681145e+12
3.129284e+12
3.738208e+12
4.132665e+12
4.47494e+12
4.729399e+12
4.902269e+12
4.988488e+12
4.988628e+12
4.902795e+12
4.730063e+12
4.475768e+12
4.133713e+12
3.73952e+12
3.13032e+12
2.681897e+12
2.073387e+12
1.653653e+12
1.379332e+12
9.060446e+11
9.144405e+11
1.379357e+12
1.601842e+12
1.992076e+12
2.497688e+12
2.856638e+12
3.157485e+12
3.630821e+12
3.852096e+12
3.982769e+12
4.047837e+12
4.047862e+12
3.983307e+12
3.852953e+12
3.631707e+12
3.158124e+12
2.857883e+12
2.498953e+12
1.992866e+12
1.602091e+12
1.379523e+12
9.144944e+11
9.061913e+11
1.126684e+12
1.512968e+12
1.798942e+12
2.106875e+12
2.452512e+12
2.628269e+12
2.730828e+12
2.79964e+12
2.836628e+12
2.836354e+12
2.800483e+12
2.732126e+12
2.629629e+12
2.45376e+12
2.107868e+12
1.799512e+12
1.513389e+12
1.126607e+12
9.062786e+11
9.672361e+11
1.40665e+12
1.541583e+12
1.699755e+12
1.872474e+12
1.952754e+12
2.002442e+12
2.026468e+12
2.026106e+12
2.00276e+12
1.95318e+12
1.872911e+12
1.699963e+12
1.541588e+12
1.407324e+12
9.672226e+11
8.76332e+11
1.051735e+12
1.151664e+12
1.450908e+12
1.504507e+12
1.53631e+12
1.551841e+12
1.551696e+12
1.536268e+12
1.504419e+12
1.451073e+12
1.151622e+12
1.051536e+12
8.766838e+11
8.778405e+11
9.945788e+11
1.02402e+12
1.035922e+12
1.035824e+12
1.023879e+12
9.943044e+11
8.772038e+11
7.786121e+11
8.775083e+11
8.99611e+11
8.993517e+11
8.767117e+11
7.780524e+11
7.484212e+11
9.305514e+11
1.041232e+12
1.167294e+12
1.44994e+12
1.511255e+12
1.534846e+12
1.534261e+12
1.509747e+12
1.448163e+12
1.166898e+12
1.04108e+12
9.302677e+11
7.48512e+11
7.544887e+11
9.767957e+11
1.356569e+12
1.587242e+12
1.789921e+12
2.080612e+12
2.241493e+12
2.308308e+12
2.340887e+12
2.340142e+12
2.306424e+12
2.239703e+12
2.080009e+12
1.789159e+12
1.586073e+12
1.356111e+12
9.768668e+11
7.549584e+11
8.440409e+11
1.310514e+12
1.640122e+12
2.105506e+12
2.37682e+12
2.645655e+12
2.886609e+12
3.287162e+12
3.441489e+12
3.5031e+12
3.502449e+12
3.439779e+12
3.285097e+12
2.884901e+12
2.643791e+12
2.375269e+12
2.103542e+12
1.639943e+12
1.310248e+12
8.446199e+11
9.043661e+11
1.45575e+12
1.893109e+12
2.420932e+12
2.839826e+12
3.41656e+12
3.790934e+12
4.078539e+12
4.319156e+12
4.466958e+12
4.535189e+12
4.534671e+12
4.465562e+12
4.317307e+12
4.076782e+12
3.789564e+12
3.415612e+12
2.839044e+12
2.419617e+12
1.892898e+12
1.455382e+12
9.045672e+11
9.37952e+11
1.57433e+12
2.180376e+12
2.647365e+12
3.108911e+12
3.863657e+12
4.405431e+12
4.833414e+12
5.13744e+12
5.368198e+12
5.517957e+12
5.590679e+12
5.590314e+12
5.516982e+12
5.366901e+12
5.136125e+12
4.832238e+12
4.404584e+12
3.863416e+12
3.108784e+12
2.646501e+12
2.179566e+12
1.573791e+12
9.37802e+11
9.046347e+11
1.574571e+12
2.277421e+12
2.819103e+12
3.584335e+12
4.217698e+12
4.851593e+12
5.380989e+12
5.821101e+12
6.192324e+12
6.465296e+12
6.639666e+12
6.724632e+12
6.724428e+12
6.639184e+12
6.464803e+12
6.192071e+12
5.821152e+12
5.381167e+12
4.851779e+12
4.217515e+12
3.584043e+12
2.818577e+12
2.275908e+12
1.574001e+12
9.044252e+11
8.445019e+11
1.456e+12
2.181319e+12
2.819301e+12
3.677631e+12
4.430306e+12
5.129998e+12
5.749201e+12
6.32915e+12
6.821574e+12
7.22635e+12
7.526085e+12
7.720627e+12
7.815804e+12
7.815697e+12
7.72043e+12
7.525934e+12
7.226465e+12
6.82205e+12
6.329814e+12
5.749825e+12
5.130358e+12
4.430442e+12
3.677322e+12
2.818774e+12
2.180347e+12
1.455565e+12
8.442236e+11
7.548751e+11
1.310846e+12
1.894383e+12
2.64815e+12
3.585284e+12
4.431014e+12
5.226017e+12
5.933528e+12
6.619432e+12
7.243125e+12
7.769692e+12
8.19756e+12
8.520689e+12
8.732555e+12
8.833357e+12
8.833146e+12
8.732065e+12
8.520228e+12
8.19749e+12
7.770158e+12
7.24397e+12
6.620358e+12
5.93419e+12
5.226182e+12
4.43079e+12
3.584658e+12
2.647429e+12
1.893897e+12
1.310384e+12
7.545855e+11
9.773409e+11
1.64144e+12
2.421405e+12
3.111181e+12
4.219447e+12
5.131637e+12
5.934513e+12
6.71393e+12
7.44427e+12
8.095005e+12
8.648591e+12
9.096592e+12
9.435933e+12
9.664365e+12
9.780961e+12
9.780634e+12
9.663495e+12
9.434854e+12
9.095767e+12
8.648273e+12
8.09526e+12
7.444942e+12
6.71461e+12
5.934918e+12
5.13146e+12
4.218939e+12
3.110431e+12
2.420943e+12
1.640964e+12
9.772753e+11
7.490513e+11
1.35701e+12
2.105815e+12
2.84148e+12
3.866733e+12
4.854445e+12
5.752099e+12
6.62181e+12
7.445645e+12
8.201631e+12
8.872804e+12
9.445364e+12
9.913357e+12
1.027784e+13
1.052803e+13
1.065669e+13
1.065618e+13
1.052665e+13
1.027598e+13
9.911568e+12
9.44398e+12
8.872083e+12
8.201558e+12
7.445883e+12
6.622055e+12
5.752059e+12
4.85399e+12
3.865994e+12
2.83987e+12
2.105483e+12
1.356742e+12
7.494428e+11
9.304792e+11
1.587527e+12
2.377531e+12
3.419616e+12
4.408958e+12
5.384957e+12
6.333202e+12
7.246834e+12
8.097673e+12
8.874062e+12
9.562293e+12
1.016192e+13
1.065615e+13
1.103764e+13
1.129638e+13
1.14274e+13
1.142679e+13
1.129473e+13
1.103543e+13
1.065399e+13
1.016025e+13
9.561435e+12
8.874033e+12
8.098153e+12
7.247503e+12
6.333694e+12
5.384888e+12
4.408565e+12
3.417998e+12
2.37641e+12
1.587137e+12
9.307046e+11
1.041744e+12
1.791012e+12
2.647821e+12
3.795066e+12
4.837523e+12
5.826169e+12
6.826666e+12
7.774285e+12
8.652005e+12
9.447307e+12
1.016247e+13
1.078664e+13
1.129614e+13
1.168259e+13
1.194157e+13
1.207139e+13
1.207094e+13
1.194042e+13
1.168125e+13
1.129519e+13
1.078651e+13
1.016335e+13
9.449111e+12
8.654305e+12
7.776518e+12
6.828335e+12
5.826898e+12
4.837684e+12
3.793506e+12
2.645919e+12
1.789668e+12
1.041148e+12
1.168251e+12
2.083569e+12
2.89069e+12
4.083583e+12
5.142616e+12
6.198239e+12
7.232167e+12
8.202636e+12
9.100572e+12
9.915878e+12
1.065709e+13
1.129633e+13
1.181156e+13
1.219743e+13
1.24538e+13
1.258167e+13
1.258162e+13
1.245371e+13
1.21977e+13
1.18127e+13
1.129863e+13
1.066058e+13
9.92019e+12
9.105058e+12
8.206549e+12
7.234996e+12
6.19973e+12
5.143027e+12
4.082118e+12
2.8881e+12
2.080463e+12
1.166951e+12
7.793051e+11
1.450806e+12
2.244814e+12
3.292128e+12
4.324964e+12
5.374454e+12
6.47203e+12
7.532444e+12
8.52627e+12
9.440757e+12
1.028139e+13
1.103951e+13
1.168338e+13
1.219779e+13
1.258063e+13
1.2834e+13
1.296018e+13
1.296036e+13
1.283463e+13
1.258205e+13
1.220024e+13
1.168675e+13
1.104345e+13
1.028558e+13
9.444959e+12
8.530034e+12
7.535085e+12
6.473219e+12
5.374475e+12
4.323332e+12
3.289216e+12
2.24168e+12
1.449165e+12
7.78381e+11
8.775445e+11
1.512382e+12
2.311459e+12
3.446704e+12
4.47333e+12
5.525166e+12
6.647334e+12
7.727817e+12
8.739093e+12
9.670538e+12
1.053318e+13
1.129982e+13
1.194355e+13
1.245495e+13
1.283447e+13
1.308524e+13
1.320996e+13
1.321001e+13
1.308546e+13
1.283507e+13
1.245607e+13
1.194529e+13
1.130211e+13
1.053589e+13
9.673529e+12
8.741975e+12
7.729618e+12
6.647612e+12
5.524425e+12
4.47155e+12
3.444092e+12
2.30894e+12
1.510916e+12
8.772725e+11
9.000641e+11
1.536423e+12
2.34406e+12
3.508704e+12
4.542228e+12
5.598712e+12
6.733154e+12
7.823939e+12
8.840954e+12
9.788487e+12
1.066369e+13
1.14328e+13
1.2075e+13
1.258388e+13
1.296138e+13
1.321083e+13
1.333497e+13
1.333513e+13
1.321137e+13
1.296234e+13
1.258516e+13
1.207653e+13
1.143467e+13
1.066594e+13
9.791248e+12
8.843616e+12
7.82535e+12
6.732927e+12
5.59743e+12
4.540288e+12
3.506515e+12
2.342522e+12
1.535526e+12
8.998642e+11
9.000923e+11
1.536585e+12
2.344461e+12
3.508812e+12
4.542346e+12
5.598903e+12
6.733503e+12
7.824591e+12
8.841743e+12
9.789182e+12
1.066445e+13
1.143399e+13
1.207617e+13
1.258443e+13
1.296139e+13
1.321076e+13
1.33352e+13
1.333583e+13
1.32125e+13
1.296374e+13
1.258665e+13
1.207796e+13
1.143596e+13
1.066707e+13
9.792277e+12
8.844584e+12
7.826265e+12
6.733683e+12
5.598004e+12
4.540838e+12
3.507053e+12
2.343042e+12
1.535936e+12
9.00157e+11
8.780234e+11
1.51266e+12
2.311509e+12
3.446637e+12
4.47354e+12
5.52566e+12
6.648228e+12
7.729593e+12
8.74132e+12
9.672711e+12
1.053555e+13
1.130248e+13
1.194602e+13
1.24566e+13
1.283513e+13
1.308533e+13
1.32103e+13
1.321121e+13
1.30877e+13
1.283814e+13
1.245959e+13
1.194883e+13
1.130535e+13
1.05387e+13
9.675997e+12
8.744312e+12
7.731847e+12
6.649423e+12
5.525879e+12
4.473317e+12
3.44609e+12
2.310937e+12
1.512496e+12
8.781724e+11
7.799811e+11
1.450307e+12
2.243987e+12
3.291673e+12
4.325046e+12
5.375127e+12
6.473162e+12
7.534633e+12
8.529261e+12
9.444055e+12
1.028483e+13
1.104295e+13
1.168627e+13
1.219966e+13
1.258136e+13
1.283397e+13
1.296011e+13
1.296089e+13
1.283616e+13
1.258452e+13
1.220334e+13
1.169012e+13
1.104675e+13
1.028847e+13
9.447386e+12
8.532229e+12
7.537232e+12
6.475123e+12
5.376251e+12
4.326065e+12
3.292406e+12
2.244562e+12
1.450829e+12
7.801883e+11
1.168232e+12
2.082049e+12
2.890223e+12
4.083607e+12
5.143454e+12
6.199258e+12
7.234041e+12
8.205301e+12
9.103871e+12
9.919402e+12
1.066037e+13
1.129885e+13
1.181311e+13
1.219816e+13
1.245419e+13
1.258234e+13
1.258311e+13
1.245645e+13
1.220169e+13
1.181758e+13
1.130377e+13
1.06652e+13
9.923771e+12
9.10769e+12
8.208635e+12
7.236905e+12
6.201656e+12
5.144949e+12
4.085294e+12
2.891498e+12
2.083526e+12
1.168618e+12
1.041735e+12
1.790892e+12
2.647684e+12
3.794835e+12
4.838357e+12
5.82689e+12
6.828034e+12
7.776051e+12
8.654311e+12
9.449837e+12
1.016472e+13
1.078838e+13
1.129745e+13
1.168383e+13
1.194322e+13
1.207391e+13
1.207482e+13
1.194592e+13
1.168813e+13
1.130298e+13
1.079454e+13
1.017079e+13
9.45526e+12
8.659023e+12
7.780021e+12
6.83125e+12
5.82969e+12
4.839996e+12
3.796837e+12
2.648857e+12
1.791523e+12
1.041854e+12
9.311726e+11
1.588278e+12
2.378281e+12
3.41938e+12
4.40948e+12
5.385722e+12
6.334365e+12
7.248026e+12
8.099094e+12
8.87566e+12
9.56394e+12
1.016379e+13
1.065855e+13
1.10409e+13
1.130083e+13
1.14332e+13
1.14342e+13
1.130379e+13
1.104561e+13
1.066466e+13
1.017073e+13
9.570959e+12
8.882039e+12
8.104581e+12
7.252504e+12
6.337852e+12
5.388766e+12
4.411518e+12
3.42152e+12
2.37869e+12
1.588241e+12
9.3091e+11
7.496747e+11
1.357584e+12
2.107397e+12
2.841353e+12
3.866713e+12
4.855145e+12
5.753189e+12
6.623035e+12
7.44717e+12
8.203717e+12
8.87563e+12
9.449221e+12
9.918572e+12
1.028452e+13
1.053622e+13
1.066628e+13
1.066719e+13
1.053887e+13
1.028871e+13
9.924087e+12
9.455654e+12
8.882311e+12
8.21003e+12
7.452766e+12
6.627635e+12
5.756793e+12
4.858405e+12
3.869139e+12
2.843428e+12
2.106645e+12
1.35774e+12
7.494551e+11
9.77669e+11
1.64164e+12
2.422483e+12
3.110654e+12
4.220388e+12
5.132907e+12
5.936346e+12
6.716528e+12
7.447959e+12
8.099963e+12
8.654989e+12
9.104653e+12
9.4456e+12
9.675488e+12
9.793251e+12
9.793942e+12
9.67746e+12
9.448695e+12
9.10876e+12
8.659864e+12
8.105131e+12
7.453042e+12
6.721302e+12
5.940584e+12
5.136543e+12
4.223309e+12
3.113125e+12
2.423327e+12
1.641982e+12
9.776969e+11
7.548807e+11
1.311477e+12
1.895081e+12
2.64995e+12
3.587157e+12
4.433046e+12
5.228757e+12
5.937312e+12
6.624633e+12
7.24981e+12
7.77788e+12
8.207276e+12
8.531896e+12
8.745077e+12
8.846792e+12
8.847236e+12
8.746376e+12
8.533969e+12
8.210057e+12
7.781182e+12
7.253417e+12
6.628336e+12
5.94094e+12
5.232013e+12
4.435617e+12
3.588803e+12
2.650626e+12
1.895351e+12
1.311703e+12
7.553228e+11
8.445149e+11
1.457122e+12
2.183035e+12
2.820849e+12
3.67968e+12
4.433476e+12
5.134442e+12
5.755073e+12
6.336275e+12
6.830197e+12
7.236457e+12
7.537505e+12
7.73314e+12
7.828959e+12
7.829222e+12
7.734022e+12
7.538923e+12
7.238371e+12
6.832627e+12
6.339109e+12
5.757925e+12
5.137152e+12
4.435979e+12
3.681661e+12
2.822234e+12
2.182889e+12
1.457109e+12
8.448917e+11
9.048295e+11
1.575312e+12
2.279645e+12
2.820639e+12
3.587685e+12
4.221806e+12
4.856852e+12
5.387332e+12
5.828888e+12
6.201384e+12
6.475444e+12
6.6508e+12
6.736411e+12
6.736531e+12
6.651512e+12
6.476724e+12
6.20311e+12
5.831038e+12
5.389836e+12
4.859147e+12
4.223691e+12
3.589449e+12
2.821979e+12
2.280224e+12
1.575621e+12
9.049299e+11
9.381333e+11
1.57525e+12
2.183384e+12
2.650515e+12
3.112658e+12
3.868498e+12
4.410919e+12
4.839712e+12
5.144835e+12
5.376579e+12
5.527384e+12
5.601171e+12
5.601081e+12
5.527943e+12
5.377696e+12
5.146399e+12
4.84176e+12
4.412851e+12
3.86988e+12
3.113083e+12
2.651496e+12
2.184165e+12
1.575747e+12
9.382791e+11
9.045546e+11
1.456664e+12
1.89577e+12
2.423285e+12
2.842019e+12
3.420479e+12
3.796144e+12
4.085061e+12
4.326555e+12
4.475101e+12
4.543835e+12
4.543572e+12
4.475077e+12
4.326776e+12
4.085589e+12
3.797338e+12