/*--------------------------------*- C++ -*----------------------------------*\
  =========                 |
  \\      /  F ield         | OpenFOAM: The Open Source CFD Toolbox
   \\    /   O peration     | Website:  https://openfoam.org
    \\  /    A nd           | Version:  6
     \\/     M anipulation  |
\*---------------------------------------------------------------------------*/
FoamFile
{
    version     2.0;
    format      ascii;
    class       volScalarField;
    location    "49.8/region0/neutronTransport";
    object      precursor1.dnp;
}
// * * * * * * * * * * * * * * * * * * * * * * * * * * * * * * * * * * * * * //

dimensions      [0 -3 0 0 0 0 0];

internalField   nonuniform List<scalar> 
203709
(
1.21722e+15
1.339205e+15
1.339061e+15
1.217532e+15
1.272058e+15
1.424053e+15
1.762968e+15
1.744427e+15
1.744236e+15
1.76292e+15
1.423956e+15
1.272212e+15
1.242799e+15
1.429077e+15
1.785902e+15
1.780828e+15
1.831492e+15
1.844136e+15
1.844086e+15
1.831432e+15
1.780712e+15
1.785958e+15
1.429159e+15
1.243038e+15
1.242767e+15
1.735812e+15
1.772871e+15
1.84247e+15
1.878678e+15
1.91051e+15
1.924612e+15
1.924691e+15
1.910495e+15
1.878668e+15
1.842681e+15
1.773215e+15
1.73639e+15
1.243324e+15
1.428804e+15
1.772675e+15
1.852814e+15
1.909711e+15
1.952831e+15
1.983998e+15
1.999524e+15
1.99962e+15
1.98405e+15
1.953003e+15
1.910108e+15
1.853341e+15
1.773359e+15
1.429449e+15
1.27183e+15
1.785483e+15
1.842193e+15
1.909555e+15
1.968167e+15
2.014442e+15
2.046577e+15
2.062556e+15
2.062624e+15
2.046774e+15
2.014829e+15
1.968633e+15
1.910178e+15
1.843019e+15
1.786469e+15
1.27246e+15
1.423547e+15
1.780206e+15
1.878152e+15
1.952415e+15
2.014266e+15
2.062358e+15
2.094431e+15
2.109645e+15
2.109727e+15
2.094748e+15
2.062754e+15
2.014743e+15
1.953114e+15
1.878953e+15
1.780994e+15
1.424271e+15
1.217276e+15
1.762664e+15
1.831041e+15
1.91003e+15
1.983644e+15
2.046337e+15
2.09436e+15
2.124195e+15
2.138985e+15
2.138983e+15
2.124242e+15
2.094347e+15
2.046471e+15
1.983957e+15
1.910497e+15
1.831637e+15
1.763479e+15
1.217507e+15
1.338844e+15
1.743991e+15
1.843614e+15
1.924178e+15
1.999112e+15
2.062185e+15
2.109539e+15
2.139106e+15
2.155203e+15
2.154736e+15
2.139029e+15
2.109612e+15
2.062457e+15
1.999447e+15
1.924579e+15
1.84421e+15
1.744571e+15
1.339284e+15
1.338986e+15
1.744336e+15
1.843799e+15
1.92418e+15
1.999048e+15
2.062083e+15
2.109374e+15
2.139045e+15
2.155594e+15
2.155141e+15
2.139131e+15
2.109643e+15
2.062424e+15
1.999471e+15
1.924598e+15
1.844231e+15
1.744789e+15
1.339516e+15
1.216979e+15
1.763015e+15
1.831204e+15
1.910048e+15
1.983529e+15
2.046116e+15
2.094099e+15
2.124087e+15
2.139125e+15
2.139106e+15
2.124388e+15
2.094559e+15
2.046568e+15
1.983988e+15
1.910484e+15
1.831621e+15
1.763309e+15
1.217582e+15
1.423538e+15
1.780268e+15
1.878157e+15
1.952345e+15
2.013991e+15
2.062016e+15
2.094093e+15
2.109486e+15
2.109466e+15
2.094533e+15
2.062536e+15
2.014539e+15
1.952819e+15
1.878574e+15
1.78075e+15
1.424114e+15
1.271777e+15
1.785451e+15
1.841961e+15
1.90925e+15
1.967718e+15
2.013997e+15
2.04604e+15
2.062243e+15
2.062265e+15
2.046505e+15
2.014551e+15
1.96839e+15
1.909918e+15
1.842613e+15
1.786065e+15
1.272235e+15
1.428631e+15
1.772318e+15
1.852408e+15
1.909271e+15
1.952348e+15
1.983601e+15
2.000057e+15
2.000102e+15
1.983867e+15
1.952814e+15
1.909878e+15
1.853131e+15
1.773196e+15
1.4293e+15
1.242638e+15
1.735591e+15
1.772446e+15
1.842057e+15
1.878158e+15
1.910103e+15
1.925051e+15
1.925127e+15
1.910327e+15
1.878541e+15
1.842502e+15
1.772963e+15
1.736243e+15
1.242948e+15
1.242758e+15
1.428815e+15
1.785553e+15
1.780263e+15
1.831222e+15
1.8444e+15
1.844605e+15
1.831425e+15
1.78068e+15
1.78589e+15
1.428961e+15
1.242909e+15
1.271996e+15
1.423739e+15
1.762985e+15
1.745119e+15
1.745412e+15
1.76316e+15
1.423909e+15
1.272045e+15
1.217428e+15
1.33923e+15
1.339352e+15
1.217448e+15
1.019966e+15
1.15937e+15
1.206597e+15
1.239011e+15
1.259282e+15
1.259299e+15
1.23907e+15
1.206684e+15
1.159524e+15
1.020226e+15
1.040321e+15
1.212205e+15
1.544052e+15
1.594472e+15
1.652022e+15
1.715401e+15
1.76557e+15
1.765605e+15
1.715587e+15
1.65204e+15
1.594257e+15
1.543721e+15
1.211855e+15
1.040066e+15
1.064817e+15
1.518563e+15
1.603897e+15
1.727283e+15
1.844341e+15
1.941756e+15
2.067555e+15
2.171337e+15
2.171339e+15
2.067615e+15
1.941385e+15
1.843781e+15
1.726966e+15
1.603704e+15
1.518764e+15
1.064983e+15
1.075346e+15
1.546989e+15
1.686037e+15
1.837836e+15
1.995218e+15
2.219247e+15
2.496685e+15
2.772468e+15
2.871458e+15
2.871391e+15
2.772052e+15
2.496263e+15
2.218994e+15
1.99517e+15
1.837885e+15
1.686181e+15
1.54705e+15
1.075577e+15
1.064774e+15
1.546827e+15
1.703078e+15
1.880905e+15
2.176357e+15
2.532524e+15
2.915775e+15
3.197629e+15
3.407437e+15
3.748127e+15
3.747965e+15
3.407222e+15
3.197249e+15
2.915254e+15
2.532398e+15
2.176199e+15
1.881053e+15
1.703175e+15
1.546939e+15
1.065001e+15
1.040416e+15
1.519005e+15
1.686157e+15
1.881027e+15
2.285413e+15
2.825449e+15
3.196254e+15
3.501255e+15
3.991952e+15
4.211674e+15
4.341309e+15
4.341081e+15
4.211074e+15
3.991143e+15
3.500557e+15
3.195606e+15
2.824822e+15
2.285215e+15
1.880936e+15
1.686267e+15
1.519239e+15
1.040714e+15
1.212002e+15
1.603884e+15
1.837862e+15
2.176337e+15
2.825242e+15
3.34354e+15
3.932862e+15
4.259228e+15
4.514214e+15
4.671639e+15
4.751759e+15
4.751552e+15
4.671039e+15
4.513495e+15
4.258576e+15
3.932332e+15
3.343345e+15
2.825414e+15
2.176589e+15
1.838388e+15
1.604519e+15
1.21251e+15
1.020336e+15
1.544028e+15
1.727019e+15
1.995093e+15
2.532257e+15
3.196191e+15
3.932609e+15
4.375589e+15
4.661576e+15
4.859468e+15
4.985179e+15
5.047211e+15
5.047132e+15
4.984946e+15
4.859348e+15
4.6617e+15
4.37601e+15
3.933446e+15
3.197429e+15
2.53366e+15
1.996303e+15
1.727948e+15
1.544559e+15
1.020475e+15
1.159704e+15
1.59483e+15
1.844083e+15
2.219294e+15
2.916181e+15
3.501416e+15
4.258971e+15
4.661402e+15
4.92101e+15
5.096306e+15
5.207257e+15
5.261436e+15
5.261517e+15
5.207512e+15
5.096855e+15
4.92187e+15
4.662623e+15
4.260538e+15
3.503122e+15
2.917831e+15
2.220293e+15
1.845093e+15
1.595321e+15
1.159886e+15
1.206913e+15
1.652544e+15
1.941626e+15
2.496447e+15
3.198323e+15
3.99217e+15
4.513972e+15
4.859175e+15
5.096177e+15
5.259019e+15
5.362527e+15
5.41327e+15
5.413434e+15
5.36305e+15
5.259884e+15
5.097311e+15
4.86055e+15
4.515404e+15
3.993392e+15
3.19895e+15
2.497703e+15
1.942663e+15
1.652857e+15
1.207059e+15
1.239273e+15
1.716053e+15
2.068129e+15
2.773267e+15
3.408521e+15
4.21235e+15
4.671713e+15
4.985034e+15
5.207153e+15
5.36251e+15
5.461348e+15
5.509844e+15
5.509781e+15
5.461319e+15
5.362525e+15
5.207346e+15
4.985471e+15
4.672331e+15
4.212975e+15
3.408995e+15
2.774058e+15
2.068643e+15
1.716351e+15
1.239576e+15
1.25937e+15
1.765917e+15
2.171717e+15
2.872521e+15
3.749584e+15
4.342511e+15
4.752346e+15
5.047367e+15
5.261414e+15
5.413379e+15
5.510275e+15
5.558153e+15
5.557889e+15
5.510216e+15
5.413553e+15
5.2618e+15
5.047848e+15
4.752891e+15
4.343076e+15
3.750198e+15
2.8733e+15
2.172533e+15
1.766532e+15
1.25984e+15
1.259155e+15
1.765589e+15
2.171391e+15
2.872338e+15
3.749716e+15
4.342819e+15
4.752795e+15
5.047622e+15
5.261381e+15
5.413191e+15
5.510262e+15
5.55857e+15
5.558509e+15
5.510815e+15
5.414141e+15
5.262339e+15
5.048332e+15
4.753326e+15
4.343507e+15
3.750569e+15
2.873228e+15
2.172304e+15
1.766331e+15
1.259704e+15
1.238741e+15
1.715601e+15
2.068166e+15
2.773596e+15
3.408649e+15
4.212979e+15
4.672451e+15
4.985516e+15
5.207238e+15
5.362305e+15
5.461269e+15
5.510306e+15
5.510673e+15
5.462518e+15
5.36391e+15
5.208705e+15
4.986691e+15
4.673414e+15
4.213991e+15
3.409833e+15
2.774563e+15
2.069097e+15
1.71651e+15
1.239398e+15
1.206464e+15
1.652355e+15
1.942112e+15
2.497119e+15
3.198651e+15
3.992874e+15
4.514678e+15
4.859579e+15
5.096138e+15
5.258659e+15
5.3621e+15
5.413135e+15
5.413548e+15
5.363505e+15
5.260541e+15
5.098069e+15
4.861308e+15
4.516138e+15
3.994162e+15
3.19997e+15
2.497905e+15
1.9428e+15
1.653368e+15
1.207203e+15
1.15941e+15
1.594788e+15
1.84458e+15
2.219538e+15
2.916876e+15
3.502041e+15
4.259417e+15
4.661469e+15
4.920672e+15
5.095768e+15
5.206714e+15
5.261163e+15
5.261542e+15
5.208052e+15
5.097734e+15
4.922931e+15
4.663695e+15
4.261314e+15
3.503262e+15
2.917764e+15
2.220559e+15
1.845223e+15
1.595736e+15
1.160115e+15
1.020072e+15
1.544063e+15
1.727365e+15
1.995231e+15
2.532867e+15
3.196575e+15
3.93274e+15
4.375375e+15
4.661127e+15
4.858965e+15
4.984903e+15
5.047206e+15
5.047584e+15
4.986126e+15
4.860886e+15
4.66347e+15
4.377827e+15
3.93488e+15
3.197893e+15
2.533736e+15
1.996215e+15
1.72794e+15
1.544839e+15
1.020702e+15
1.212277e+15
1.60395e+15
1.837727e+15
2.17634e+15
2.825307e+15
3.343337e+15
3.932544e+15
4.258984e+15
4.514125e+15
4.672014e+15
4.752352e+15
4.752735e+15
4.673128e+15
4.515867e+15
4.261108e+15
3.934827e+15
3.345292e+15
2.826616e+15
2.177258e+15
1.838756e+15
1.604477e+15
1.212416e+15
1.040625e+15
1.518778e+15
1.685988e+15
1.880912e+15
2.28536e+15
2.825338e+15
3.196542e+15
3.501927e+15
3.99279e+15
4.213138e+15
4.34307e+15
4.343489e+15
4.214075e+15
3.994116e+15
3.503269e+15
3.198093e+15
2.826852e+15
2.286379e+15
1.881683e+15
1.686849e+15
1.519322e+15
1.040445e+15
1.065037e+15
1.547309e+15
1.703386e+15
1.880938e+15
2.176384e+15
2.532981e+15
2.91714e+15
3.199253e+15
3.409391e+15
3.750348e+15
3.750746e+15
3.41005e+15
3.199847e+15
2.917612e+15
2.533826e+15
2.177236e+15
1.881597e+15
1.70389e+15
1.547772e+15
1.065088e+15
1.07569e+15
1.547274e+15
1.686266e+15
1.838292e+15
1.995792e+15
2.219648e+15
2.497516e+15
2.77441e+15
2.873481e+15
2.873619e+15
2.774378e+15
2.497689e+15
2.220173e+15
1.995985e+15
1.838439e+15
1.686475e+15
1.547541e+15
1.075817e+15
1.064828e+15
1.519129e+15
1.604326e+15
1.727555e+15
1.844632e+15
1.942593e+15
2.068913e+15
2.172648e+15
2.172653e+15
2.068843e+15
1.942325e+15
1.844735e+15
1.727828e+15
1.60444e+15
1.51911e+15
1.064844e+15
1.040738e+15
1.212424e+15
1.544446e+15
1.595302e+15
1.653086e+15
1.716491e+15
1.766646e+15
1.766667e+15
1.716469e+15
1.652907e+15
1.595102e+15
1.544675e+15
1.212578e+15
1.040716e+15
1.020256e+15
1.159648e+15
1.206795e+15
1.239166e+15
1.259531e+15
1.259521e+15
1.239378e+15
1.207021e+15
1.159781e+15
1.020202e+15
8.644438e+14
9.801661e+14
1.009167e+15
1.020326e+15
1.020102e+15
1.008498e+15
9.789702e+14
8.634872e+14
8.634905e+14
1.035711e+15
1.134216e+15
1.428758e+15
1.482193e+15
1.513462e+15
1.527704e+15
1.527483e+15
1.512761e+15
1.481071e+15
1.428239e+15
1.133947e+15
1.035581e+15
8.637958e+14
9.523017e+14
1.385268e+15
1.517924e+15
1.673885e+15
1.844458e+15
1.923667e+15
1.972354e+15
1.995211e+15
1.995021e+15
1.971788e+15
1.92278e+15
1.843534e+15
1.673407e+15
1.517624e+15
1.385168e+15
9.527984e+14
8.923484e+14
1.109124e+15
1.489971e+15
1.771256e+15
2.074925e+15
2.415269e+15
2.588497e+15
2.689428e+15
2.756615e+15
2.791461e+15
2.791242e+15
2.755999e+15
2.688522e+15
2.587495e+15
2.414428e+15
2.074372e+15
1.771245e+15
1.489775e+15
1.109292e+15
8.924041e+14
9.00777e+14
1.358155e+15
1.576922e+15
1.961825e+15
2.459739e+15
2.812717e+15
3.107999e+15
3.573823e+15
3.791447e+15
3.919636e+15
3.98345e+15
3.983264e+15
3.919181e+15
3.790907e+15
3.573505e+15
3.108258e+15
2.813149e+15
2.459907e+15
1.961604e+15
1.577244e+15
1.35812e+15
9.008522e+14
8.923145e+14
1.358432e+15
1.628396e+15
2.041362e+15
2.639725e+15
3.080517e+15
3.680113e+15
4.068049e+15
4.404569e+15
4.654516e+15
4.824051e+15
4.908631e+15
4.908447e+15
4.823658e+15
4.653828e+15
4.403865e+15
4.067705e+15
3.679995e+15
3.08049e+15
2.639874e+15
2.041662e+15
1.628203e+15
1.358272e+15
8.923495e+14
1.109551e+15
1.577395e+15
2.041645e+15
2.682112e+15
3.184643e+15
3.891106e+15
4.409154e+15
4.831443e+15
5.19214e+15
5.483712e+15
5.691662e+15
5.777162e+15
5.776916e+15
5.690941e+15
5.482709e+15
5.191273e+15
4.831016e+15
4.409038e+15
3.8912e+15
3.184769e+15
2.681921e+15
2.041567e+15
1.577374e+15
1.109546e+15
9.531907e+14
1.490198e+15
1.961906e+15
2.640451e+15
3.184728e+15
3.9548e+15
4.568848e+15
5.107927e+15
5.573171e+15
5.966186e+15
6.25952e+15
6.468127e+15
6.588464e+15
6.588137e+15
6.467236e+15
6.258253e+15
5.964878e+15
5.572139e+15
5.107257e+15
4.568716e+15
3.954889e+15
3.185003e+15
2.640409e+15
1.961975e+15
1.490246e+15
9.529516e+14
8.636975e+14
1.385689e+15
1.771683e+15
2.460208e+15
3.081903e+15
3.892374e+15
4.569566e+15
5.207361e+15
5.787789e+15
6.260934e+15
6.650886e+15
6.976068e+15
7.204748e+15
7.328364e+15
7.327949e+15
7.2036e+15
6.974439e+15
6.649142e+15
6.259273e+15
5.78652e+15
5.206714e+15
4.569274e+15
3.892298e+15
3.081902e+15
2.459925e+15
1.771982e+15
1.385661e+15
8.634956e+14
1.036188e+15
1.518538e+15
2.075229e+15
2.814255e+15
3.6819e+15
4.411056e+15
5.109063e+15
5.788152e+15
6.368108e+15
6.880369e+15
7.294714e+15
7.61665e+15
7.832904e+15
7.943224e+15
7.942793e+15
7.831729e+15
7.615067e+15
7.293075e+15
6.878938e+15
6.367206e+15
5.78788e+15
5.109154e+15
4.411388e+15
3.68228e+15
2.814078e+15
2.075843e+15
1.518866e+15
1.036136e+15
1.134578e+15
1.674176e+15
2.415225e+15
3.110224e+15
4.070173e+15
4.833457e+15
5.574297e+15
6.261409e+15
6.880322e+15
7.411919e+15
7.825008e+15
8.129787e+15
8.330447e+15
8.430492e+15
8.430233e+15
8.329783e+15
8.129055e+15
7.824529e+15
7.411931e+15
6.881026e+15
6.262828e+15
5.576061e+15
4.835098e+15
4.071481e+15
3.110718e+15
2.416847e+15
1.674993e+15
1.13476e+15
8.646175e+14
1.429418e+15
1.844444e+15
2.58886e+15
3.57612e+15
4.406892e+15
5.194191e+15
5.967786e+15
6.651768e+15
7.294804e+15
7.824929e+15
8.228076e+15
8.518985e+15
8.708237e+15
8.801743e+15
8.801772e+15
8.708347e+15
8.519409e+15
8.229041e+15
7.826582e+15
7.29717e+15
6.654667e+15
5.970827e+15
5.196762e+15
4.408876e+15
3.577295e+15
2.590655e+15
1.845489e+15
1.429333e+15
8.645586e+14
9.798242e+14
1.482271e+15
1.924074e+15
2.690542e+15
3.793939e+15
4.657086e+15
5.485894e+15
6.261645e+15
6.977518e+15
7.617188e+15
8.129906e+15
8.519056e+15
8.799023e+15
8.980719e+15
9.07044e+15
9.070613e+15
8.981284e+15
8.800141e+15
8.520752e+15
8.132096e+15
7.619635e+15
6.979995e+15
6.264064e+15
5.488321e+15
4.658822e+15
3.79498e+15
2.691748e+15
1.924772e+15
1.482665e+15
9.800781e+14
1.009146e+15
1.513775e+15
1.973104e+15
2.758419e+15
3.922695e+15
4.827266e+15
5.694786e+15
6.471162e+15
7.207175e+15
7.834302e+15
8.331146e+15
8.708625e+15
8.98089e+15
9.15762e+15
9.244775e+15
9.244743e+15
9.157648e+15
8.981103e+15
8.709141e+15
8.332011e+15
7.835487e+15
7.208558e+15
6.472713e+15
5.696477e+15
4.828433e+15
3.923246e+15
2.758976e+15
1.973609e+15
1.514128e+15
1.009282e+15
1.020685e+15
1.528522e+15
1.996404e+15
2.793812e+15
3.98701e+15
4.912348e+15
5.780991e+15
6.592407e+15
7.331995e+15
7.945797e+15
8.432064e+15
8.802631e+15
9.070998e+15
9.245437e+15
9.331559e+15
9.331535e+15
9.245631e+15
9.071491e+15
8.803354e+15
8.432902e+15
7.946781e+15
7.333112e+15
6.59383e+15
5.782556e+15
4.913398e+15
3.987311e+15
2.793955e+15
1.996633e+15
1.528635e+15
1.020781e+15
1.020747e+15
1.528581e+15
1.996445e+15
2.793934e+15
3.98714e+15
4.912623e+15
5.781361e+15
6.592767e+15
7.332499e+15
7.946635e+15
8.432738e+15
8.802844e+15
9.07089e+15
9.245411e+15
9.331902e+15
9.332246e+15
9.246579e+15
9.072556e+15
8.804422e+15
8.433892e+15
7.947666e+15
7.333907e+15
6.594496e+15
5.783022e+15
4.913754e+15
3.987525e+15
2.793949e+15
1.996572e+15
1.528588e+15
1.020813e+15
1.009424e+15
1.514112e+15
1.973343e+15
2.758812e+15
3.923075e+15
4.828259e+15
5.696136e+15
6.472409e+15
7.208655e+15
7.835967e+15
8.332532e+15
8.709389e+15
8.981039e+15
9.157627e+15
9.245269e+15
9.245983e+15
9.159587e+15
8.983506e+15
8.711701e+15
8.334471e+15
7.837709e+15
7.210507e+15
6.474357e+15
5.697872e+15
4.829675e+15
3.923878e+15
2.758877e+15
1.973559e+15
1.514222e+15
1.009555e+15
9.804056e+14
1.482819e+15
1.924493e+15
2.691294e+15
3.794496e+15
4.658396e+15
5.487866e+15
6.263645e+15
6.979587e+15
7.619171e+15
8.131404e+15
8.519809e+15
8.79908e+15
8.980431e+15
9.070331e+15
9.071019e+15
8.982409e+15
8.801823e+15
8.52277e+15
8.134211e+15
7.621671e+15
6.981809e+15
6.265644e+15
5.489525e+15
4.659942e+15
3.795639e+15
2.691278e+15
1.924774e+15
1.483078e+15
9.805817e+14
8.652825e+14
1.429693e+15
1.845316e+15
2.590195e+15
3.576533e+15
4.408047e+15
5.195741e+15
5.96981e+15
6.653805e+15
7.296535e+15
7.826044e+15
8.228497e+15
8.518908e+15
8.708013e+15
8.801781e+15
8.80242e+15
8.709937e+15
8.521826e+15
8.231989e+15
7.829641e+15
7.299801e+15
6.656501e+15
5.972089e+15
5.197793e+15
4.409638e+15
3.577887e+15
2.589912e+15
1.845574e+15
1.43027e+15
8.654075e+14
1.134927e+15
1.674968e+15
2.416803e+15
3.110172e+15
4.070941e+15
4.834189e+15
5.575615e+15
6.262749e+15
6.881298e+15
7.412428e+15
7.825177e+15
8.129883e+15
8.330809e+15
8.431319e+15
8.431995e+15
8.33283e+15
8.133052e+15
7.829139e+15
7.416695e+15
6.885301e+15
6.266066e+15
5.578433e+15
4.836574e+15
4.072461e+15
3.111757e+15
2.416277e+15
1.675041e+15
1.135248e+15
1.036153e+15
1.518914e+15
2.076214e+15
2.814621e+15
3.682554e+15
4.411199e+15
5.109415e+15
5.788631e+15
6.368447e+15
6.880731e+15
7.295375e+15
7.617794e+15
7.834764e+15
7.945744e+15
7.946444e+15
7.836801e+15
7.620985e+15
7.299433e+15
6.885259e+15
6.372858e+15
5.792421e+15
5.112609e+15
4.413629e+15
3.683867e+15
2.816032e+15
2.076205e+15
1.51924e+15
1.036713e+15
8.6341e+14
1.3863e+15
1.772509e+15
2.460826e+15
3.082445e+15
3.892539e+15
4.569812e+15
5.207876e+15
5.788577e+15
6.262323e+15
6.653162e+15
6.979161e+15
7.208798e+15
7.333165e+15
7.33382e+15
7.210582e+15
6.981874e+15
6.656619e+15
6.266351e+15
5.792656e+15
5.211511e+15
4.57286e+15
3.89471e+15
3.083235e+15
2.461988e+15
1.772474e+15
1.3863e+15
8.642056e+14
9.528051e+14
1.490625e+15
1.962604e+15
2.640667e+15
3.185551e+15
3.955698e+15
4.570192e+15
5.109814e+15
5.575872e+15
5.970047e+15
6.264305e+15
6.473789e+15
6.594769e+15
6.595297e+15
6.475129e+15
6.266209e+15
5.972476e+15
5.578816e+15
5.112817e+15
4.572944e+15
3.958079e+15
3.187307e+15
2.642006e+15
1.963218e+15
1.490885e+15
9.532053e+14
1.109645e+15
1.577862e+15
2.042279e+15
2.683043e+15
3.185727e+15
3.893379e+15
4.412287e+15
4.835277e+15
5.196617e+15
5.489111e+15
5.698151e+15
5.784268e+15
5.784564e+15
5.698917e+15
5.490302e+15
5.198239e+15
4.836952e+15
4.413979e+15
3.895025e+15
3.187201e+15
2.684107e+15
2.042881e+15
1.578026e+15
1.109729e+15
8.92822e+14
1.359003e+15
1.629116e+15
2.0424e+15
2.641783e+15
3.083342e+15
3.683327e+15
4.071992e+15
4.409242e+15
4.659965e+15
4.830298e+15
4.91525e+15
4.915389e+15
4.830815e+15
4.660619e+15
4.410058e+15
4.073024e+15
3.684619e+15
3.084363e+15
2.642523e+15
2.042947e+15
1.629375e+15
1.359082e+15
8.927427e+14
9.010154e+14
1.359106e+15
1.578325e+15
1.96283e+15
2.461018e+15
2.814699e+15
3.111129e+15
3.577516e+15
3.795542e+15
3.924297e+15
3.988409e+15
3.988434e+15
3.924827e+15
3.796386e+15
3.578389e+15
3.111759e+15
2.815925e+15
2.462265e+15
1.963608e+15
1.57857e+15
1.35927e+15
9.010684e+14
8.928872e+14
1.110143e+15
1.490756e+15
1.772532e+15
2.075944e+15
2.416506e+15
2.589682e+15
2.690736e+15
2.758537e+15
2.794983e+15
2.794713e+15
2.759368e+15
2.692015e+15
2.591023e+15
2.417735e+15
2.076922e+15
1.773093e+15
1.491171e+15
1.110067e+15
8.929733e+14
9.530358e+14
1.385999e+15
1.518951e+15
1.674801e+15
1.844983e+15
1.924085e+15
1.973044e+15
1.996717e+15
1.99636e+15
1.973357e+15
1.924504e+15
1.845415e+15
1.675006e+15
1.518955e+15
1.386662e+15
9.530225e+14
8.634663e+14
1.036294e+15
1.134757e+15
1.429606e+15
1.482419e+15
1.513755e+15
1.529058e+15
1.528915e+15
1.513714e+15
1.482332e+15
1.42977e+15
1.134714e+15
1.036098e+15
8.63813e+14
8.649526e+14
9.799771e+14
1.008986e+15
1.020714e+15
1.020617e+15
1.008848e+15
9.797067e+14
8.643253e+14
7.671811e+14
8.646254e+14
8.864036e+14
8.86148e+14
8.638404e+14
7.666295e+14
7.374334e+14
9.168896e+14
1.025945e+15
1.150157e+15
1.428653e+15
1.489068e+15
1.512312e+15
1.511736e+15
1.487581e+15
1.426902e+15
1.149766e+15
1.025795e+15
9.166102e+14
7.375229e+14
7.434118e+14
9.62455e+14
1.336653e+15
1.563939e+15
1.763643e+15
2.050066e+15
2.208585e+15
2.274419e+15
2.306519e+15
2.305786e+15
2.272562e+15
2.206821e+15
2.049472e+15
1.762892e+15
1.562788e+15
1.336202e+15
9.625251e+14
7.438746e+14
8.316493e+14
1.291274e+15
1.616042e+15
2.074594e+15
2.341925e+15
2.606813e+15
2.84423e+15
3.238903e+15
3.390963e+15
3.451669e+15
3.451029e+15
3.389279e+15
3.236867e+15
2.842547e+15
2.604976e+15
2.340397e+15
2.072659e+15
1.615866e+15
1.291012e+15
8.322198e+14
8.910888e+14
1.434378e+15
1.865316e+15
2.385389e+15
2.798134e+15
3.3664e+15
3.735279e+15
4.018661e+15
4.255746e+15
4.401378e+15
4.468606e+15
4.468096e+15
4.400002e+15
4.253924e+15
4.01693e+15
3.733928e+15
3.365467e+15
2.797363e+15
2.384094e+15
1.865107e+15
1.434015e+15
8.91287e+14
9.241816e+14
1.551217e+15
2.148365e+15
2.608498e+15
3.063268e+15
3.806934e+15
4.340754e+15
4.762453e+15
5.062016e+15
5.289386e+15
5.436946e+15
5.508601e+15
5.508241e+15
5.435985e+15
5.288108e+15
5.06072e+15
4.761294e+15
4.339919e+15
3.806696e+15
3.063143e+15
2.607647e+15
2.147567e+15
1.550686e+15
9.240339e+14
8.913535e+14
1.551455e+15
2.243986e+15
2.777715e+15
3.531712e+15
4.155777e+15
4.780365e+15
5.301989e+15
5.73564e+15
6.101412e+15
6.370377e+15
6.542187e+15
6.625905e+15
6.625704e+15
6.541712e+15
6.369891e+15
6.101163e+15
5.73569e+15
5.302165e+15
4.780549e+15
4.155596e+15
3.531424e+15
2.777197e+15
2.242494e+15
1.550892e+15
8.91147e+14
8.321035e+14
1.434624e+15
2.149294e+15
2.77791e+15
3.623639e+15
4.365263e+15
5.054683e+15
5.664795e+15
6.23623e+15
6.721424e+15
7.120258e+15
7.415592e+15
7.607278e+15
7.701058e+15
7.700952e+15
7.607084e+15
7.415443e+15
7.120371e+15
6.721893e+15
6.236884e+15
5.66541e+15
5.055037e+15
4.365397e+15
3.623334e+15
2.777391e+15
2.148336e+15
1.434196e+15
8.318293e+14
7.437926e+14
1.291601e+15
1.866571e+15
2.609271e+15
3.532648e+15
4.365961e+15
5.149292e+15
5.846416e+15
6.52225e+15
7.136786e+15
7.655623e+15
8.077209e+15
8.395594e+15
8.604349e+15
8.703671e+15
8.703464e+15
8.603866e+15
8.39514e+15
8.07714e+15
7.656082e+15
7.137619e+15
6.523162e+15
5.847068e+15
5.149455e+15
4.365741e+15
3.53203e+15
2.608561e+15
1.866092e+15
1.291146e+15
7.435072e+14
9.629922e+14
1.617342e+15
2.385856e+15
3.065505e+15
4.1575e+15
5.056298e+15
5.847387e+15
6.61536e+15
7.334979e+15
7.97616e+15
8.521618e+15
8.963043e+15
9.297402e+15
9.52248e+15
9.637364e+15
9.637041e+15
9.521622e+15
9.296338e+15
8.962229e+15
8.521305e+15
7.976411e+15
7.335641e+15
6.61603e+15
5.847786e+15
5.056123e+15
4.156999e+15
3.064766e+15
2.385401e+15
1.616872e+15
9.629276e+14
7.380542e+14
1.337087e+15
2.074899e+15
2.799763e+15
3.809964e+15
4.783175e+15
5.667651e+15
6.524593e+15
7.336333e+15
8.08122e+15
8.74254e+15
9.306693e+15
9.767816e+15
1.012694e+16
1.037347e+16
1.050023e+16
1.049973e+16
1.03721e+16
1.012512e+16
9.766053e+15
9.30533e+15
8.741829e+15
8.081149e+15
7.336568e+15
6.524834e+15
5.667611e+15
4.782727e+15
3.809236e+15
2.798177e+15
2.074572e+15
1.336823e+15
7.3844e+14
9.168186e+14
1.56422e+15
2.342625e+15
3.369411e+15
4.344229e+15
5.305899e+15
6.240222e+15
7.140441e+15
7.978789e+15
8.743779e+15
9.421906e+15
1.001273e+16
1.04997e+16
1.087559e+16
1.113053e+16
1.125963e+16
1.125903e+16
1.11289e+16
1.087341e+16
1.049757e+16
1.001109e+16
9.42106e+15
8.74375e+15
7.979262e+15
7.1411e+15
6.240707e+15
5.305831e+15
4.343841e+15
3.367817e+15
2.341521e+15
1.563836e+15
9.170406e+14
1.02645e+15
1.764718e+15
2.608947e+15
3.739349e+15
4.766501e+15
5.740633e+15
6.726442e+15
7.660148e+15
8.524982e+15
9.308608e+15
1.001327e+16
1.062828e+16
1.11303e+16
1.151107e+16
1.176625e+16
1.189416e+16
1.189373e+16
1.176512e+16
1.150975e+16
1.112936e+16
1.062815e+16
1.001414e+16
9.310386e+15
8.527248e+15
7.662348e+15
6.728086e+15
5.741351e+15
4.766661e+15
3.737812e+15
2.607073e+15
1.763393e+15
1.025862e+15
1.1511e+15
2.052979e+15
2.848251e+15
4.023631e+15
5.067116e+15
6.107241e+15
7.12599e+15
8.082211e+15
8.966964e+15
9.7703e+15
1.050063e+16
1.113048e+16
1.163815e+16
1.201835e+16
1.227097e+16
1.239695e+16
1.23969e+16
1.227087e+16
1.201863e+16
1.163928e+16
1.113275e+16
1.050407e+16
9.774548e+15
8.971383e+15
8.086066e+15
7.128777e+15
6.108709e+15
5.06752e+15
4.022187e+15
2.845699e+15
2.049919e+15
1.149818e+15
7.678639e+14
1.429507e+15
2.211858e+15
3.243796e+15
4.261468e+15
5.29555e+15
6.377012e+15
7.421858e+15
8.401094e+15
9.302154e+15
1.013045e+16
1.087744e+16
1.151185e+16
1.201871e+16
1.239593e+16
1.264558e+16
1.276991e+16
1.277009e+16
1.26462e+16
1.239733e+16
1.202112e+16
1.151518e+16
1.088131e+16
1.013458e+16
9.306295e+15
8.404802e+15
7.42446e+15
6.378184e+15
5.29557e+15
4.25986e+15
3.240926e+15
2.208769e+15
1.42789e+15
7.669533e+14
8.64661e+14
1.490178e+15
2.277523e+15
3.396102e+15
4.407656e+15
5.444049e+15
6.549743e+15
7.614363e+15
8.610792e+15
9.528562e+15
1.037854e+16
1.113392e+16
1.17682e+16
1.227209e+16
1.264605e+16
1.289313e+16
1.301603e+16
1.301607e+16
1.289335e+16
1.264663e+16
1.22732e+16
1.176992e+16
1.113618e+16
1.038121e+16
9.531509e+15
8.613632e+15
7.616137e+15
6.550016e+15
5.443319e+15
4.405902e+15
3.393529e+15
2.275041e+15
1.488733e+15
8.64393e+14
8.8685e+14
1.513866e+15
2.309646e+15
3.457191e+15
4.475542e+15
5.516516e+15
6.634302e+15
7.709073e+15
8.711158e+15
9.644779e+15
1.050713e+16
1.126495e+16
1.189772e+16
1.239913e+16
1.277109e+16
1.301688e+16
1.31392e+16
1.313935e+16
1.301741e+16
1.277203e+16
1.240039e+16
1.189923e+16
1.126679e+16
1.050935e+16
9.6475e+15
8.71378e+15
7.710464e+15
6.634078e+15
5.515252e+15
4.47363e+15
3.455035e+15
2.308131e+15
1.512982e+15
8.86653e+14
8.868778e+14
1.514026e+15
2.310041e+15
3.457298e+15
4.475658e+15
5.516704e+15
6.634646e+15
7.709716e+15
8.711934e+15
9.645464e+15
1.050788e+16
1.126613e+16
1.189888e+16
1.239967e+16
1.27711e+16
1.30168e+16
1.313942e+16
1.314004e+16
1.301852e+16
1.277341e+16
1.240186e+16
1.190064e+16
1.126806e+16
1.051047e+16
9.648514e+15
8.714733e+15
7.711365e+15
6.634824e+15
5.515818e+15
4.474172e+15
3.455564e+15
2.308643e+15
1.513386e+15
8.869415e+14
8.651329e+14
1.490452e+15
2.277573e+15
3.396035e+15
4.407863e+15
5.444536e+15
6.550624e+15
7.616112e+15
8.612986e+15
9.530703e+15
1.038088e+16
1.113654e+16
1.177064e+16
1.227372e+16
1.264669e+16
1.289322e+16
1.301636e+16
1.301725e+16
1.289556e+16
1.264966e+16
1.227667e+16
1.177341e+16
1.113938e+16
1.038398e+16
9.533941e+15
8.615935e+15
7.618333e+15
6.551801e+15
5.444752e+15
4.407643e+15
3.395497e+15
2.277009e+15
1.490291e+15
8.652796e+14
7.6853e+14
1.429014e+15
2.211043e+15
3.243347e+15
4.261549e+15
5.296213e+15
6.378128e+15
7.424015e+15
8.404041e+15
9.305403e+15
1.013383e+16
1.088082e+16
1.15147e+16
1.202055e+16
1.239665e+16
1.264555e+16
1.276984e+16
1.277061e+16
1.264771e+16
1.239976e+16
1.202417e+16
1.15185e+16
1.088457e+16
1.013742e+16
9.308686e+15
8.406965e+15
7.426576e+15
6.38006e+15
5.29732e+15
4.262552e+15
3.244069e+15
2.211609e+15
1.429529e+15
7.687341e+14
1.151081e+15
2.051481e+15
2.84779e+15
4.023655e+15
5.067941e+15
6.108245e+15
7.127836e+15
8.084836e+15
8.970214e+15
9.773772e+15
1.050386e+16
1.113297e+16
1.163968e+16
1.201908e+16
1.227135e+16
1.239761e+16
1.239837e+16
1.227357e+16
1.202256e+16
1.164408e+16
1.113782e+16
1.050862e+16
9.778077e+15
8.973977e+15
8.088122e+15
7.130658e+15
6.110608e+15
5.069414e+15
4.025316e+15
2.849047e+15
2.052937e+15
1.151461e+15
1.026441e+15
1.7646e+15
2.608812e+15
3.739122e+15
4.767324e+15
5.741344e+15
6.727789e+15
7.661889e+15
8.527254e+15
9.311101e+15
1.001548e+16
1.062999e+16
1.113159e+16
1.15123e+16
1.176788e+16
1.189665e+16
1.189755e+16
1.177054e+16
1.151653e+16
1.113703e+16
1.063606e+16
1.002147e+16
9.316445e+15
8.531897e+15
7.6658e+15
6.730958e+15
5.744103e+15
4.768939e+15
3.741094e+15
2.609968e+15
1.765221e+15
1.026558e+15
9.175018e+14
1.56496e+15
2.343364e+15
3.369179e+15
4.344743e+15
5.306653e+15
6.241369e+15
7.141615e+15
7.980189e+15
8.745353e+15
9.423529e+15
1.001457e+16
1.050207e+16
1.087881e+16
1.113492e+16
1.126534e+16
1.126633e+16
1.113783e+16
1.088344e+16
1.050809e+16
1.002141e+16
9.430445e+15
8.751639e+15
7.985595e+15
7.146028e+15
6.244804e+15
5.309651e+15
4.346751e+15
3.371287e+15
2.343768e+15
1.564924e+15
9.17243e+14
7.386684e+14
1.337653e+15
2.076457e+15
2.799638e+15
3.809945e+15
4.783865e+15
5.668724e+15
6.525801e+15
7.337836e+15
8.083276e+15
8.745324e+15
9.310494e+15
9.772954e+15
1.013353e+16
1.038154e+16
1.050968e+16
1.051058e+16
1.038414e+16
1.013766e+16
9.778389e+15
9.316833e+15
8.751907e+15
8.089496e+15
7.343349e+15
6.530333e+15
5.672276e+15
4.787077e+15
3.812335e+15
2.801682e+15
2.075717e+15
1.337806e+15
7.384522e+14
9.633155e+14
1.617539e+15
2.386918e+15
3.064986e+15
4.158428e+15
5.057549e+15
5.849192e+15
6.61792e+15
7.338613e+15
7.981045e+15
8.527922e+15
8.970985e+15
9.306926e+15
9.53344e+15
9.649473e+15
9.650154e+15
9.535382e+15
9.309976e+15
8.975032e+15
8.532726e+15
7.986137e+15
7.343622e+15
6.622625e+15
5.853368e+15
5.061132e+15
4.161305e+15
3.06742e+15
2.38775e+15
1.617876e+15
9.633431e+14
7.437981e+14
1.292223e+15
1.867259e+15
2.611045e+15
3.534493e+15
4.367963e+15
5.151992e+15
5.850145e+15
6.527374e+15
7.143373e+15
7.663691e+15
8.086782e+15
8.406636e+15
8.616688e+15
8.716909e+15
8.717347e+15
8.617968e+15
8.408679e+15
8.089522e+15
7.666944e+15
7.146928e+15
6.531023e+15
5.853719e+15
5.1552e+15
4.370497e+15
3.536114e+15
2.611711e+15
1.867525e+15
1.292445e+15
7.442337e+14
8.321163e+14
1.435729e+15
2.150986e+15
2.779435e+15
3.625658e+15
4.368386e+15
5.059062e+15
5.670581e+15
6.24325e+15
6.72992e+15
7.130217e+15
7.426844e+15
7.619608e+15
7.71402e+15
7.714279e+15
7.620476e+15
7.428242e+15
7.132102e+15
6.732316e+15
6.246043e+15
5.673391e+15
5.061732e+15
4.370853e+15
3.62761e+15
2.7808e+15
2.150841e+15
1.435717e+15
8.324876e+14
8.915454e+14
1.552184e+15
2.246177e+15
2.779229e+15
3.535014e+15
4.159824e+15
4.785547e+15
5.308239e+15
5.743312e+15
6.11034e+15
6.380376e+15
6.553158e+15
6.637512e+15
6.63763e+15
6.55386e+15
6.381638e+15
6.11204e+15
5.745431e+15
5.310706e+15
4.787808e+15
4.161682e+15
3.536751e+15
2.780548e+15
2.246747e+15
1.552488e+15
8.916443e+14
9.243603e+14
1.552123e+15
2.151329e+15
2.611602e+15
3.06696e+15
3.811704e+15
4.346161e+15
4.768659e+15
5.069302e+15
5.297644e+15
5.446234e+15
5.518939e+15
5.518849e+15
5.446786e+15
5.298744e+15
5.070843e+15
4.770677e+15
4.348064e+15
3.813065e+15
3.067379e+15
2.612568e+15
2.152099e+15
1.552613e+15
9.245039e+14
8.912745e+14
1.435278e+15
1.867938e+15
2.387708e+15
2.800295e+15
3.370262e+15
3.740412e+15
4.025087e+15
4.263035e+15
4.409401e+15
4.477126e+15
4.476866e+15
4.409377e+15