/*--------------------------------*- C++ -*----------------------------------*\
  =========                 |
  \\      /  F ield         | OpenFOAM: The Open Source CFD Toolbox
   \\    /   O peration     | Website:  https://openfoam.org
    \\  /    A nd           | Version:  6
     \\/     M anipulation  |
\*---------------------------------------------------------------------------*/
FoamFile
{
    version     2.0;
    format      ascii;
    class       volScalarField;
    location    "49.8/region0/neutronTransport";
    object      precursor4.dnp;
}
// * * * * * * * * * * * * * * * * * * * * * * * * * * * * * * * * * * * * * //

dimensions      [0 -3 0 0 0 0 0];

internalField   nonuniform List<scalar> 
203709
(
5.166308e+13
5.529601e+13
5.577335e+13
5.006104e+13
4.033217e+13
4.642403e+13
5.509575e+13
5.375242e+13
5.278983e+13
5.235007e+13
5.262665e+13
4.353446e+13
3.794279e+13
4.127811e+13
4.25117e+13
4.457522e+13
4.835757e+13
4.895348e+13
4.90498e+13
4.652285e+13
4.621799e+13
4.355872e+13
4.186258e+13
3.570766e+13
4.177694e+13
4.268571e+13
4.529437e+13
4.56757e+13
4.58944e+13
4.644372e+13
4.605501e+13
4.412389e+13
4.481039e+13
4.669076e+13
4.325766e+13
4.131321e+13
4.001832e+13
3.587344e+13
4.40511e+13
4.523815e+13
4.635548e+13
4.668137e+13
4.71526e+13
4.779956e+13
4.801845e+13
4.766762e+13
4.719431e+13
4.490221e+13
4.346755e+13
4.39017e+13
4.137619e+13
3.764583e+13
4.951222e+13
4.336671e+13
4.307406e+13
4.341307e+13
4.504661e+13
4.701364e+13
4.784823e+13
4.793066e+13
4.747786e+13
4.702559e+13
4.630983e+13
4.493938e+13
4.335004e+13
4.125763e+13
4.174081e+13
3.500634e+13
5.101356e+13
4.393479e+13
4.021457e+13
3.733188e+13
4.126363e+13
4.680442e+13
4.890952e+13
4.995399e+13
4.985581e+13
4.884739e+13
4.753162e+13
4.597769e+13
4.463619e+13
4.305599e+13
4.151272e+13
3.855591e+13
5.606926e+13
5.781358e+13
5.016889e+13
4.461616e+13
4.260855e+13
4.424071e+13
4.736625e+13
4.955627e+13
5.03752e+13
5.068343e+13
5.042475e+13
4.978174e+13
4.843401e+13
4.706039e+13
4.534384e+13
4.365844e+13
4.168696e+13
3.700179e+13
5.553948e+13
5.667107e+13
5.357203e+13
4.986001e+13
4.90114e+13
5.020328e+13
5.076119e+13
5.14266e+13
5.144757e+13
5.147282e+13
5.080105e+13
5.03252e+13
4.914123e+13
4.803507e+13
4.657532e+13
4.487737e+13
4.331628e+13
3.939966e+13
5.624983e+13
5.652085e+13
5.515219e+13
5.307692e+13
5.214774e+13
5.221956e+13
5.199456e+13
5.225034e+13
5.191553e+13
5.165815e+13
5.094475e+13
5.036321e+13
4.926557e+13
4.82911e+13
4.705161e+13
4.553634e+13
4.42091e+13
4.112138e+13
5.65985e+13
5.76038e+13
5.667121e+13
5.509254e+13
5.397241e+13
5.362882e+13
5.325035e+13
5.282786e+13
5.239029e+13
5.181713e+13
5.099713e+13
5.015861e+13
4.920137e+13
4.826525e+13
4.716502e+13
4.576171e+13
4.487764e+13
4.275212e+13
6.112274e+13
5.983577e+13
5.824236e+13
5.657143e+13
5.527333e+13
5.426431e+13
5.322132e+13
5.219433e+13
5.135082e+13
5.058465e+13
4.976609e+13
4.894398e+13
4.816279e+13
4.720919e+13
4.59449e+13
4.474085e+13
5.976774e+13
6.177839e+13
6.027396e+13
5.810877e+13
5.600876e+13
5.437346e+13
5.306496e+13
5.20394e+13
5.1093e+13
5.022745e+13
4.943017e+13
4.875906e+13
4.824397e+13
4.732685e+13
4.653628e+13
4.61895e+13
6.199562e+13
6.052683e+13
5.793015e+13
5.571332e+13
5.394562e+13
5.248582e+13
5.152944e+13
5.049799e+13
4.989879e+13
4.934324e+13
4.899889e+13
4.903951e+13
4.812079e+13
4.714904e+13
5.438298e+13
5.733333e+13
5.519322e+13
5.453884e+13
5.349386e+13
5.270273e+13
5.194669e+13
5.093374e+13
5.034715e+13
5.016437e+13
5.030347e+13
5.139836e+13
5.028625e+13
4.885919e+13
5.095783e+13
5.073331e+13
5.551942e+13
5.414098e+13
5.432423e+13
5.337838e+13
5.214989e+13
5.179862e+13
5.270666e+13
5.331745e+13
5.56589e+13
5.181673e+13
5.167276e+13
5.22971e+13
5.678303e+13
5.52785e+13
5.449223e+13
5.405145e+13
5.595052e+13
5.260918e+13
5.251884e+13
5.429757e+13
5.521099e+13
5.184086e+13
5.750899e+13
5.93271e+13
5.983605e+13
6.175651e+13
6.30546e+13
6.274628e+13
6.085969e+13
5.799207e+13
5.517008e+13
4.858979e+13
5.338119e+13
5.727474e+13
5.918837e+13
5.769451e+13
5.822912e+13
6.036266e+13
6.19847e+13
6.189802e+13
6.004065e+13
5.696174e+13
5.396317e+13
5.181281e+13
4.936902e+13
4.231797e+13
5.016887e+13
5.518905e+13
5.425033e+13
5.546806e+13
5.551173e+13
5.685569e+13
5.98206e+13
6.218133e+13
6.224834e+13
6.022004e+13
5.664734e+13
5.318537e+13
5.012283e+13
4.758625e+13
4.490938e+13
3.760158e+13
4.657079e+13
5.2509e+13
5.176281e+13
4.99789e+13
5.213745e+13
5.527125e+13
5.791491e+13
6.278712e+13
6.677409e+13
6.721917e+13
6.477928e+13
5.835186e+13
5.432482e+13
4.997631e+13
4.679489e+13
4.345048e+13
3.953807e+13
3.498149e+13
4.484194e+13
4.922232e+13
4.855326e+13
4.763259e+13
4.912788e+13
5.272112e+13
5.980819e+13
6.488052e+13
6.819557e+13
7.187187e+13
7.219555e+13
6.934047e+13
6.627257e+13
6.17081e+13
5.374149e+13
4.970669e+13
4.558409e+13
4.173676e+13
3.864123e+13
3.525538e+13
4.451361e+13
4.763881e+13
4.661054e+13
4.744667e+13
5.209394e+13
5.807311e+13
6.279087e+13
6.670009e+13
7.301052e+13
7.544926e+13
7.895294e+13
7.928156e+13
7.538271e+13
7.280055e+13
6.790758e+13
6.508678e+13
5.914014e+13
5.262755e+13
4.745513e+13
4.34038e+13
4.00028e+13
3.707629e+13
4.147362e+13
4.567619e+13
4.764619e+13
5.323579e+13
6.163136e+13
6.69069e+13
7.703621e+13
8.126806e+13
8.504307e+13
8.649791e+13
8.721938e+13
8.478155e+13
8.324483e+13
8.289714e+13
7.644702e+13
7.165729e+13
6.348837e+13
5.851164e+13
5.43935e+13
5.065945e+13
4.702176e+13
4.295097e+13
4.513394e+13
4.647547e+13
4.616871e+13
5.117733e+13
5.906965e+13
6.767588e+13
8.054153e+13
8.93269e+13
9.318441e+13
9.52811e+13
9.637252e+13
9.674273e+13
9.527587e+13
9.403426e+13
8.959051e+13
8.647305e+13
8.631157e+13
7.960728e+13
6.933508e+13
6.460741e+13
5.774991e+13
5.132066e+13
4.648185e+13
4.026186e+13
4.422603e+13
4.558891e+13
4.637098e+13
5.356832e+13
6.516889e+13
7.461994e+13
8.511054e+13
9.076495e+13
9.17894e+13
9.302484e+13
9.440244e+13
9.550627e+13
9.665503e+13
9.826728e+13
9.843357e+13
9.728247e+13
9.307158e+13
8.567811e+13
7.474176e+13
6.245426e+13
5.73599e+13
5.019577e+13
4.434712e+13
3.829821e+13
4.48309e+13
4.553043e+13
4.815648e+13
5.584608e+13
6.639997e+13
7.784829e+13
8.304508e+13
8.347131e+13
8.598874e+13
9.16341e+13
9.412823e+13
9.58832e+13
9.671727e+13
9.676768e+13
9.592015e+13
9.443346e+13
9.234169e+13
8.78569e+13
8.022591e+13
6.736721e+13
5.905289e+13
5.140694e+13
4.516446e+13
3.832246e+13
4.646961e+13
4.696661e+13
5.039722e+13
5.765158e+13
6.998479e+13
7.961059e+13
8.362761e+13
8.323948e+13
8.609678e+13
9.09786e+13
9.397955e+13
9.599993e+13
9.750707e+13
9.845936e+13
9.852747e+13
9.745429e+13
9.511965e+13
9.093101e+13
8.440113e+13
7.004605e+13
5.92265e+13
5.451599e+13
4.726301e+13
3.993145e+13
4.841487e+13
4.904821e+13
5.291226e+13
5.973815e+13
7.180555e+13
8.058157e+13
8.510377e+13
8.781131e+13
9.094393e+13
9.331955e+13
9.51809e+13
9.67769e+13
9.815445e+13
9.894064e+13
9.905513e+13
9.806961e+13
9.595112e+13
9.215917e+13
8.580948e+13
7.627024e+13
6.31425e+13
5.718159e+13
4.94952e+13
4.199402e+13
5.006567e+13
5.093747e+13
5.473197e+13
6.104138e+13
7.177551e+13
8.004069e+13
8.435456e+13
8.762975e+13
9.041888e+13
9.280887e+13
9.497701e+13
9.674648e+13
9.814609e+13
9.888947e+13
9.893153e+13
9.788922e+13
9.569775e+13
9.185044e+13
8.531918e+13
7.535024e+13
6.40673e+13
5.800062e+13
5.060262e+13
4.354274e+13
5.09534e+13
5.193159e+13
5.515349e+13
6.094955e+13
6.853254e+13
7.742343e+13
8.242158e+13
8.597732e+13
8.911285e+13
9.174004e+13
9.396243e+13
9.576193e+13
9.705757e+13
9.768224e+13
9.753143e+13
9.634689e+13
9.390616e+13
8.964171e+13
8.214589e+13
7.094069e+13
6.500892e+13
5.743198e+13
5.051516e+13
4.427075e+13
5.116573e+13
5.197192e+13
5.432095e+13
5.936899e+13
6.756911e+13
7.571552e+13
8.112867e+13
8.453823e+13
8.74717e+13
8.995356e+13
9.198498e+13
9.354554e+13
9.460715e+13
9.50451e+13
9.466689e+13
9.322768e+13
9.043826e+13
8.548776e+13
7.669528e+13
6.619527e+13
6.127062e+13
5.557816e+13
4.955117e+13
4.426461e+13
5.071249e+13
5.128153e+13
5.283364e+13
5.720058e+13
6.408678e+13
7.099498e+13
7.751528e+13
8.131523e+13
8.43032e+13
8.668149e+13
8.854478e+13
8.993094e+13
9.08047e+13
9.105237e+13
9.042789e+13
8.866947e+13
8.552211e+13
7.983518e+13
7.000355e+13
6.528958e+13
5.890229e+13
5.333302e+13
4.835065e+13
4.415396e+13
4.716287e+13
5.086379e+13
5.118953e+13
5.426364e+13
5.850939e+13
6.717582e+13
7.351468e+13
7.728536e+13
7.962833e+13
8.16387e+13
8.338509e+13
8.476071e+13
8.564953e+13
8.588359e+13
8.50596e+13
8.298145e+13
7.961447e+13
7.362105e+13
6.539815e+13
6.121166e+13
5.650342e+13
5.177973e+13
4.791641e+13
4.523223e+13
5.094425e+13
5.034541e+13
5.138437e+13
5.496947e+13
5.916286e+13
6.472896e+13
6.894139e+13
7.228052e+13
7.462387e+13
7.681335e+13
7.871696e+13
7.996179e+13
8.018238e+13
7.906248e+13
7.665175e+13
7.344974e+13
6.874856e+13
6.513435e+13
5.928826e+13
5.566957e+13
5.17557e+13
4.776825e+13
4.534309e+13
4.937664e+13
4.901171e+13
4.976258e+13
5.181782e+13
5.571797e+13
5.945675e+13
6.41724e+13
6.780722e+13
7.053448e+13
7.282175e+13
7.440768e+13
7.436627e+13
7.28241e+13
7.055074e+13
6.815879e+13
6.591982e+13
6.193086e+13
5.948931e+13
5.776716e+13
5.487926e+13
5.003619e+13
4.322e+13
4.827685e+13
4.784746e+13
4.867843e+13
5.010024e+13
5.327665e+13
5.744586e+13
6.138424e+13
6.528617e+13
6.808454e+13
6.946735e+13
6.920641e+13
6.792384e+13
6.752515e+13
6.461987e+13
6.306624e+13
6.376204e+13
6.421072e+13
6.343407e+13
5.676035e+13
4.238564e+13
4.851726e+13
4.885267e+13
4.878955e+13
5.110453e+13
5.338299e+13
5.638796e+13
6.042246e+13
6.412593e+13
6.589575e+13
6.693575e+13
6.424191e+13
6.496621e+13
6.636626e+13
6.656794e+13
7.009675e+13
7.054717e+13
6.422667e+13
4.364286e+13
5.090723e+13
5.002554e+13
5.275378e+13
5.388397e+13
5.585803e+13
5.846988e+13
6.144694e+13
6.31959e+13
6.464735e+13
6.54368e+13
6.83347e+13
7.172232e+13
7.185318e+13
7.590026e+13
7.071301e+13
4.748632e+13
5.109718e+13
5.728502e+13
5.711883e+13
5.828248e+13
6.061374e+13
6.327366e+13
6.546556e+13
6.757348e+13
6.98466e+13
7.313748e+13
7.72512e+13
7.64687e+13
7.6839e+13
5.347715e+13
5.897176e+13
6.020346e+13
6.226174e+13
6.454811e+13
6.684224e+13
6.966107e+13
7.292237e+13
7.656291e+13
7.741599e+13
6.123629e+13
5.882596e+13
5.98872e+13
6.03401e+13
5.947984e+13
5.765488e+13
5.578506e+13
5.438111e+13
5.684625e+13
6.063195e+13
6.307068e+13
6.208881e+13
5.934475e+13
6.022759e+13
6.059323e+13
5.97984e+13
5.809437e+13
5.637568e+13
5.643261e+13
5.351792e+13
4.951258e+13
4.732616e+13
5.682455e+13
5.795062e+13
6.030742e+13
6.304998e+13
6.328136e+13
6.210365e+13
6.332372e+13
6.391441e+13
6.318272e+13
6.130603e+13
5.905938e+13
5.769219e+13
5.410073e+13
4.996974e+13
5.016187e+13
4.518248e+13
5.187235e+13
5.62631e+13
5.901025e+13
5.928815e+13
6.240501e+13
6.598285e+13
6.824421e+13
6.842951e+13
7.003419e+13
7.092929e+13
7.026728e+13
6.817828e+13
6.540597e+13
6.287916e+13
5.790603e+13
5.17273e+13
5.068045e+13
4.884988e+13
4.286744e+13
3.906987e+13
4.95947e+13
5.301992e+13
5.552706e+13
5.95365e+13
6.289706e+13
6.858904e+13
7.135739e+13
7.529279e+13
7.698975e+13
7.939894e+13
8.100378e+13
8.065416e+13
7.829401e+13
7.465112e+13
7.075964e+13
6.431375e+13
5.926425e+13
5.522182e+13
4.836605e+13
4.245865e+13
4.154809e+13
3.056628e+13
4.767727e+13
5.128846e+13
5.248067e+13
5.640199e+13
6.329949e+13
6.802719e+13
7.453921e+13
7.78408e+13
8.223357e+13
8.534688e+13
8.857468e+13
9.08571e+13
9.093533e+13
8.851764e+13
8.430412e+13
7.930531e+13
7.245343e+13
6.696748e+13
6.091667e+13
5.549941e+13
4.360334e+13
3.93924e+13
3.34093e+13
2.371746e+13
4.617014e+13
5.003492e+13
5.346771e+13
6.086454e+13
6.809903e+13
7.347519e+13
8.076625e+13
8.555894e+13
9.051562e+13
9.398955e+13
9.690953e+13
9.957568e+13
1.000035e+14
9.791161e+13
9.455344e+13
9.017201e+13
8.409971e+13
7.7784e+13
7.080646e+13
6.270152e+13
5.507084e+13
4.553422e+13
3.813944e+13
3.002058e+13
4.613079e+13
5.02625e+13
5.133063e+13
5.828874e+13
6.568699e+13
7.35962e+13
8.20067e+13
9.016825e+13
9.619023e+13
1.012079e+14
1.051176e+14
1.08122e+14
1.105621e+14
1.11478e+14
1.09967e+14
1.07352e+14
1.02896e+14
9.684142e+13
9.005188e+13
8.219807e+13
7.328305e+13
6.225193e+13
5.626366e+13
4.927193e+13
4.120317e+13
3.328119e+13
4.455943e+13
4.833507e+13
5.000197e+13
5.546963e+13
6.291982e+13
7.192091e+13
8.292018e+13
9.273596e+13
1.013132e+14
1.083735e+14
1.129928e+14
1.170687e+14
1.19579e+14
1.219883e+14
1.226185e+14
1.195175e+14
1.173829e+14
1.133313e+14
1.085298e+14
1.01496e+14
9.346707e+13
8.468016e+13
7.492659e+13
6.244072e+13
5.600486e+13
5.125223e+13
4.526857e+13
3.972282e+13
4.44411e+13
4.70885e+13
5.061183e+13
5.825422e+13
6.806445e+13
8.12903e+13
9.441815e+13
1.059054e+14
1.157074e+14
1.241396e+14
1.290926e+14
1.326611e+14
1.342613e+14
1.353784e+14
1.328249e+14
1.306339e+14
1.293754e+14
1.222735e+14
1.158332e+14
1.075291e+14
9.996939e+13
9.259071e+13
8.59389e+13
7.742876e+13
6.433501e+13
6.020164e+13
5.384356e+13
4.786444e+13
4.542729e+13
4.699429e+13
5.281369e+13
6.163776e+13
7.368843e+13
9.158523e+13
1.061326e+14
1.184777e+14
1.308346e+14
1.397788e+14
1.447281e+14
1.476307e+14
1.48986e+14
1.489552e+14
1.465684e+14
1.443205e+14
1.385981e+14
1.342701e+14
1.31959e+14
1.24517e+14
1.160418e+14
1.095201e+14
1.005311e+14
8.958695e+13
7.289142e+13
6.161312e+13
5.532615e+13
4.992902e+13
4.650572e+13
4.942447e+13
4.890448e+13
5.46291e+13
6.413032e+13
7.707729e+13
9.880855e+13
1.151044e+14
1.273964e+14
1.377155e+14
1.431907e+14
1.44226e+14
1.455766e+14
1.481343e+14
1.499877e+14
1.517792e+14
1.536262e+14
1.532368e+14
1.503011e+14
1.432939e+14
1.342042e+14
1.24427e+14
1.13505e+14
1.031536e+14
9.192317e+13
7.881977e+13
6.048299e+13
5.369e+13
4.653478e+13
3.824461e+13
4.611141e+13
4.781832e+13
4.949081e+13
5.588907e+13
6.658667e+13
8.003106e+13
1.000091e+14
1.18368e+14
1.321985e+14
1.371081e+14
1.364512e+14
1.38449e+14
1.462245e+14
1.500609e+14
1.523291e+14
1.532927e+14
1.529789e+14
1.51159e+14
1.48282e+14
1.446649e+14
1.376919e+14
1.283295e+14
1.165456e+14
1.058762e+14
9.42969e+13
8.121447e+13
6.120593e+13
5.284191e+13
4.377895e+13
3.537072e+13
4.636019e+13
4.733693e+13
4.988291e+13
5.691083e+13
6.865879e+13
8.259467e+13
1.011524e+14
1.193209e+14
1.339729e+14
1.390308e+14
1.364436e+14
1.397321e+14
1.477087e+14
1.520462e+14
1.548357e+14
1.567835e+14
1.57745e+14
1.571554e+14
1.546869e+14
1.50148e+14
1.43143e+14
1.335955e+14
1.203897e+14
1.083648e+14
9.711339e+13
8.336131e+13
6.263271e+13
5.326969e+13
4.345721e+13
3.429164e+13
4.695358e+13
4.752867e+13
5.042122e+13
5.781926e+13
7.015433e+13
8.424419e+13
1.015489e+14
1.18787e+14
1.329824e+14
1.416229e+14
1.452217e+14
1.499831e+14
1.535771e+14
1.560405e+14
1.580303e+14
1.59569e+14
1.601655e+14
1.594436e+14
1.569252e+14
1.524638e+14
1.456236e+14
1.359585e+14
1.236403e+14
1.105496e+14
9.863371e+13
8.454524e+13
6.389387e+13
5.4357e+13
4.438766e+13
3.500146e+13
4.728037e+13
4.786085e+13
5.093649e+13
5.848443e+13
7.090335e+13
8.474261e+13
1.008182e+14
1.168926e+14
1.305528e+14
1.406428e+14
1.467565e+14
1.513253e+14
1.54771e+14
1.573709e+14
1.593836e+14
1.607998e+14
1.611938e+14
1.602378e+14
1.574772e+14
1.527232e+14
1.45596e+14
1.356371e+14
1.231123e+14
1.105657e+14
9.843623e+13
8.431967e+13
6.437946e+13
5.5212e+13
4.565492e+13
3.649775e+13
4.73054e+13
4.800893e+13
5.115789e+13
5.865819e+13
7.069194e+13
8.388947e+13
9.870046e+13
1.135764e+14
1.266657e+14
1.365091e+14
1.436957e+14
1.489132e+14
1.527719e+14
1.556871e+14
1.578772e+14
1.592376e+14
1.594279e+14
1.581406e+14
1.550469e+14
1.499138e+14
1.42336e+14
1.318595e+14
1.194946e+14
1.087396e+14
9.668185e+13
8.260024e+13
6.38745e+13
5.52469e+13
4.637618e+13
3.801011e+13
4.78787e+13
4.84768e+13
5.13484e+13
5.844782e+13
6.956207e+13
8.171507e+13
9.515085e+13
1.091721e+14
1.216667e+14
1.313597e+14
1.388592e+14
1.443519e+14
1.484631e+14
1.515346e+14
1.536706e+14
1.547746e+14
1.545949e+14
1.528637e+14
1.493538e+14
1.438576e+14
1.35831e+14
1.249684e+14
1.135064e+14
1.036824e+14
9.29155e+13
7.916578e+13
6.258192e+13
5.434019e+13
4.619606e+13
3.916953e+13
4.631911e+13
4.981276e+13
5.179225e+13
5.786859e+13
6.750767e+13
7.844179e+13
9.05487e+13
1.033743e+14
1.151709e+14
1.248201e+14
1.319253e+14
1.374507e+14
1.416103e+14
1.446954e+14
1.46708e+14
1.474785e+14
1.468587e+14
1.447101e+14
1.409222e+14
1.353458e+14
1.271756e+14
1.168232e+14
1.078251e+14
9.82788e+13
8.775669e+13
7.423816e+13
6.127863e+13
5.266868e+13
4.525078e+13
4.029884e+13
4.969529e+13
5.091958e+13
5.646872e+13
6.337335e+13
7.329972e+13
8.410892e+13
9.546248e+13
1.067601e+14
1.151283e+14
1.213964e+14
1.272142e+14
1.317748e+14
1.351254e+14
1.371539e+14
1.376961e+14
1.368227e+14
1.345507e+14
1.308893e+14
1.257398e+14
1.179422e+14
1.089186e+14
1.009596e+14
9.259946e+13
8.196114e+13
6.894836e+13
6.110555e+13
5.063109e+13
4.337535e+13
4.618366e+13
4.750565e+13
5.048853e+13
5.900679e+13
6.774091e+13
7.714746e+13
8.669508e+13
9.523297e+13
1.024016e+14
1.084624e+14
1.144432e+14
1.199529e+14
1.239911e+14
1.26228e+14
1.267192e+14
1.258111e+14
1.237763e+14
1.206926e+14
1.165028e+14
1.100078e+14
1.030514e+14
9.530753e+13
8.71882e+13
7.662814e+13
6.536314e+13
5.610358e+13
4.926161e+13
4.331454e+13
4.28916e+13
4.71354e+13
4.855296e+13
5.347728e+13
6.025848e+13
6.749137e+13
7.494765e+13
8.213433e+13
8.909778e+13
9.595235e+13
1.024497e+14
1.079873e+14
1.1249e+14
1.149397e+14
1.155588e+14
1.148975e+14
1.134745e+14
1.113762e+14
1.081874e+14
1.030654e+14
9.698337e+13
9.04675e+13
8.290263e+13
7.395357e+13
6.56217e+13
5.450332e+13
4.993555e+13
4.428962e+13
4.256252e+13
4.786895e+13
4.862631e+13
5.346204e+13
5.951544e+13
6.610401e+13
7.301427e+13
8.017312e+13
8.688259e+13
9.280055e+13
9.772651e+13
1.013632e+14
1.036797e+14
1.04771e+14
1.047287e+14
1.041117e+14
1.029648e+14
1.000144e+14
9.66938e+13
9.176614e+13
8.667246e+13
8.077469e+13
7.246377e+13
6.155297e+13
5.634919e+13
5.111084e+13
4.337507e+13
4.53712e+13
4.789079e+13
5.371301e+13
6.043209e+13
6.666452e+13
7.322502e+13
7.930095e+13
8.481757e+13
8.890722e+13
9.151747e+13
9.355121e+13
9.475276e+13
9.540722e+13
9.601916e+13
9.613789e+13
9.395484e+13
9.206534e+13
8.845151e+13
8.608506e+13
8.045584e+13
6.932367e+13
6.385011e+13
5.603189e+13
4.222397e+13
4.669928e+13
4.808612e+13
5.013525e+13
5.676718e+13
6.287962e+13
6.806065e+13
7.309959e+13
7.813402e+13
8.130837e+13
8.383874e+13
8.609595e+13
8.77534e+13
8.913774e+13
9.040914e+13
9.162201e+13
9.071235e+13
9.041008e+13
8.760033e+13
8.574667e+13
7.866134e+13
7.213992e+13
6.765401e+13
6.162948e+13
4.315529e+13
5.010838e+13
5.106915e+13
5.47959e+13
5.988729e+13
6.512579e+13
6.962872e+13
7.382453e+13
7.57913e+13
7.814044e+13
8.068444e+13
8.278941e+13
8.49188e+13
8.728347e+13
8.954995e+13
8.93155e+13
8.895694e+13
8.671801e+13
8.530397e+13
8.104389e+13
7.540948e+13
6.982581e+13
4.776015e+13
5.239179e+13
5.667042e+13
5.826102e+13
6.115038e+13
6.669819e+13
7.062232e+13
7.14018e+13
7.35104e+13
7.609338e+13
7.846302e+13
8.11167e+13
8.429121e+13
8.749098e+13
8.790192e+13
8.619979e+13
8.594409e+13
8.764392e+13
8.488089e+13
7.822046e+13
5.388981e+13
6.006712e+13
6.228868e+13
6.571396e+13
6.736316e+13
6.722155e+13
6.913272e+13
7.163076e+13
7.418952e+13
7.72391e+13
8.104878e+13
8.555937e+13
8.746595e+13
8.67423e+13
8.704319e+13
8.974379e+13
5.871606e+13
6.462411e+13
6.733309e+13
6.882104e+13
6.782241e+13
6.970163e+13
7.245076e+13
7.503797e+13
7.795492e+13
8.172013e+13
8.703167e+13
8.98244e+13
8.8995e+13
9.046229e+13
6.874184e+13
6.905127e+13
7.104733e+13
7.400371e+13
7.658231e+13
7.949643e+13
8.310791e+13
9.005082e+13
5.481596e+13
5.276854e+13
5.35193e+13
5.273147e+13
5.094288e+13
5.191582e+13
5.305482e+13
5.672171e+13
5.808192e+13
6.096535e+13
5.835262e+13
5.747372e+13
5.795168e+13
5.712284e+13
5.546729e+13
5.587687e+13
5.452841e+13
5.050406e+13
4.706795e+13
4.619613e+13
5.062774e+13
5.386273e+13
5.588116e+13
6.036356e+13
6.235896e+13
6.468475e+13
6.477362e+13
6.491854e+13
6.533409e+13
6.440867e+13
6.258507e+13
6.146789e+13
5.800011e+13
5.397325e+13
5.07121e+13
4.993067e+13
4.753566e+13
4.793841e+13
5.06119e+13
5.259597e+13
5.685808e+13
6.053385e+13
6.710436e+13
7.083664e+13
7.296538e+13
7.661712e+13
7.797748e+13
7.861701e+13
7.75379e+13
7.512929e+13
7.211049e+13
6.617287e+13
6.162266e+13
5.712924e+13
5.411548e+13
5.044317e+13
4.911011e+13
4.694412e+13
4.956729e+13
5.343948e+13
5.675842e+13
6.278559e+13
6.929376e+13
7.847144e+13
8.29373e+13
8.561078e+13
8.913117e+13
9.128781e+13
9.23205e+13
9.114454e+13
8.815064e+13
8.398221e+13
7.795241e+13
7.261576e+13
6.702681e+13
6.134718e+13
5.578951e+13
5.05121e+13
4.709055e+13
4.14696e+13
4.877216e+13
5.344843e+13
5.736028e+13
6.444893e+13
7.149986e+13
8.08668e+13
8.97667e+13
9.469099e+13
9.797863e+13
1.017251e+14
1.047895e+14
1.06576e+14
1.055332e+14
1.02014e+14
9.679785e+13
9.004671e+13
8.376596e+13
7.728479e+13
7.032377e+13
6.311311e+13
5.678154e+13
5.019018e+13
4.41468e+13
3.718236e+13
4.68812e+13
5.229342e+13
5.745652e+13
6.439392e+13
7.418849e+13
8.25138e+13
9.167759e+13
1.003246e+14
1.056453e+14
1.097844e+14
1.140687e+14
1.179948e+14
1.20665e+14
1.201788e+14
1.165479e+14
1.105921e+14
1.029457e+14
9.489768e+13
8.750458e+13
7.976824e+13
7.237613e+13
6.526065e+13
5.702663e+13
4.867507e+13
3.98513e+13
3.358196e+13
4.543731e+13
4.929305e+13
5.507787e+13
6.301807e+13
7.27865e+13
8.336973e+13
9.22538e+13
1.012204e+14
1.097118e+14
1.154369e+14
1.203989e+14
1.25314e+14
1.299964e+14
1.334965e+14
1.338331e+14
1.306025e+14
1.250089e+14
1.183805e+14
1.104617e+14
1.023807e+14
9.350449e+13
8.524368e+13
7.671959e+13
6.693261e+13
5.552347e+13
4.380575e+13
3.707429e+13
3.01367e+13
4.52962e+13
4.767581e+13
5.135572e+13
5.884384e+13
6.969846e+13
8.074796e+13
9.137969e+13
1.005128e+14
1.10549e+14
1.203112e+14
1.272324e+14
1.334185e+14
1.390418e+14
1.440879e+14
1.478187e+14
1.488664e+14
1.467608e+14
1.415535e+14
1.347828e+14
1.264521e+14
1.176297e+14
1.07988e+14
9.817658e+13
8.914899e+13
7.900571e+13
6.598384e+13
5.227634e+13
4.592027e+13
3.44198e+13
2.596782e+13
4.498802e+13
4.832067e+13
5.488582e+13
6.420763e+13
7.621517e+13
8.785163e+13
9.892241e+13
1.104774e+14
1.21354e+14
1.313301e+14
1.391119e+14
1.459886e+14
1.523326e+14
1.574634e+14
1.608851e+14
1.624326e+14
1.610978e+14
1.570855e+14
1.505816e+14
1.422363e+14
1.330115e+14
1.228399e+14
1.121175e+14
1.007687e+14
9.060403e+13
7.901268e+13
6.377041e+13
5.405313e+13
4.874816e+13
3.44534e+13
4.427297e+13
4.759339e+13
5.173787e+13
5.955512e+13
7.021425e+13
8.224942e+13
9.504815e+13
1.086039e+14
1.218279e+14
1.337157e+14
1.439951e+14
1.525531e+14
1.59128e+14
1.643587e+14
1.684521e+14
1.718351e+14
1.731435e+14
1.706007e+14
1.679966e+14
1.62915e+14
1.561529e+14
1.473272e+14
1.371001e+14
1.262122e+14
1.14688e+14
1.017045e+14
8.977902e+13
7.896581e+13
6.502691e+13
5.652372e+13
4.747722e+13
4.130411e+13
4.62683e+13
4.880394e+13
5.464174e+13
6.4419e+13
7.580059e+13
8.785886e+13
1.03247e+14
1.203789e+14
1.355022e+14
1.49463e+14
1.611164e+14
1.70273e+14
1.765437e+14
1.810237e+14
1.839105e+14
1.86026e+14
1.841303e+14
1.824482e+14
1.805561e+14
1.724862e+14
1.645277e+14
1.550975e+14
1.454958e+14
1.357134e+14
1.265771e+14
1.162562e+14
1.033279e+14
9.206139e+13
7.91728e+13
6.349883e+13
5.706137e+13
4.992194e+13
4.779537e+13
5.082519e+13
5.780106e+13
6.853289e+13
8.048244e+13
9.411358e+13
1.114366e+14
1.327693e+14
1.50223e+14
1.660188e+14
1.790805e+14
1.888938e+14
1.952433e+14
1.992072e+14
2.010452e+14
2.011761e+14
1.985984e+14
1.960862e+14
1.896591e+14
1.848335e+14
1.813283e+14
1.731054e+14
1.642586e+14
1.55659e+14
1.450574e+14
1.320659e+14
1.158239e+14
1.002433e+14
8.515571e+13
6.81908e+13
6.009879e+13
5.326889e+13
5.00082e+13
5.386802e+13
6.097307e+13
7.197263e+13
8.448231e+13
9.933593e+13
1.18072e+14
1.417573e+14
1.617463e+14
1.776567e+14
1.886637e+14
1.949902e+14
1.968422e+14
1.98929e+14
2.023245e+14
2.045882e+14
2.064976e+14
2.080582e+14
2.068517e+14
2.023844e+14
1.933142e+14
1.832575e+14
1.738474e+14
1.621506e+14
1.500867e+14
1.36514e+14
1.207615e+14
1.023322e+14
8.632059e+13
6.765981e+13
5.456437e+13
4.909691e+13
4.619004e+13
5.11213e+13
5.627775e+13
6.450685e+13
7.510996e+13
8.785373e+13
1.033234e+14
1.225752e+14
1.463077e+14
1.676982e+14
1.84311e+14
1.904033e+14
1.914762e+14
1.933405e+14
2.016899e+14
2.072041e+14
2.09386e+14
2.10006e+14
2.089246e+14
2.058921e+14
2.01591e+14
1.965638e+14
1.879874e+14
1.77784e+14
1.660401e+14
1.540552e+14
1.402792e+14
1.243226e+14
1.049589e+14
8.891051e+13
7.213361e+13
5.253725e+13
4.484237e+13
3.464964e+13
4.609548e+13
4.939783e+13
5.612461e+13
6.590712e+13
7.712718e+13
9.039744e+13
1.061667e+14
1.252024e+14
1.477774e+14
1.705731e+14
1.874097e+14
1.934624e+14
1.906628e+14
1.932009e+14
2.051943e+14
2.109697e+14
2.141616e+14
2.160312e+14
2.164855e+14
2.148424e+14
2.108264e+14
2.043263e+14
1.953679e+14
1.843139e+14
1.71031e+14
1.575449e+14
1.433461e+14
1.269027e+14
1.070965e+14
9.066623e+13
7.286665e+13
5.219366e+13
4.163888e+13
3.075501e+13
4.670798e+13
4.972926e+13
5.63986e+13
6.657539e+13
7.825233e+13
9.203673e+13
1.081153e+14
1.266966e+14
1.475265e+14
1.695744e+14
1.882315e+14
1.980294e+14
2.018426e+14
2.081018e+14
2.135183e+14
2.16888e+14
2.190822e+14
2.202933e+14
2.201483e+14
2.181678e+14
2.139763e+14
2.074528e+14
1.984077e+14
1.86851e+14
1.732797e+14
1.589957e+14
1.442892e+14
1.27559e+14
1.07728e+14
9.126613e+13
7.33313e+13
5.275317e+13
4.079145e+13
2.89915e+13
4.638144e+13
4.969159e+13
5.652361e+13
6.686991e+13
7.868941e+13
9.271431e+13
1.08883e+14
1.270527e+14
1.465032e+14
1.66429e+14
1.849416e+14
1.977826e+14
2.055584e+14
2.119762e+14
2.168156e+14
2.1982e+14
2.216272e+14
2.223509e+14
2.216413e+14
2.191024e+14
2.143871e+14
2.073453e+14
1.978492e+14
1.859032e+14
1.720661e+14
1.577657e+14
1.428776e+14
1.26061e+14
1.065369e+14
9.034718e+13
7.294294e+13
5.345782e+13
4.140708e+13
2.975139e+13
4.534156e+13
4.920571e+13
5.633293e+13
6.68152e+13
7.851336e+13
9.237125e+13
1.082523e+14
1.258288e+14
1.44173e+14
1.625459e+14
1.795953e+14
1.935522e+14
2.031651e+14
2.099804e+14
2.148494e+14
2.18007e+14
2.198152e+14
2.202487e+14
2.190234e+14
2.158516e+14
2.105291e+14
2.029673e+14
1.930674e+14
1.808975e+14
1.673365e+14
1.537593e+14
1.391746e+14
1.225047e+14
1.036961e+14
8.792877e+13
7.1142e+13
5.365127e+13
4.22081e+13
3.174186e+13
4.559017e+13
5.070196e+13
5.705827e+13
6.685225e+13
7.808566e+13
9.129985e+13
1.063602e+14
1.229414e+14
1.402665e+14
1.573389e+14
1.729262e+14
1.864561e+14
1.967007e+14
2.040542e+14
2.092049e+14
2.124978e+14
2.141035e+14
2.13998e+14
2.120509e+14
2.081448e+14
2.022447e+14
1.943439e+14
1.843134e+14
1.723357e+14
1.596333e+14
1.469176e+14
1.331766e+14
1.17012e+14
9.95711e+13
8.420999e+13
6.772544e+13
5.331718e+13
4.202688e+13
3.378733e+13
5.023848e+13
5.518847e+13
6.35542e+13
7.541486e+13
8.832141e+13
1.025619e+14
1.18061e+14
1.343418e+14
1.502193e+14
1.649151e+14
1.782373e+14
1.882827e+14
1.954809e+14
2.004385e+14
2.033928e+14
2.044252e+14
2.035743e+14
2.009029e+14
1.964811e+14
1.904132e+14
1.827012e+14
1.730961e+14
1.620258e+14
1.507267e+14
1.388922e+14
1.2566e+14
1.101917e+14
9.477118e+13
7.952965e+13
6.293097e+13
5.279435e+13
3.92687e+13
4.66747e+13
5.076942e+13
5.974883e+13
7.17258e+13
8.404263e+13
9.710714e+13
1.113398e+14
1.265553e+14
1.414363e+14
1.556678e+14
1.673925e+14
1.767981e+14
1.835902e+14
1.881328e+14
1.905747e+14
1.910192e+14
1.896353e+14
1.866878e+14
1.82378e+14
1.768656e+14
1.70006e+14
1.614285e+14
1.517286e+14
1.414691e+14
1.306291e+14
1.176058e+14
1.031899e+14
8.965295e+13
7.438014e+13
5.821369e+13
4.729236e+13
3.797168e+13
4.320738e+13
4.712516e+13
5.469923e+13
6.56602e+13
7.723329e+13
8.961495e+13
1.029089e+14
1.172496e+14
1.310384e+14
1.429436e+14
1.53395e+14
1.621196e+14
1.68646e+14
1.729188e+14
1.751432e+14
1.754327e+14
1.740909e+14
1.715239e+14
1.680072e+14
1.636729e+14
1.580579e+14
1.510196e+14
1.427792e+14
1.332337e+14
1.229184e+14
1.100039e+14
9.67757e+13
8.313253e+13
6.926356e+13
5.557739e+13
4.423231e+13
3.634456e+13
4.207252e+13
4.622095e+13
5.091771e+13
5.915746e+13
6.930734e+13
8.016177e+13
9.131141e+13
1.035131e+14
1.157299e+14
1.270844e+14
1.373052e+14
1.457233e+14
1.52293e+14
1.566401e+14
1.591178e+14
1.597525e+14
1.589731e+14
1.572512e+14
1.548927e+14
1.519238e+14
1.473786e+14
1.419402e+14
1.347191e+14
1.259988e+14
1.162525e+14
1.038937e+14
9.134918e+13
7.712882e+13
6.506448e+13
5.423582e+13
4.167177e+13
3.672765e+13
4.295557e+13
4.661468e+13
5.346821e+13
6.186859e+13
7.193802e+13
8.161771e+13
9.246523e+13
1.034481e+14
1.138832e+14
1.227969e+14
1.304303e+14
1.364603e+14
1.410425e+14
1.439429e+14
1.451804e+14
1.45203e+14
1.444506e+14
1.432227e+14
1.413833e+14
1.375932e+14
1.339321e+14
1.275925e+14
1.195927e+14
1.107584e+14
9.856598e+13
8.556174e+13
7.222979e+13
6.222436e+13
4.968283e+13
4.146405e+13
4.242356e+13
4.599284e+13
4.92571e+13
5.691193e+13
6.577783e+13
7.442483e+13
8.394781e+13
9.306292e+13
1.017068e+14
1.097774e+14
1.168571e+14
1.223468e+14
1.268822e+14
1.298567e+14
1.317848e+14
1.325718e+14
1.327165e+14
1.326186e+14
1.319812e+14
1.292403e+14
1.270639e+14
1.212748e+14
1.141905e+14
1.070391e+14
9.494809e+13
8.185695e+13
6.950456e+13
5.789683e+13
5.15536e+13
4.503158e+13
4.332728e+13
4.830231e+13
5.403962e+13
6.1134e+13
6.848362e+13
7.651579e+13
8.354981e+13
9.054372e+13
9.865627e+13
1.052607e+14
1.101425e+14
1.145463e+14
1.173482e+14
1.195975e+14
1.210396e+14
1.222006e+14
1.234039e+14
1.237936e+14
1.222635e+14
1.211606e+14
1.172562e+14
1.113511e+14
1.037245e+14
9.099431e+13
7.804062e+13
6.797524e+13
5.856838e+13
5.194886e+13
4.54258e+13
5.219007e+13
5.779529e+13
6.386905e+13
7.08143e+13
7.614822e+13
8.206329e+13
8.994301e+13
9.557119e+13
9.980155e+13
1.039049e+14
1.062943e+14
1.087539e+14
1.107593e+14
1.128539e+14
1.153446e+14
1.17238e+14
1.180719e+14
1.173042e+14
1.129883e+14
1.062737e+14
9.859089e+13
8.558104e+13
7.502807e+13
6.637684e+13
6.02549e+13
4.895737e+13
5.511287e+13
6.047672e+13
6.61611e+13
7.058647e+13
7.686176e+13
8.442844e+13
8.904144e+13
9.2597e+13
9.64934e+13
9.880729e+13
1.016293e+14
1.041887e+14
1.071914e+14
1.103882e+14
1.121991e+14
1.130759e+14
1.1159e+14
1.063708e+14
9.879977e+13
9.162645e+13
8.108673e+13
7.296204e+13
6.76077e+13
5.249929e+13
5.883707e+13
6.050993e+13
6.617853e+13
7.122156e+13
7.865644e+13
8.318659e+13
8.63761e+13
9.019895e+13
9.234765e+13
9.5252e+13
9.79506e+13
1.011114e+14
1.044488e+14
1.057467e+14
1.061627e+14