/*--------------------------------*- C++ -*----------------------------------*\
  =========                 |
  \\      /  F ield         | OpenFOAM: The Open Source CFD Toolbox
   \\    /   O peration     | Website:  https://openfoam.org
    \\  /    A nd           | Version:  6
     \\/     M anipulation  |
\*---------------------------------------------------------------------------*/
FoamFile
{
    version     2.0;
    format      ascii;
    class       volScalarField;
    location    "49.8/region0/neutronTransport";
    object      precursor1.dnp;
}
// * * * * * * * * * * * * * * * * * * * * * * * * * * * * * * * * * * * * * //

dimensions      [0 -3 0 0 0 0 0];

internalField   nonuniform List<scalar> 
203709
(
1.236495e+15
1.360356e+15
1.360163e+15
1.236712e+15
1.292348e+15
1.446669e+15
1.790873e+15
1.772003e+15
1.771751e+15
1.790671e+15
1.446359e+15
1.292248e+15
1.262752e+15
1.451889e+15
1.814257e+15
1.809061e+15
1.860494e+15
1.873296e+15
1.873192e+15
1.860287e+15
1.808706e+15
1.813975e+15
1.451584e+15
1.26251e+15
1.262942e+15
1.763659e+15
1.801246e+15
1.87187e+15
1.90855e+15
1.940816e+15
1.955076e+15
1.955088e+15
1.94061e+15
1.908207e+15
1.871579e+15
1.800941e+15
1.763432e+15
1.262754e+15
1.452056e+15
1.801306e+15
1.882637e+15
1.940339e+15
1.984025e+15
2.015582e+15
2.031266e+15
2.031275e+15
2.015359e+15
1.98372e+15
1.940053e+15
1.882285e+15
1.800941e+15
1.451723e+15
1.292709e+15
1.814518e+15
1.872075e+15
1.940421e+15
1.999866e+15
2.046763e+15
2.079285e+15
2.095403e+15
2.095379e+15
2.079169e+15
2.046581e+15
1.999498e+15
1.939972e+15
1.871628e+15
1.814083e+15
1.292306e+15
1.446949e+15
1.809318e+15
1.908826e+15
1.984232e+15
2.046971e+15
2.095671e+15
2.12807e+15
2.143371e+15
2.143357e+15
2.128054e+15
2.095452e+15
2.046568e+15
1.983866e+15
1.908469e+15
1.808924e+15
1.446646e+15
1.237407e+15
1.79156e+15
1.861085e+15
1.941368e+15
2.016177e+15
2.07984e+15
2.128495e+15
2.158608e+15
2.173449e+15
2.173349e+15
2.158361e+15
2.128004e+15
2.079341e+15
2.015753e+15
1.941007e+15
1.860765e+15
1.791383e+15
1.236796e+15
1.360996e+15
1.772635e+15
1.873918e+15
1.955842e+15
2.032016e+15
2.096059e+15
2.144028e+15
2.173866e+15
2.190026e+15
2.189417e+15
2.173406e+15
2.143525e+15
2.095632e+15
2.031599e+15
1.955469e+15
1.873713e+15
1.772367e+15
1.36057e+15
1.361234e+15
1.773102e+15
1.874178e+15
1.955901e+15
2.032061e+15
2.096127e+15
2.144026e+15
2.173918e+15
2.19049e+15
2.189875e+15
2.173545e+15
2.14358e+15
2.095621e+15
2.031664e+15
1.955563e+15
1.87384e+15
1.77271e+15
1.360914e+15
1.237317e+15
1.792206e+15
1.86154e+15
1.941723e+15
2.016441e+15
2.080026e+15
2.128672e+15
2.158925e+15
2.173937e+15
2.173705e+15
2.158646e+15
2.128315e+15
2.079562e+15
2.015984e+15
1.941278e+15
1.861091e+15
1.791583e+15
1.237127e+15
1.447342e+15
1.809918e+15
1.909469e+15
1.984878e+15
2.047473e+15
2.096163e+15
2.128599e+15
2.144051e+15
2.14384e+15
2.128512e+15
2.095911e+15
2.047108e+15
1.984384e+15
1.908924e+15
1.809473e+15
1.447079e+15
1.293174e+15
1.815279e+15
1.872753e+15
1.941126e+15
2.000489e+15
2.047432e+15
2.079887e+15
2.096234e+15
2.096124e+15
2.079971e+15
2.047374e+15
2.000371e+15
1.940893e+15
1.872455e+15
1.814923e+15
1.292829e+15
1.452669e+15
1.801998e+15
1.883388e+15
1.941146e+15
1.984874e+15
2.016573e+15
2.033218e+15
2.033166e+15
2.016551e+15
1.984865e+15
1.941105e+15
1.88333e+15
1.802011e+15
1.452529e+15
1.263626e+15
1.764688e+15
1.802174e+15
1.872935e+15
1.909607e+15
1.942035e+15
1.957164e+15
1.957154e+15
1.942004e+15
1.909577e+15
1.872818e+15
1.802019e+15
1.76456e+15
1.263221e+15
1.263806e+15
1.452957e+15
1.815644e+15
1.810236e+15
1.862006e+15
1.875338e+15
1.875461e+15
1.861963e+15
1.81027e+15
1.815446e+15
1.452564e+15
1.263357e+15
1.29354e+15
1.447801e+15
1.792742e+15
1.774508e+15
1.774732e+15
1.7927e+15
1.447705e+15
1.293244e+15
1.23801e+15
1.361836e+15
1.361923e+15
1.237931e+15
1.035949e+15
1.177495e+15
1.225445e+15
1.258347e+15
1.278906e+15
1.278878e+15
1.258265e+15
1.225277e+15
1.177266e+15
1.035791e+15
1.056772e+15
1.231317e+15
1.56825e+15
1.61944e+15
1.677857e+15
1.742183e+15
1.793073e+15
1.793031e+15
1.742135e+15
1.677465e+15
1.6186e+15
1.567069e+15
1.230223e+15
1.05582e+15
1.081787e+15
1.542615e+15
1.629288e+15
1.75454e+15
1.873384e+15
1.972271e+15
2.099961e+15
2.205256e+15
2.205148e+15
2.099708e+15
1.97141e+15
1.872121e+15
1.753331e+15
1.628011e+15
1.541573e+15
1.081159e+15
1.092601e+15
1.57167e+15
1.712895e+15
1.867083e+15
2.026881e+15
2.254365e+15
2.536062e+15
2.816018e+15
2.916395e+15
2.916152e+15
2.815104e+15
2.534904e+15
2.253247e+15
2.025856e+15
1.865991e+15
1.711806e+15
1.57042e+15
1.092023e+15
1.081945e+15
1.571595e+15
1.730306e+15
1.910899e+15
2.210951e+15
2.572663e+15
2.9618e+15
3.248035e+15
3.461076e+15
3.806946e+15
3.806585e+15
3.460304e+15
3.246864e+15
2.960314e+15
2.571408e+15
2.209646e+15
1.909897e+15
1.729182e+15
1.570458e+15
1.081334e+15
1.057276e+15
1.543393e+15
1.713146e+15
1.911065e+15
2.321678e+15
2.869853e+15
3.246395e+15
3.556176e+15
4.054508e+15
4.277688e+15
4.409301e+15
4.408979e+15
4.276767e+15
4.05319e+15
3.554773e+15
3.244899e+15
2.868276e+15
2.320343e+15
1.909846e+15
1.712084e+15
1.54237e+15
1.056654e+15
1.231655e+15
1.629691e+15
1.867368e+15
2.211136e+15
2.869926e+15
3.396119e+15
3.994465e+15
4.325812e+15
4.584686e+15
4.744551e+15
4.825915e+15
4.825673e+15
4.743806e+15
4.583668e+15
4.324589e+15
3.993059e+15
3.394797e+15
2.868821e+15
2.210137e+15
1.866682e+15
1.629113e+15
1.231116e+15
1.037107e+15
1.569115e+15
1.75497e+15
2.027353e+15
2.572937e+15
3.247048e+15
3.994788e+15
4.444485e+15
4.734712e+15
4.935474e+15
5.062987e+15
5.125898e+15
5.12575e+15
5.062484e+15
4.934768e+15
4.73385e+15
4.443486e+15
3.993817e+15
3.246311e+15
2.572461e+15
2.026931e+15
1.754378e+15
1.568068e+15
1.03613e+15
1.178852e+15
1.620963e+15
1.874133e+15
2.255306e+15
2.963008e+15
3.55732e+15
4.326619e+15
4.735154e+15
4.998574e+15
5.176328e+15
5.288697e+15
5.343481e+15
5.343403e+15
5.288396e+15
5.175761e+15
4.997709e+15
4.734052e+15
4.325395e+15
3.556187e+15
2.961994e+15
2.254205e+15
1.873299e+15
1.619639e+15
1.177642e+15
1.226906e+15
1.679798e+15
1.973456e+15
2.537004e+15
3.249766e+15
4.0561e+15
4.586123e+15
4.936689e+15
5.177216e+15
5.342181e+15
5.44673e+15
5.497795e+15
5.497711e+15
5.446429e+15
5.341497e+15
5.176204e+15
4.93556e+15
4.584928e+15
4.054789e+15
3.248136e+15
2.536345e+15
1.972758e+15
1.678357e+15
1.225688e+15
1.259837e+15
1.744427e+15
2.102135e+15
2.818255e+15
3.463414e+15
4.279954e+15
4.746709e+15
5.065189e+15
5.290862e+15
5.448206e+15
5.547848e+15
5.596403e+15
5.595973e+15
5.546765e+15
5.446635e+15
5.289212e+15
5.063903e+15
4.745758e+15
4.279041e+15
3.462305e+15
2.817431e+15
2.101014e+15
1.743114e+15
1.25887e+15
1.280303e+15
1.795153e+15
2.207504e+15
2.919244e+15
3.810016e+15
4.412229e+15
4.82876e+15
5.128723e+15
5.346239e+15
5.500212e+15
5.597854e+15
5.645628e+15
5.644753e+15
5.596138e+15
5.498125e+15
5.344329e+15
5.127325e+15
4.827892e+15
4.411635e+15
3.809347e+15
2.918552e+15
2.206778e+15
1.794305e+15
1.279602e+15
1.280119e+15
1.794856e+15
2.207245e+15
2.919206e+15
3.810372e+15
4.412716e+15
4.829214e+15
5.129086e+15
5.346516e+15
5.500439e+15
5.598185e+15
5.646234e+15
5.645385e+15
5.596584e+15
5.498445e+15
5.344577e+15
5.127604e+15
4.82828e+15
4.412174e+15
3.809917e+15
2.918679e+15
2.206714e+15
1.794254e+15
1.279578e+15
1.259396e+15
1.744083e+15
2.102409e+15
2.819012e+15
3.46414e+15
4.281184e+15
4.748039e+15
5.066338e+15
5.291752e+15
5.449106e+15
5.548991e+15
5.597841e+15
5.597317e+15
5.547877e+15
5.447619e+15
5.29019e+15
5.065042e+15
4.747174e+15
4.280727e+15
3.46395e+15
2.818573e+15
2.101965e+15
1.743704e+15
1.259004e+15
1.226605e+15
1.679829e+15
1.974378e+15
2.538347e+15
3.250974e+15
4.057916e+15
4.5882e+15
4.938775e+15
5.179134e+15
5.344045e+15
5.448694e+15
5.499922e+15
5.499681e+15
5.448315e+15
5.343449e+15
5.178412e+15
4.938108e+15
4.587743e+15
4.057699e+15
3.250952e+15
2.53778e+15
1.973775e+15
1.679608e+15
1.226329e+15
1.178784e+15
1.621331e+15
1.87529e+15
2.256387e+15
2.964867e+15
3.559499e+15
4.329168e+15
4.737724e+15
5.001032e+15
5.178787e+15
5.291286e+15
5.346321e+15
5.346372e+15
5.291678e+15
5.179296e+15
5.00152e+15
4.738116e+15
4.329404e+15
3.559384e+15
2.964536e+15
2.256247e+15
1.874774e+15
1.621144e+15
1.178538e+15
1.037158e+15
1.569767e+15
1.756176e+15
2.028505e+15
2.574896e+15
3.249265e+15
3.997377e+15
4.447205e+15
4.737603e+15
4.938648e+15
5.066599e+15
5.129832e+15
5.130067e+15
5.067392e+15
4.939855e+15
4.738984e+15
4.448528e+15
3.998339e+15
3.249434e+15
2.574714e+15
2.028491e+15
1.755748e+15
1.569527e+15
1.036975e+15
1.232569e+15
1.630739e+15
1.868441e+15
2.21265e+15
2.872194e+15
3.398716e+15
3.997683e+15
4.329594e+15
4.589008e+15
4.74952e+15
4.831134e+15
4.831394e+15
4.750274e+15
4.590165e+15
4.330947e+15
3.999078e+15
3.399761e+15
2.872525e+15
2.212695e+15
1.868614e+15
1.630405e+15
1.231908e+15
1.05809e+15
1.544207e+15
1.714281e+15
1.912537e+15
2.323758e+15
2.872778e+15
3.250238e+15
3.560764e+15
4.059839e+15
4.283839e+15
4.415842e+15
4.416106e+15
4.284315e+15
4.060446e+15
3.561212e+15
3.250787e+15
2.873242e+15
2.323875e+15
1.912479e+15
1.71436e+15
1.543968e+15
1.057224e+15
1.08295e+15
1.573349e+15
1.732146e+15
1.912756e+15
2.213214e+15
2.575856e+15
2.966498e+15
3.253359e+15
3.467022e+15
3.813626e+15
3.813879e+15
3.467257e+15
3.253346e+15
2.966193e+15
2.5759e+15
2.213255e+15
1.912655e+15
1.731939e+15
1.573157e+15
1.08246e+15
1.093811e+15
1.573373e+15
1.714779e+15
1.869419e+15
2.029617e+15
2.257283e+15
2.53988e+15
2.821443e+15
2.922147e+15
2.922196e+15
2.821138e+15
2.539656e+15
2.257341e+15
2.029303e+15
1.869034e+15
1.714492e+15
1.573168e+15
1.093536e+15
1.082721e+15
1.54473e+15
1.631428e+15
1.756816e+15
1.875926e+15
1.975572e+15
2.104045e+15
2.209522e+15
2.209469e+15
2.103813e+15
1.975068e+15
1.875752e+15
1.756809e+15
1.631266e+15
1.544453e+15
1.082519e+15
1.058228e+15
1.23286e+15
1.570607e+15
1.622387e+15
1.681196e+15
1.745698e+15
1.796691e+15
1.796671e+15
1.745562e+15
1.680854e+15
1.622e+15
1.570659e+15
1.232891e+15
1.058086e+15
1.037504e+15
1.179326e+15
1.227324e+15
1.260268e+15
1.280976e+15
1.280943e+15
1.260422e+15
1.227465e+15
1.179366e+15
1.037383e+15
8.778117e+14
9.952935e+14
1.024744e+15
1.03606e+15
1.03579e+15
1.023934e+15
9.938529e+14
8.765617e+14
8.769145e+14
1.051744e+15
1.151747e+15
1.450749e+15
1.505016e+15
1.53677e+15
1.551204e+15
1.550903e+15
1.535812e+15
1.503429e+15
1.449542e+15
1.150881e+15
1.050959e+15
8.766359e+14
9.671888e+14
1.406814e+15
1.54147e+15
1.699762e+15
1.872905e+15
1.953319e+15
2.002738e+15
2.025897e+15
2.025591e+15
2.001802e+15
1.95176e+15
1.87098e+15
1.6981e+15
1.539918e+15
1.405383e+15
9.669412e+14
9.064166e+14
1.126578e+15
1.513321e+15
1.798929e+15
2.107169e+15
2.4526e+15
2.628375e+15
2.7308e+15
2.798952e+15
2.834215e+15
2.833783e+15
2.797659e+15
2.728679e+15
2.625564e+15
2.449493e+15
2.104544e+15
1.797031e+15
1.51151e+15
1.12566e+15
9.056265e+14
9.150695e+14
1.379639e+15
1.601861e+15
1.992705e+15
2.498244e+15
2.856551e+15
3.156217e+15
3.629128e+15
3.849989e+15
3.979992e+15
4.044541e+15
4.043993e+15
3.978418e+15
3.847534e+15
3.626107e+15
3.153406e+15
2.853589e+15
2.495114e+15
1.990009e+15
1.600264e+15
1.377941e+15
9.142262e+14
9.065483e+14
1.380047e+15
1.654323e+15
2.073775e+15
2.681405e+15
3.128906e+15
3.737768e+15
4.131575e+15
4.473205e+15
4.726869e+15
4.898789e+15
4.984315e+15
4.983646e+15
4.896942e+15
4.723782e+15
4.469194e+15
4.12717e+15
3.733098e+15
3.124609e+15
2.677588e+15
2.071246e+15
1.651992e+15
1.378105e+15
9.05556e+14
1.127335e+15
1.602654e+15
2.07428e+15
2.724782e+15
3.23505e+15
3.952473e+15
4.478568e+15
4.907347e+15
5.273581e+15
5.569551e+15
5.780472e+15
5.86687e+15
5.866047e+15
5.778044e+15
5.565825e+15
5.269074e+15
4.902451e+15
4.473391e+15
3.947386e+15
3.230526e+15
2.720439e+15
2.07127e+15
1.600515e+15
1.125973e+15
9.685623e+14
1.514157e+15
1.993428e+15
2.682688e+15
3.235399e+15
4.017429e+15
4.640935e+15
5.188357e+15
5.660815e+15
6.059928e+15
6.357774e+15
6.569457e+15
6.691309e+15
6.690444e+15
6.566966e+15
6.353965e+15
6.055246e+15
5.65561e+15
5.182893e+15
4.635674e+15
4.012412e+15
3.231209e+15
2.678804e+15
1.990757e+15
1.512193e+15
9.671842e+14
8.776706e+14
1.408047e+15
1.800293e+15
2.49977e+15
3.131141e+15
3.954132e+15
4.641675e+15
5.289158e+15
5.878452e+15
6.358926e+15
6.755001e+15
7.085305e+15
7.317535e+15
7.442904e+15
7.442147e+15
7.315327e+15
7.081942e+15
6.750856e+15
6.354184e+15
5.873468e+15
5.284257e+15
4.63682e+15
3.949525e+15
3.127123e+15
2.496049e+15
1.798235e+15
1.406204e+15
8.764507e+14
1.053009e+15
1.543179e+15
2.10886e+15
2.859577e+15
3.740625e+15
4.480824e+15
5.18942e+15
5.878788e+15
6.467569e+15
6.987691e+15
7.408451e+15
7.735415e+15
7.955083e+15
8.067105e+15
8.066511e+15
7.953376e+15
7.732912e+15
7.405356e+15
6.984171e+15
6.463915e+15
5.875177e+15
5.185747e+15
4.477159e+15
3.736912e+15
2.855775e+15
2.106768e+15
1.541597e+15
1.051722e+15
1.153078e+15
1.701441e+15
2.454454e+15
3.160365e+15
4.13519e+15
4.910074e+15
5.662257e+15
6.359875e+15
6.988234e+15
7.527905e+15
7.947219e+15
8.256572e+15
8.460255e+15
8.561806e+15
8.561446e+15
8.459195e+15
8.254973e+15
7.945241e+15
7.52571e+15
6.986016e+15
6.357727e+15
5.659952e+15
4.907338e+15
4.131969e+15
3.156806e+15
2.452664e+15
1.700102e+15
1.151902e+15
8.787881e+14
1.452711e+15
1.874561e+15
2.631035e+15
3.634051e+15
4.477772e+15
5.277018e+15
6.062454e+15
6.756954e+15
7.40985e+15
7.947996e+15
8.357097e+15
8.652177e+15
8.843984e+15
8.938663e+15
8.938469e+15
8.843353e+15
8.651074e+15
8.355603e+15
7.946188e+15
7.407833e+15
6.754797e+15
6.060075e+15
5.274126e+15
4.474262e+15
3.63017e+15
2.628968e+15
1.873115e+15
1.450781e+15
8.776754e+14
9.959108e+14
1.506513e+15
1.955565e+15
2.73444e+15
3.855728e+15
4.732548e+15
5.573907e+15
6.361343e+15
7.088288e+15
7.737977e+15
8.258645e+15
8.653593e+15
8.93735e+15
9.12101e+15
9.211405e+15
9.211169e+15
9.120266e+15
8.936062e+15
8.652001e+15
8.256936e+15
7.736237e+15
7.086477e+15
6.3593e+15
5.571578e+15
4.729221e+15
3.852015e+15
2.732045e+15
1.953789e+15
1.505023e+15
9.949347e+14
1.025777e+15
1.538601e+15
2.005452e+15
2.803451e+15
3.986679e+15
4.905867e+15
5.786556e+15
6.574488e+15
7.321819e+15
7.958949e+15
8.463997e+15
8.847626e+15
9.12343e+15
9.301681e+15
9.388992e+15
9.388251e+15
9.299704e+15
9.120698e+15
8.844846e+15
8.462015e+15
7.957707e+15
7.320799e+15
6.573191e+15
5.784648e+15
4.902877e+15
3.983428e+15
2.80107e+15
2.003754e+15
1.537175e+15
1.024658e+15
1.037568e+15
1.553656e+15
2.029178e+15
2.839423e+15
4.052041e+15
4.992427e+15
5.87452e+15
6.698017e+15
7.448747e+15
8.072358e+15
8.566743e+15
8.943438e+15
9.215529e+15
9.391451e+15
9.47742e+15
9.476229e+15
9.3885e+15
9.211825e+15
8.940081e+15
8.564479e+15
8.071209e+15
7.448114e+15
6.697196e+15
5.873017e+15
4.990082e+15
4.049365e+15
2.837283e+15
2.02755e+15
1.552169e+15
1.036445e+15
1.03769e+15
1.553784e+15
2.029265e+15
2.839546e+15
4.052127e+15
4.992669e+15
5.875105e+15
6.69887e+15
7.449728e+15
8.073302e+15
8.567518e+15
8.94404e+15
9.216085e+15
9.392108e+15
9.478255e+15
9.477116e+15
9.389286e+15
9.212477e+15
8.940655e+15
8.565101e+15
8.071997e+15
7.449096e+15
6.698223e+15
5.873883e+15
4.990841e+15
4.050012e+15
2.837693e+15
2.027832e+15
1.552433e+15
1.036675e+15
1.026233e+15
1.539149e+15
2.005841e+15
2.803868e+15
3.986985e+15
4.906878e+15
5.788603e+15
6.576978e+15
7.324581e+15
7.961699e+15
8.466402e+15
8.849549e+15
9.125388e+15
9.303917e+15
9.391483e+15
9.390678e+15
9.301867e+15
9.122667e+15
8.846868e+15
8.464374e+15
7.960559e+15
7.324061e+15
6.576514e+15
5.787634e+15
4.905548e+15
3.985377e+15
2.802081e+15
2.004521e+15
1.537926e+15
1.025312e+15
9.967729e+14
1.507409e+15
1.956261e+15
2.735308e+15
3.856343e+15
4.734265e+15
5.577087e+15
6.365174e+15
7.092427e+15
7.74226e+15
8.262857e+15
8.657547e+15
8.941083e+15
9.124766e+15
9.215215e+15
9.214897e+15
9.123995e+15
8.940024e+15
8.65648e+15
8.262088e+15
7.741963e+15
7.092455e+15
6.365111e+15
5.576511e+15
4.733436e+15
3.855186e+15
2.733354e+15
1.954925e+15
1.506267e+15
9.959161e+14
8.79762e+14
1.453452e+15
1.875861e+15
2.632668e+15
3.634954e+15
4.479958e+15
5.280409e+15
6.066934e+15
6.76194e+15
7.41512e+15
7.953216e+15
8.36213e+15
8.657094e+15
8.849013e+15
8.94395e+15
8.944165e+15
8.849711e+15
8.658131e+15
8.363341e+15
7.954466e+15
7.416288e+15
6.762934e+15
6.067671e+15
5.280845e+15
4.479736e+15
3.634361e+15
2.63054e+15
1.874535e+15
1.452633e+15
8.789732e+14
1.153855e+15
1.70277e+15
2.456589e+15
3.16122e+15
4.137611e+15
4.913284e+15
5.666774e+15
6.365091e+15
6.99375e+15
7.533599e+15
7.953183e+15
8.262974e+15
8.46726e+15
8.569408e+15
8.56997e+15
8.468922e+15
8.265511e+15
7.956236e+15
7.536748e+15
6.996547e+15
6.367249e+15
5.668522e+15
4.914539e+15
4.137792e+15
3.161312e+15
2.454483e+15
1.701477e+15
1.153123e+15
1.053421e+15
1.544176e+15
2.110675e+15
2.861072e+15
3.743218e+15
4.483822e+15
5.193527e+15
5.884022e+15
6.473582e+15
6.994577e+15
7.41634e+15
7.744322e+15
7.965035e+15
8.07788e+15
8.078465e+15
7.966726e+15
7.746927e+15
7.419588e+15
6.998153e+15
6.477011e+15
5.886914e+15
5.195922e+15
4.485371e+15
3.743455e+15
2.861223e+15
2.109355e+15
1.543365e+15
1.053097e+15
8.777715e+14
1.409336e+15
1.80202e+15
2.501755e+15
3.133689e+15
3.957334e+15
4.646082e+15
5.295026e+15
5.88568e+15
6.367595e+15
6.765176e+15
7.096758e+15
7.330276e+15
7.456644e+15
7.457084e+15
7.331418e+15
7.098434e+15
6.767265e+15
6.370091e+15
5.888223e+15
5.297337e+15
4.648002e+15
3.958474e+15
3.133435e+15
2.501783e+15
1.80094e+15
1.408395e+15
8.779173e+14
9.686218e+14
1.515384e+15
1.995319e+15
2.684846e+15
3.239016e+15
4.022318e+15
4.647382e+15
5.196319e+15
5.670438e+15
6.071426e+15
6.370751e+15
6.583777e+15
6.706668e+15
6.706939e+15
6.584361e+15
6.37149e+15
6.072389e+15
5.671803e+15
5.197783e+15
4.648786e+15
4.023484e+15
3.239702e+15
2.685169e+15
1.995053e+15
1.514897e+15
9.68473e+14
1.128018e+15
1.604096e+15
2.076379e+15
2.728019e+15
3.239349e+15
3.959179e+15
4.487104e+15
4.917493e+15
5.285164e+15
5.582758e+15
5.795364e+15
5.88281e+15
5.882848e+15
5.795397e+15
5.582877e+15
5.285545e+15
4.917926e+15
4.48765e+15
3.95983e+15
3.239931e+15
2.728251e+15
2.076213e+15
1.603614e+15
1.127632e+15
9.074877e+14
1.38138e+15
1.656127e+15
2.076445e+15
2.686035e+15
3.135301e+15
3.745717e+15
4.141258e+15
4.484483e+15
4.739619e+15
4.912858e+15
4.999118e+15
4.999019e+15
4.912712e+15
4.739322e+15
4.484251e+15
4.141316e+15
3.74616e+15
3.135603e+15
2.686136e+15
2.076406e+15
1.655889e+15
1.381033e+15
9.071256e+14
9.158067e+14
1.381502e+15
1.604508e+15
1.995626e+15
2.502403e+15
2.862309e+15
3.164034e+15
3.638588e+15
3.860438e+15
3.991362e+15
4.056428e+15
4.056252e+15
3.991327e+15
3.860452e+15
3.638532e+15
3.16385e+15
2.862828e+15
2.503004e+15
1.995837e+15
1.604339e+15
1.381268e+15
9.156331e+14
9.075535e+14
1.12849e+15
1.515588e+15
1.802283e+15
2.110998e+15
2.457523e+15
2.633813e+15
2.736651e+15
2.805581e+15
2.842552e+15
2.842148e+15
2.80604e+15
2.737352e+15
2.634448e+15
2.458089e+15
2.111375e+15
1.80231e+15
1.51557e+15
1.128156e+15
9.074453e+14
9.688624e+14
1.409188e+15
1.544513e+15
1.703145e+15
1.876315e+15
1.956808e+15
2.006596e+15
2.030627e+15
2.030194e+15
2.006697e+15
1.95688e+15
1.876299e+15
1.702918e+15
1.544126e+15
1.409423e+15
9.686619e+14
8.778656e+14
1.053686e+15
1.15391e+15
1.453808e+15
1.507562e+15
1.539437e+15
1.554978e+15
1.554785e+15
1.539247e+15
1.507222e+15
1.453637e+15
1.153638e+15
1.053274e+15
8.780586e+14
8.795816e+14
9.965866e+14
1.026107e+15
1.03803e+15
1.037909e+15
1.025894e+15
9.961955e+14
8.78839e+14
7.789729e+14
8.778829e+14
8.999799e+14
8.996874e+14
8.769841e+14
7.782595e+14
7.487678e+14
9.309338e+14
1.041655e+15
1.167733e+15
1.450388e+15
1.511728e+15
1.535296e+15
1.534627e+15
1.509951e+15
1.448157e+15
1.166858e+15
1.040981e+15
9.301051e+14
7.484083e+14
7.548781e+14
9.772676e+14
1.357163e+15
1.587832e+15
1.790478e+15
2.081142e+15
2.24198e+15
2.308797e+15
2.341313e+15
2.340388e+15
2.306338e+15
2.239172e+15
2.07906e+15
1.788302e+15
1.585195e+15
1.355309e+15
9.764952e+14
7.547087e+14
8.445523e+14
1.311238e+15
1.640938e+15
2.106497e+15
2.377681e+15
2.646431e+15
2.887338e+15
3.287857e+15
3.44213e+15
3.503589e+15
3.502601e+15
3.439369e+15
3.283991e+15
2.883304e+15
2.64185e+15
2.37324e+15
2.101636e+15
1.638746e+15
1.309407e+15
8.44303e+14
9.049961e+14
1.456681e+15
1.894264e+15
2.422328e+15
2.841279e+15
3.418004e+15
3.792286e+15
4.079775e+15
4.320263e+15
4.467895e+15
4.53584e+15
4.53481e+15
4.464922e+15
4.315717e+15
4.074305e+15
3.78649e+15
3.41241e+15
2.836295e+15
2.417382e+15
1.891484e+15
1.454494e+15
9.042892e+14
9.386734e+14
1.575431e+15
2.181923e+15
2.649187e+15
3.110889e+15
3.865919e+15
4.40769e+15
4.83561e+15
5.139481e+15
5.370014e+15
5.519435e+15
5.59167e+15
5.590571e+15
5.51622e+15
5.364944e+15
5.133021e+15
4.828306e+15
4.400424e+15
3.859568e+15
3.105782e+15
2.64412e+15
2.177849e+15
1.572918e+15
9.375663e+14
9.053936e+14
1.575771e+15
2.279183e+15
2.821318e+15
3.58708e+15
4.220723e+15
4.854852e+15
5.384304e+15
5.824425e+15
6.195569e+15
6.468281e+15
6.64215e+15
6.726382e+15
6.725178e+15
6.638657e+15
6.462838e+15
6.188709e+15
5.816696e+15
5.37616e+15
4.846857e+15
4.213202e+15
3.580514e+15
2.816114e+15
2.274304e+15
1.57331e+15
9.043083e+14
8.452537e+14
1.457203e+15
2.183119e+15
2.821723e+15
3.680826e+15
4.434053e+15
5.134099e+15
5.753574e+15
6.333728e+15
6.82631e+15
7.231128e+15
7.53064e+15
7.724609e+15
7.818866e+15
7.817522e+15
7.720741e+15
7.524548e+15
7.223365e+15
6.817513e+15
6.324369e+15
5.744147e+15
5.12503e+15
4.425929e+15
3.673939e+15
2.816705e+15
2.179223e+15
1.455226e+15
8.441756e+14
7.555972e+14
1.311984e+15
1.896077e+15
2.650555e+15
3.588662e+15
4.435216e+15
5.230815e+15
5.938697e+15
6.624972e+15
7.249005e+15
7.775871e+15
8.203909e+15
8.526912e+15
8.738241e+15
8.838091e+15
8.836577e+15
8.733865e+15
8.520161e+15
8.195487e+15
7.766412e+15
7.238943e+15
6.61469e+15
5.928539e+15
5.22107e+15
4.426713e+15
3.581818e+15
2.645774e+15
1.893321e+15
1.310119e+15
7.545443e+14
9.783269e+14
1.642955e+15
2.423649e+15
3.114263e+15
4.223746e+15
5.136844e+15
5.940264e+15
6.720037e+15
7.450745e+15
8.101885e+15
8.655898e+15
9.10424e+15
9.443673e+15
9.671801e+15
9.787624e+15
9.786077e+15
9.667333e+15
9.436822e+15
9.095754e+15
8.646365e+15
8.091776e+15
7.440407e+15
6.709661e+15
5.930133e+15
5.127322e+15
4.215667e+15
3.108394e+15
2.41977e+15
1.640582e+15
9.772092e+14
7.499275e+14
1.358359e+15
2.107769e+15
2.844317e+15
3.870839e+15
4.859721e+15
5.758194e+15
6.62827e+15
7.452225e+15
8.208385e+15
8.87986e+15
9.452857e+15
9.92133e+15
1.028615e+16
1.053638e+16
1.066464e+16
1.066328e+16
1.053245e+16
1.028014e+16
9.913897e+15
9.444481e+15
8.870953e+15
8.199153e+15
7.442684e+15
6.618542e+15
5.748617e+15
4.850931e+15
3.863685e+15
2.838606e+15
2.104841e+15
1.356557e+15
7.494567e+14
9.315985e+14
1.589211e+15
2.379897e+15
3.423245e+15
4.413933e+15
5.391131e+15
6.340033e+15
7.253594e+15
8.104301e+15
8.880705e+15
9.56912e+15
1.016908e+16
1.066374e+16
1.104565e+16
1.130469e+16
1.143571e+16
1.143465e+16
1.130169e+16
1.10412e+16
1.06583e+16
1.0163e+16
9.562667e+15
8.873957e+15
8.0971e+15
7.245794e+15
6.331591e+15
5.382707e+15
4.406692e+15
3.416804e+15
2.375929e+15
1.587011e+15
9.307348e+14
1.043082e+15
1.79301e+15
2.650608e+15
3.799302e+15
4.843257e+15
5.833164e+15
6.834227e+15
7.781469e+15
8.659085e+15
9.454504e+15
1.016989e+16
1.079429e+16
1.130401e+16
1.169069e+16
1.194988e+16
1.207981e+16
1.207919e+16
1.19481e+16
1.168798e+16
1.130071e+16
1.079072e+16
1.01662e+16
9.450662e+15
8.654605e+15
7.775783e+15
6.826929e+15
5.825184e+15
4.836058e+15
3.792404e+15
2.64549e+15
1.789566e+15
1.041227e+15
1.169818e+15
2.085891e+15
2.893875e+15
4.088322e+15
5.148953e+15
6.206073e+15
7.240756e+15
8.210883e+15
9.108679e+15
9.924204e+15
1.066568e+16
1.130505e+16
1.182026e+16
1.220601e+16
1.246219e+16
1.258989e+16
1.258957e+16
1.246122e+16
1.220441e+16
1.181822e+16
1.130269e+16
1.066305e+16
9.921216e+15
9.104954e+15
8.205673e+15
7.233584e+15
6.198018e+15
5.141358e+15
4.080885e+15
2.887447e+15
2.080123e+15
1.167028e+15
7.805388e+14
1.452796e+15
2.247473e+15
3.295891e+15
4.330114e+15
5.381226e+15
6.480548e+15
7.542179e+15
8.535806e+15
9.449868e+15
1.029064e+16
1.104921e+16
1.16934e+16
1.220778e+16
1.259018e+16
1.284266e+16
1.296801e+16
1.296763e+16
1.284151e+16
1.258839e+16
1.22058e+16
1.169141e+16
1.104726e+16
1.028855e+16
9.447083e+15
8.531405e+15
7.535656e+15
6.473009e+15
5.373715e+15
4.3225e+15
3.288514e+15
2.241225e+15
1.449089e+15
7.785032e+14
8.78972e+14
1.51458e+15
2.314383e+15
3.450811e+15
4.478755e+15
5.532177e+15
6.656197e+15
7.738293e+15
8.749663e+15
9.680428e+15
1.054297e+16
1.131017e+16
1.195487e+16
1.246699e+16
1.284586e+16
1.309511e+16
1.321826e+16
1.321723e+16
1.309233e+16
1.284208e+16
1.246332e+16
1.195254e+16
1.130899e+16
1.054207e+16
9.678788e+15
8.746251e+15
7.732842e+15
6.649743e+15
5.5255e+15
4.471919e+15
3.444011e+15
2.308698e+15
1.510915e+15
8.774107e+14
9.015814e+14
1.538771e+15
2.347214e+15
3.513081e+15
4.547839e+15
5.605809e+15
6.742083e+15
7.834623e+15
8.852199e+15
9.799153e+15
1.067384e+16
1.144339e+16
1.20866e+16
1.259636e+16
1.297364e+16
1.322165e+16
1.33438e+16
1.334221e+16
1.321753e+16
1.296845e+16
1.259179e+16
1.208379e+16
1.144228e+16
1.067342e+16
9.798111e+15
8.849552e+15
7.83029e+15
6.736871e+15
5.600322e+15
4.542189e+15
3.507511e+15
2.342844e+15
1.535769e+15
9.001402e+14
9.016527e+14
1.539036e+15
2.347805e+15
3.513423e+15
4.548108e+15
5.606011e+15
6.742314e+15
7.83514e+15
8.853249e+15
9.80062e+15
1.067543e+16
1.144487e+16
1.208782e+16
1.259731e+16
1.297454e+16
1.322267e+16
1.334498e+16
1.334345e+16
1.321868e+16
1.296945e+16
1.259271e+16
1.208478e+16
1.14435e+16
1.06749e+16
9.799736e+15
8.851164e+15
7.831824e+15
6.738295e+15
5.601698e+15
4.543658e+15
3.508961e+15
2.344045e+15
1.536538e+15
9.005041e+14
8.795694e+14
1.515145e+15
2.314977e+15
3.451425e+15
4.479446e+15
5.532777e+15
6.656868e+15
7.739833e+15
8.752742e+15
9.684605e+15
1.054748e+16
1.131452e+16
1.19587e+16
1.247015e+16
1.284905e+16
1.30986e+16
1.322192e+16
1.322079e+16
1.30956e+16
1.284514e+16
1.246649e+16
1.195621e+16
1.131336e+16
1.054705e+16
9.684005e+15
8.751301e+15
7.737542e+15
6.653937e+15
5.529403e+15
4.476035e+15
3.448006e+15
2.312024e+15
1.513151e+15
8.785446e+14
7.813737e+14
1.452708e+15
2.247462e+15
3.296487e+15
4.33105e+15
5.382289e+15
6.481676e+15
7.544581e+15
8.540442e+15
9.45607e+15
1.029739e+16
1.105603e+16
1.17001e+16
1.221414e+16
1.259612e+16
1.284845e+16
1.297373e+16
1.297326e+16
1.284723e+16
1.259454e+16
1.221275e+16
1.169938e+16
1.105611e+16
1.029787e+16
9.456326e+15
8.540011e+15
7.54343e+15
6.479776e+15
5.37963e+15
4.32851e+15
3.294051e+15
2.245564e+15
1.451487e+15
7.806098e+14
1.170204e+15
2.085314e+15
2.894627e+15
4.089567e+15
5.150658e+15
6.207726e+15
7.243821e+15
8.216305e+15
9.115904e+15
9.932305e+15
1.067415e+16
1.131344e+16
1.182836e+16
1.221385e+16
1.247007e+16
1.259809e+16
1.259841e+16
1.247103e+16
1.221536e+16
1.18303e+16
1.131567e+16
1.067646e+16
9.934498e+15
9.117668e+15
8.217347e+15
7.243914e+15
6.206884e+15
5.148634e+15
4.087821e+15
2.893033e+15
2.084524e+15
1.169281e+15
1.04347e+15
1.793731e+15
2.651756e+15
3.800553e+15
4.84549e+15
5.83532e+15
6.837779e+15
7.78705e+15
8.666467e+15
9.463054e+15
1.0179e+16
1.080371e+16
1.131379e+16
1.170105e+16
1.196108e+16
1.20921e+16
1.209295e+16
1.196355e+16
1.170485e+16
1.131851e+16
1.080878e+16
1.018381e+16
9.467214e+15
8.669876e+15
7.789442e+15
6.838896e+15
5.835461e+15
4.844111e+15
3.799598e+15
2.650477e+15
1.79258e+15
1.042513e+15
9.326581e+14
1.59072e+15
2.381887e+15
3.424591e+15
4.416245e+15
5.393981e+15
6.34407e+15
7.259138e+15
8.111598e+15
8.88963e+15
9.579404e+15
1.018068e+16
1.067674e+16
1.106017e+16
1.132085e+16
1.145355e+16
1.145442e+16
1.132337e+16
1.106412e+16
1.068178e+16
1.018633e+16
9.585055e+15
8.894782e+15
8.115923e+15
7.26221e+15
6.345693e+15
5.394715e+15
4.415767e+15
3.424354e+15
2.38036e+15
1.589304e+15
9.315399e+14
7.508183e+14
1.35954e+15
2.110468e+15
2.845621e+15
3.872758e+15
4.863033e+15
5.762867e+15
6.634552e+15
7.460551e+15
8.218898e+15
8.892472e+15
9.46753e+15
9.938107e+15
1.030501e+16
1.055731e+16
1.068753e+16
1.068811e+16
1.055897e+16
1.03076e+16
9.941522e+15
9.471546e+15
8.896654e+15
8.222883e+15
7.463968e+15
6.63699e+15
5.764225e+15
4.864021e+15
3.873054e+15
2.845938e+15
2.108274e+15
1.35872e+15
7.500086e+14
9.790577e+14
1.643906e+15
2.425954e+15
3.115336e+15
4.227191e+15
5.14175e+15
5.947151e+15
6.729306e+15
7.462646e+15
8.116402e+15
8.672963e+15
9.123884e+15
9.465753e+15
9.696157e+15
9.813961e+15
9.814204e+15
9.696837e+15
9.466866e+15
9.125531e+15
8.675156e+15
8.118874e+15
7.465154e+15
6.731542e+15
5.948877e+15
5.143009e+15
4.228063e+15
3.116214e+15
2.42548e+15
1.643312e+15
9.784871e+14
7.558677e+14
1.313151e+15
1.897583e+15
2.65368e+15
3.592625e+15
4.440346e+15
5.237995e+15
5.948468e+15
6.637742e+15
7.26476e+15
7.794455e+15
8.225167e+15
8.550704e+15
8.764321e+15
8.865963e+15
8.865895e+15
8.764164e+15
8.550609e+15
8.225385e+15
7.795075e+15
7.265729e+15
6.638858e+15
5.949515e+15
5.238773e+15
4.44072e+15
3.592507e+15
2.653104e+15
1.896975e+15
1.312768e+15
7.559472e+14
8.455901e+14
1.458918e+15
2.185822e+15
2.824792e+15
3.685364e+15
4.440983e+15
5.14386e+15
5.766359e+15
6.349364e+15
6.844894e+15
7.25242e+15
7.554272e+15
7.750211e+15
7.845867e+15
7.8456e+15
7.749571e+15
7.553407e+15
7.251622e+15
6.844449e+15
6.349331e+15
5.766325e+15
5.143814e+15
4.441086e+15
3.685449e+15
2.824874e+15
2.184761e+15
1.458324e+15
8.456359e+14
9.059479e+14
1.577226e+15
2.28263e+15
2.824759e+15
3.593544e+15
4.229375e+15
4.866236e+15
5.398333e+15
5.841326e+15
6.214916e+15
6.489607e+15
6.665137e+15
6.750538e+15
6.750161e+15
6.664392e+15
6.488631e+15
6.213854e+15
5.840402e+15
5.397753e+15
4.865503e+15
4.228607e+15
3.593205e+15
2.824658e+15
2.28222e+15
1.576934e+15
9.05767e+14
9.392935e+14
1.577287e+15
2.186472e+15
2.654718e+15
3.118069e+15
3.875776e+15
4.419659e+15
4.849714e+15
5.155646e+15
5.387833e+15
5.538728e+15
5.612312e+15
5.611794e+15
5.538007e+15
5.386906e+15
5.154628e+15
4.848881e+15
4.418787e+15
3.874554e+15
3.116532e+15
2.654207e+15
2.186201e+15
1.577162e+15
9.391871e+14
9.057279e+14
1.458688e+15
1.898701e+15
2.427347e+15
2.847131e+15
3.426941e+15
3.803594e+15
4.093168e+15
4.335068e+15
4.483718e+15
4.552309e+15
4.551712e+15
4.482685e+15
4.333672e+15