/*--------------------------------*- C++ -*----------------------------------*\
  =========                 |
  \\      /  F ield         | OpenFOAM: The Open Source CFD Toolbox
   \\    /   O peration     | Website:  https://openfoam.org
    \\  /    A nd           | Version:  6
     \\/     M anipulation  |
\*---------------------------------------------------------------------------*/
FoamFile
{
    version     2.0;
    format      ascii;
    class       volScalarField;
    location    "49.8/region0/neutronTransport";
    object      precursor2.dnp;
}
// * * * * * * * * * * * * * * * * * * * * * * * * * * * * * * * * * * * * * //

dimensions      [0 -3 0 0 0 0 0];

internalField   nonuniform List<scalar> 
203709
(
2.360714e+15
2.439536e+15
2.398855e+15
2.21508e+15
1.979236e+15
2.135781e+15
2.424639e+15
2.432335e+15
2.369901e+15
2.323423e+15
2.293731e+15
2.051699e+15
1.886913e+15
1.959341e+15
2.032754e+15
2.104801e+15
2.250589e+15
2.329968e+15
2.321663e+15
2.157205e+15
2.126374e+15
2.041921e+15
1.936307e+15
1.723516e+15
2.124287e+15
2.071402e+15
2.16476e+15
2.148766e+15
2.131197e+15
2.150252e+15
2.137349e+15
2.028703e+15
2.058448e+15
2.1939e+15
2.01774e+15
1.905074e+15
1.846431e+15
1.736659e+15
2.171689e+15
2.094926e+15
2.079178e+15
2.04185e+15
2.047423e+15
2.096019e+15
2.126665e+15
2.127094e+15
2.120254e+15
2.012017e+15
1.943926e+15
2.05341e+15
1.96378e+15
1.951627e+15
2.05179e+15
1.998148e+15
1.826799e+15
1.74008e+15
1.76647e+15
1.923613e+15
2.02603e+15
2.078707e+15
2.093669e+15
2.105384e+15
2.108236e+15
2.082183e+15
2.059595e+15
2.017666e+15
2.227712e+15
2.164001e+15
2.070285e+15
1.939757e+15
1.628868e+15
1.213395e+15
1.345707e+15
1.819428e+15
2.027117e+15
2.152109e+15
2.200963e+15
2.19506e+15
2.179532e+15
2.157518e+15
2.167004e+15
2.174576e+15
2.210163e+15
2.289271e+15
2.359705e+15
2.124689e+15
1.997754e+15
1.782517e+15
1.57983e+15
1.646438e+15
1.853578e+15
2.045836e+15
2.15835e+15
2.231591e+15
2.271301e+15
2.301256e+15
2.302574e+15
2.31999e+15
2.330148e+15
2.349076e+15
2.376277e+15
2.502593e+15
2.363609e+15
2.216415e+15
2.110037e+15
2.001802e+15
1.97064e+15
2.056945e+15
2.126076e+15
2.202539e+15
2.244696e+15
2.287941e+15
2.303106e+15
2.341582e+15
2.356963e+15
2.392453e+15
2.421434e+15
2.442537e+15
2.492747e+15
2.528522e+15
2.40682e+15
2.306791e+15
2.229514e+15
2.176996e+15
2.181087e+15
2.223355e+15
2.245748e+15
2.286482e+15
2.299821e+15
2.324858e+15
2.341273e+15
2.380263e+15
2.407645e+15
2.454612e+15
2.496416e+15
2.526262e+15
2.587079e+15
2.617363e+15
2.488588e+15
2.387314e+15
2.334995e+15
2.306132e+15
2.308082e+15
2.325846e+15
2.332488e+15
2.336034e+15
2.346561e+15
2.365505e+15
2.389871e+15
2.429282e+15
2.474972e+15
2.529875e+15
2.578914e+15
2.612229e+15
2.703384e+15
2.721255e+15
2.435257e+15
2.403626e+15
2.38845e+15
2.380907e+15
2.370762e+15
2.363423e+15
2.355908e+15
2.359949e+15
2.388602e+15
2.437311e+15
2.494226e+15
2.556363e+15
2.621611e+15
2.674673e+15
2.716823e+15
2.814216e+15
2.44005e+15
2.420847e+15
2.400561e+15
2.377739e+15
2.360071e+15
2.354139e+15
2.366593e+15
2.403816e+15
2.455975e+15
2.520164e+15
2.587327e+15
2.657716e+15
2.728418e+15
2.771149e+15
2.845702e+15
2.957537e+15
2.393817e+15
2.380547e+15
2.353314e+15
2.345593e+15
2.364444e+15
2.404307e+15
2.474258e+15
2.541374e+15
2.627267e+15
2.700654e+15
2.774795e+15
2.852023e+15
2.882853e+15
2.979246e+15
2.305336e+15
2.343004e+15
2.348431e+15
2.38475e+15
2.44309e+15
2.523472e+15
2.620345e+15
2.692096e+15
2.767867e+15
2.832967e+15
2.907095e+15
2.995835e+15
3.016503e+15
3.087618e+15
2.408144e+15
2.405282e+15
2.549019e+15
2.615543e+15
2.715577e+15
2.793103e+15
2.843195e+15
2.90543e+15
2.976417e+15
3.047268e+15
3.123623e+15
3.044574e+15
2.693934e+15
2.720237e+15
2.906591e+15
2.953195e+15
2.990798e+15
3.014471e+15
3.074894e+15
2.994191e+15
2.865502e+15
2.959772e+15
3.01095e+15
2.908573e+15
2.835876e+15
2.858464e+15
2.796611e+15
2.731059e+15
2.663098e+15
2.592004e+15
2.539296e+15
2.528442e+15
2.558351e+15
2.426996e+15
2.649399e+15
2.730581e+15
2.849012e+15
2.836912e+15
2.775146e+15
2.710245e+15
2.639376e+15
2.567062e+15
2.514894e+15
2.495292e+15
2.516807e+15
2.498321e+15
2.390346e+15
2.099267e+15
2.507687e+15
2.701708e+15
2.699713e+15
2.767657e+15
2.769242e+15
2.71912e+15
2.664163e+15
2.594111e+15
2.516296e+15
2.467359e+15
2.442889e+15
2.461063e+15
2.442998e+15
2.388618e+15
2.251962e+15
1.995935e+15
2.381341e+15
2.605607e+15
2.652588e+15
2.563327e+15
2.621598e+15
2.695557e+15
2.647172e+15
2.655321e+15
2.634328e+15
2.562636e+15
2.503006e+15
2.380076e+15
2.378029e+15
2.359602e+15
2.328533e+15
2.218733e+15
2.094236e+15
1.986742e+15
2.385521e+15
2.511076e+15
2.52708e+15
2.470857e+15
2.422212e+15
2.488475e+15
2.688272e+15
2.677496e+15
2.617862e+15
2.58537e+15
2.519917e+15
2.485157e+15
2.442117e+15
2.416469e+15
2.28221e+15
2.246698e+15
2.169348e+15
2.071194e+15
2.016967e+15
1.961929e+15
2.506758e+15
2.518029e+15
2.443678e+15
2.378035e+15
2.410552e+15
2.387416e+15
2.432465e+15
2.51305e+15
2.511498e+15
2.471845e+15
2.498992e+15
2.463141e+15
2.353145e+15
2.314757e+15
2.324691e+15
2.318085e+15
2.227364e+15
2.128294e+15
2.039665e+15
1.96559e+15
1.92773e+15
1.913248e+15
2.454468e+15
2.444886e+15
2.348015e+15
2.313089e+15
2.306649e+15
2.275859e+15
2.347636e+15
2.363221e+15
2.380466e+15
2.375035e+15
2.398932e+15
2.30418e+15
2.286182e+15
2.337927e+15
2.221254e+15
2.139821e+15
2.040925e+15
1.954318e+15
1.908316e+15
1.879333e+15
1.857551e+15
1.83703e+15
2.636484e+15
2.585696e+15
2.3917e+15
2.281173e+15
2.228441e+15
2.210619e+15
2.134575e+15
2.096111e+15
2.035168e+15
2.006632e+15
2.044073e+15
2.089364e+15
2.120022e+15
2.172811e+15
2.112835e+15
2.116092e+15
2.223905e+15
2.144449e+15
2.12505e+15
2.093322e+15
2.082588e+15
2.081941e+15
2.11768e+15
2.158301e+15
2.642076e+15
2.590948e+15
2.36458e+15
2.265236e+15
2.124052e+15
2.097481e+15
1.902828e+15
1.815605e+15
1.753559e+15
1.811941e+15
1.8843e+15
1.933983e+15
1.974456e+15
2.030498e+15
2.067774e+15
2.095416e+15
2.079879e+15
2.038478e+15
2.185244e+15
2.094841e+15
2.172925e+15
2.205818e+15
2.240846e+15
2.339997e+15
2.641724e+15
2.57836e+15
2.408524e+15
2.265824e+15
2.095816e+15
1.991069e+15
1.636133e+15
1.380647e+15
1.394151e+15
1.697179e+15
1.847259e+15
1.937779e+15
1.978114e+15
1.994002e+15
1.999978e+15
2.01336e+15
2.053135e+15
2.090938e+15
2.142834e+15
2.200214e+15
2.295514e+15
2.324775e+15
2.372437e+15
2.503772e+15
2.64672e+15
2.588012e+15
2.460652e+15
2.291933e+15
2.163541e+15
2.019499e+15
1.703744e+15
1.452492e+15
1.467427e+15
1.662424e+15
1.82806e+15
1.933744e+15
1.997371e+15
2.0428e+15
2.082556e+15
2.120475e+15
2.161023e+15
2.204537e+15
2.269043e+15
2.319213e+15
2.393254e+15
2.435321e+15
2.47833e+15
2.624885e+15
2.647311e+15
2.60083e+15
2.513129e+15
2.355593e+15
2.247504e+15
2.117538e+15
1.91604e+15
1.794878e+15
1.821369e+15
1.887428e+15
1.949807e+15
1.999769e+15
2.038398e+15
2.073638e+15
2.114299e+15
2.16346e+15
2.22077e+15
2.282178e+15
2.34096e+15
2.420238e+15
2.47476e+15
2.545781e+15
2.590623e+15
2.720285e+15
2.635882e+15
2.607495e+15
2.546299e+15
2.420166e+15
2.329289e+15
2.22683e+15
2.099909e+15
2.027472e+15
2.022587e+15
2.042541e+15
2.065554e+15
2.085686e+15
2.106281e+15
2.134936e+15
2.17757e+15
2.234981e+15
2.303712e+15
2.37737e+15
2.443795e+15
2.526277e+15
2.574482e+15
2.6499e+15
2.695455e+15
2.803898e+15
2.604732e+15
2.597242e+15
2.553066e+15
2.467765e+15
2.400213e+15
2.328426e+15
2.246766e+15
2.202442e+15
2.181113e+15
2.169036e+15
2.162536e+15
2.164014e+15
2.179283e+15
2.21426e+15
2.270111e+15
2.343304e+15
2.426334e+15
2.509376e+15
2.576811e+15
2.675162e+15
2.693356e+15
2.768613e+15
2.804578e+15
2.894465e+15
2.568076e+15
2.573671e+15
2.544993e+15
2.512105e+15
2.449139e+15
2.391051e+15
2.335651e+15
2.293211e+15
2.260814e+15
2.236228e+15
2.223929e+15
2.230527e+15
2.261205e+15
2.318517e+15
2.397493e+15
2.491978e+15
2.590933e+15
2.67775e+15
2.745427e+15
2.817881e+15
2.862512e+15
2.909294e+15
2.922513e+15
2.990559e+15
2.525461e+15
2.535922e+15
2.515493e+15
2.49069e+15
2.452518e+15
2.422115e+15
2.380609e+15
2.338628e+15
2.303027e+15
2.282478e+15
2.285555e+15
2.317511e+15
2.378658e+15
2.466753e+15
2.569105e+15
2.682753e+15
2.790378e+15
2.869072e+15
2.95139e+15
2.987576e+15
3.022615e+15
3.036493e+15
3.034909e+15
3.086449e+15
2.397514e+15
2.47252e+15
2.454371e+15
2.452161e+15
2.411998e+15
2.405742e+15
2.36901e+15
2.336978e+15
2.325501e+15
2.339422e+15
2.383242e+15
2.454165e+15
2.548516e+15
2.664164e+15
2.778295e+15
2.903259e+15
3.002982e+15
3.065031e+15
3.132296e+15
3.167097e+15
3.176192e+15
3.142071e+15
3.152553e+15
3.200961e+15
2.442322e+15
2.425977e+15
2.404175e+15
2.387795e+15
2.372085e+15
2.377006e+15
2.382946e+15
2.418608e+15
2.478625e+15
2.561446e+15
2.657782e+15
2.767879e+15
2.896321e+15
2.999851e+15
3.132255e+15
3.207156e+15
3.292711e+15
3.343595e+15
3.300112e+15
3.281076e+15
3.198055e+15
3.190735e+15
2.380637e+15
2.475144e+15
2.450876e+15
2.444594e+15
2.434982e+15
2.494234e+15
2.544943e+15
2.632029e+15
2.706386e+15
2.795252e+15
2.888317e+15
2.993346e+15
3.125325e+15
3.196172e+15
3.360278e+15
3.393825e+15
3.45249e+15
3.433189e+15
3.403394e+15
3.36177e+15
3.268152e+15
3.243428e+15
2.362921e+15
2.544981e+15
2.552414e+15
2.608812e+15
2.645446e+15
2.731165e+15
2.839135e+15
2.924172e+15
3.020558e+15
3.092628e+15
3.181311e+15
3.32858e+15
3.352949e+15
3.498373e+15
3.465391e+15
3.450354e+15
3.523391e+15
3.506239e+15
3.426436e+15
3.172297e+15
2.460476e+15
2.722429e+15
2.806678e+15
2.821841e+15
2.915909e+15
2.968075e+15
3.029767e+15
3.120469e+15
3.227156e+15
3.302883e+15
3.433331e+15
3.389559e+15
3.493168e+15
3.561111e+15
3.546741e+15
3.639751e+15
3.549989e+15
3.278265e+15
2.57627e+15
2.95875e+15
2.941155e+15
3.054817e+15
3.093306e+15
3.137636e+15
3.174097e+15
3.24638e+15
3.306653e+15
3.407242e+15
3.470208e+15
3.605746e+15
3.661797e+15
3.594673e+15
3.659886e+15
3.4093e+15
2.807807e+15
2.924344e+15
3.176418e+15
3.196756e+15
3.212941e+15
3.253453e+15
3.32814e+15
3.404333e+15
3.486801e+15
3.557276e+15
3.650563e+15
3.688787e+15
3.583117e+15
3.58162e+15
2.947997e+15
3.172269e+15
3.188483e+15
3.221613e+15
3.284515e+15
3.356018e+15
3.442028e+15
3.526914e+15
3.621824e+15
3.604122e+15
3.186654e+15
2.999474e+15
2.915771e+15
2.825338e+15
2.738594e+15
2.685744e+15
2.699253e+15
2.836515e+15
3.057794e+15
3.024121e+15
3.054582e+15
3.028214e+15
2.934578e+15
2.848055e+15
2.757673e+15
2.675864e+15
2.630037e+15
2.64958e+15
2.721732e+15
2.720305e+15
2.716304e+15
2.633548e+15
2.967997e+15
2.913666e+15
2.963033e+15
3.009192e+15
2.970159e+15
2.885035e+15
2.798184e+15
2.711152e+15
2.631837e+15
2.584875e+15
2.598871e+15
2.661631e+15
2.675363e+15
2.629149e+15
2.528174e+15
2.135364e+15
2.966685e+15
2.872735e+15
2.902337e+15
2.862302e+15
2.890167e+15
2.963889e+15
2.962604e+15
2.884515e+15
2.789876e+15
2.699765e+15
2.618749e+15
2.57037e+15
2.582025e+15
2.635863e+15
2.632871e+15
2.499346e+15
2.410426e+15
2.080298e+15
1.638767e+15
1.410851e+15
2.931454e+15
2.886438e+15
2.834697e+15
2.830025e+15
2.835244e+15
2.905133e+15
2.932663e+15
2.908914e+15
2.838244e+15
2.746926e+15
2.661293e+15
2.581142e+15
2.526811e+15
2.525217e+15
2.568321e+15
2.600417e+15
2.51031e+15
2.392864e+15
1.959265e+15
1.577084e+15
1.395256e+15
9.731975e+14
3.009361e+15
2.925314e+15
2.835019e+15
2.766126e+15
2.823944e+15
2.804817e+15
2.844001e+15
2.857467e+15
2.851007e+15
2.798188e+15
2.715383e+15
2.634157e+15
2.554987e+15
2.494329e+15
2.479094e+15
2.504231e+15
2.520268e+15
2.460902e+15
2.384339e+15
2.107256e+15
1.539913e+15
1.365409e+15
1.071601e+15
8.447463e+14
2.92839e+15
2.880327e+15
2.766353e+15
2.779997e+15
2.802402e+15
2.734839e+15
2.790872e+15
2.807942e+15
2.80621e+15
2.752828e+15
2.660311e+15
2.586753e+15
2.51041e+15
2.44787e+15
2.429655e+15
2.44642e+15
2.456904e+15
2.414608e+15
2.342721e+15
2.146033e+15
1.866967e+15
1.516582e+15
1.273616e+15
1.081836e+15
2.925359e+15
2.945075e+15
2.817516e+15
2.789205e+15
2.761875e+15
2.731937e+15
2.702409e+15
2.743082e+15
2.747727e+15
2.703597e+15
2.668287e+15
2.597827e+15
2.531515e+15
2.469507e+15
2.40948e+15
2.384846e+15
2.393404e+15
2.393577e+15
2.363721e+15
2.304384e+15
2.163623e+15
1.966645e+15
1.869547e+15
1.678465e+15
1.50162e+15
1.346456e+15
3.015059e+15
2.967153e+15
2.897604e+15
2.861428e+15
2.765005e+15
2.676905e+15
2.688053e+15
2.656317e+15
2.650083e+15
2.653388e+15
2.615049e+15
2.578327e+15
2.506729e+15
2.480355e+15
2.43927e+15
2.340412e+15
2.313133e+15
2.310758e+15
2.313605e+15
2.297389e+15
2.252213e+15
2.163743e+15
2.035729e+15
1.907142e+15
1.87748e+15
1.813177e+15
1.740209e+15
1.712055e+15
2.968392e+15
2.94501e+15
2.846222e+15
2.853894e+15
2.676712e+15
2.634345e+15
2.637703e+15
2.597773e+15
2.583146e+15
2.580819e+15
2.554852e+15
2.533687e+15
2.500832e+15
2.487253e+15
2.387853e+15
2.328007e+15
2.343446e+15
2.25327e+15
2.1938e+15
2.126664e+15
2.076429e+15
2.024914e+15
1.983616e+15
1.936319e+15
1.895128e+15
1.938214e+15
1.920254e+15
1.916964e+15
2.919169e+15
2.885112e+15
2.849327e+15
2.831562e+15
2.611723e+15
2.601241e+15
2.560114e+15
2.482212e+15
2.413939e+15
2.333267e+15
2.24833e+15
2.19389e+15
2.193212e+15
2.22153e+15
2.232519e+15
2.260557e+15
2.211187e+15
2.214199e+15
2.27925e+15
2.237245e+15
2.225106e+15
2.237133e+15
2.241787e+15
2.226276e+15
2.195754e+15
2.187034e+15
2.176981e+15
2.182473e+15
2.945879e+15
2.957183e+15
2.870275e+15
2.828197e+15
2.766554e+15
2.581566e+15
2.55909e+15
2.4577e+15
2.3354e+15
2.168418e+15
2.020768e+15
1.917164e+15
1.921645e+15
2.001545e+15
2.061201e+15
2.114776e+15
2.176855e+15
2.216385e+15
2.23381e+15
2.20278e+15
2.189869e+15
2.272618e+15
2.28068e+15
2.330755e+15
2.355286e+15
2.360345e+15
2.365714e+15
2.361558e+15
2.36498e+15
2.364915e+15
2.880646e+15
2.899215e+15
2.836777e+15
2.798423e+15
2.726593e+15
2.573087e+15
2.522961e+15
2.413931e+15
2.226367e+15
1.910025e+15
1.622204e+15
1.562291e+15
1.830855e+15
1.988602e+15
2.080562e+15
2.125263e+15
2.146541e+15
2.157095e+15
2.175615e+15
2.220316e+15
2.256506e+15
2.301076e+15
2.349425e+15
2.437487e+15
2.474229e+15
2.490297e+15
2.496169e+15
2.488687e+15
2.443937e+15
2.462121e+15
2.844475e+15
2.853157e+15
2.80013e+15
2.766143e+15
2.698535e+15
2.58035e+15
2.514488e+15
2.428864e+15
2.258071e+15
1.94395e+15
1.616494e+15
1.576758e+15
1.815253e+15
2.003748e+15
2.118184e+15
2.187976e+15
2.239204e+15
2.282829e+15
2.323124e+15
2.362828e+15
2.401147e+15
2.446827e+15
2.485281e+15
2.554207e+15
2.600908e+15
2.608636e+15
2.606846e+15
2.599178e+15
2.548265e+15
2.566608e+15
2.805788e+15
2.808327e+15
2.763472e+15
2.733856e+15
2.675161e+15
2.589046e+15
2.52864e+15
2.46002e+15
2.341094e+15
2.144678e+15
1.983711e+15
2.010273e+15
2.090433e+15
2.165703e+15
2.223799e+15
2.269329e+15
2.310583e+15
2.355971e+15
2.406289e+15
2.461719e+15
2.516853e+15
2.56669e+15
2.622141e+15
2.675564e+15
2.723023e+15
2.724259e+15
2.717205e+15
2.698692e+15
2.642082e+15
2.657508e+15
2.754254e+15
2.758623e+15
2.722274e+15
2.699367e+15
2.651362e+15
2.59051e+15
2.545154e+15
2.495753e+15
2.423573e+15
2.325112e+15
2.261145e+15
2.268741e+15
2.294327e+15
2.318112e+15
2.339025e+15
2.364621e+15
2.400912e+15
2.451749e+15
2.513832e+15
2.582817e+15
2.650374e+15
2.708451e+15
2.765124e+15
2.81512e+15
2.851805e+15
2.838667e+15
2.82447e+15
2.784489e+15
2.726777e+15
2.725947e+15
2.709699e+15
2.708612e+15
2.675159e+15
2.659014e+15
2.620847e+15
2.578243e+15
2.547504e+15
2.519417e+15
2.480736e+15
2.434734e+15
2.413884e+15
2.411427e+15
2.408548e+15
2.406281e+15
2.41402e+15
2.440567e+15
2.489337e+15
2.558289e+15
2.640642e+15
2.727645e+15
2.807181e+15
2.870044e+15
2.929633e+15
2.976416e+15
2.992579e+15
2.952876e+15
2.924838e+15
2.853366e+15
2.789575e+15
2.775464e+15
2.688561e+15
2.674184e+15
2.636416e+15
2.622286e+15
2.586857e+15
2.553542e+15
2.529546e+15
2.515563e+15
2.496909e+15
2.475434e+15
2.463566e+15
2.449885e+15
2.437788e+15
2.43756e+15
2.460348e+15
2.511745e+15
2.589516e+15
2.685343e+15
2.790509e+15
2.894183e+15
2.979672e+15
3.041618e+15
3.094324e+15
3.12829e+15
3.125124e+15
3.053739e+15
3.011003e+15
2.899222e+15
2.829534e+15
2.809156e+15
2.648103e+15
2.641957e+15
2.603795e+15
2.583159e+15
2.545389e+15
2.517195e+15
2.496581e+15
2.485576e+15
2.475619e+15
2.462785e+15
2.443028e+15
2.428358e+15
2.431362e+15
2.46299e+15
2.526901e+15
2.617869e+15
2.727407e+15
2.84502e+15
2.965056e+15
3.075355e+15
3.154474e+15
3.214857e+15
3.264372e+15
3.28039e+15
3.233091e+15
3.130865e+15
3.07467e+15
2.911277e+15
2.860911e+15
2.826022e+15
2.603317e+15
2.575709e+15
2.573939e+15
2.536817e+15
2.48644e+15
2.452501e+15
2.427332e+15
2.414018e+15
2.395048e+15
2.385108e+15
2.405958e+15
2.46203e+15
2.550308e+15
2.660955e+15
2.781453e+15
2.905907e+15
3.027627e+15
3.148452e+15
3.250243e+15
3.310728e+15
3.363438e+15
3.393031e+15
3.396696e+15
3.298515e+15
3.208365e+15
3.111254e+15
2.899387e+15
2.839163e+15
2.646843e+15
2.60257e+15
2.524763e+15
2.511229e+15
2.456781e+15
2.41868e+15
2.397339e+15
2.389521e+15
2.399498e+15
2.437412e+15
2.515316e+15
2.624063e+15
2.746909e+15
2.86882e+15
2.98372e+15
3.095214e+15
3.202719e+15
3.314066e+15
3.396973e+15
3.446557e+15
3.491163e+15
3.503051e+15
3.474017e+15
3.331842e+15
3.246077e+15
3.027607e+15
2.897719e+15
2.8577e+15
2.641445e+15
2.658142e+15
2.596957e+15
2.589979e+15
2.57524e+15
2.539701e+15
2.533421e+15
2.545732e+15
2.588518e+15
2.667362e+15
2.770417e+15
2.877337e+15
2.980385e+15
3.072302e+15
3.159693e+15
3.248946e+15
3.342599e+15
3.448747e+15
3.514075e+15
3.554236e+15
3.564537e+15
3.569835e+15
3.524895e+15
3.406631e+15
3.276298e+15
3.010678e+15
2.904435e+15
2.814943e+15
2.550734e+15
2.683204e+15
2.643344e+15
2.684985e+15
2.706824e+15
2.718989e+15
2.779873e+15
2.859748e+15
2.948314e+15
3.029459e+15
3.10469e+15
3.160882e+15
3.217097e+15
3.285379e+15
3.364086e+15
3.460358e+15
3.560747e+15
3.610037e+15
3.64052e+15
3.619768e+15
3.621407e+15
3.59631e+15
3.408633e+15
3.136293e+15
3.060637e+15
2.845008e+15
2.694482e+15
2.759687e+15
2.769993e+15
2.850995e+15
2.94663e+15
3.016709e+15
3.08531e+15
3.160673e+15
3.223563e+15
3.263115e+15
3.276879e+15
3.326369e+15
3.39273e+15
3.470484e+15
3.573924e+15
3.66762e+15
3.685693e+15
3.698394e+15
3.660009e+15
3.698042e+15
3.602852e+15
3.289478e+15
3.205032e+15
3.087935e+15
2.695128e+15
2.87234e+15
2.946727e+15
2.931166e+15
3.069638e+15
3.201639e+15
3.227286e+15
3.284792e+15
3.328777e+15
3.350266e+15
3.372622e+15
3.432896e+15
3.505121e+15
3.583333e+15
3.659146e+15
3.729064e+15
3.740163e+15
3.745001e+15
3.72086e+15
3.717262e+15
3.539352e+15
3.382228e+15
3.270519e+15
3.092331e+15
2.713943e+15
3.037718e+15
3.059563e+15
3.115047e+15
3.261774e+15
3.329634e+15
3.389527e+15
3.400336e+15
3.402143e+15
3.42438e+15
3.494051e+15
3.56609e+15
3.638603e+15
3.707174e+15
3.769837e+15
3.805278e+15
3.791271e+15
3.74682e+15
3.703973e+15
3.619e+15
3.442939e+15
3.323973e+15
2.899146e+15
3.037375e+15
3.208547e+15
3.26972e+15
3.261447e+15
3.393821e+15
3.454906e+15
3.4537e+15
3.481708e+15
3.552692e+15
3.619532e+15
3.683658e+15
3.747544e+15
3.807033e+15
3.817314e+15
3.748154e+15
3.748948e+15
3.783495e+15
3.696745e+15
3.579163e+15
3.073581e+15
3.34115e+15
3.359543e+15
3.387085e+15
3.389493e+15
3.387837e+15
3.417137e+15
3.480528e+15
3.546528e+15
3.613429e+15
3.682474e+15
3.763855e+15
3.820524e+15
3.812525e+15
3.792331e+15
3.941239e+15
3.282961e+15
3.398179e+15
3.405269e+15
3.458935e+15
3.456921e+15
3.481993e+15
3.54759e+15
3.608486e+15
3.663166e+15
3.717873e+15
3.789915e+15
3.854916e+15
3.87049e+15
4.031568e+15
3.520335e+15
3.484369e+15
3.498458e+15
3.56076e+15
3.618818e+15
3.678451e+15
3.741987e+15
3.978655e+15
3.29585e+15
2.990429e+15
2.897647e+15
2.793659e+15
2.720777e+15
2.895003e+15
3.250697e+15
3.146894e+15
3.141121e+15
3.117649e+15
3.028141e+15
2.896419e+15
2.804991e+15
2.710128e+15
2.643426e+15
2.668567e+15
2.807005e+15
2.889602e+15
2.982702e+15
3.088658e+15
3.20477e+15
3.04614e+15
3.006405e+15
3.052585e+15
3.075042e+15
3.02773e+15
2.970755e+15
2.841652e+15
2.748737e+15
2.662342e+15
2.613239e+15
2.65446e+15
2.747135e+15
2.805976e+15
2.859857e+15
2.858125e+15
2.83374e+15
2.84693e+15
3.178555e+15
3.01464e+15
2.974589e+15
2.929818e+15
3.001156e+15
3.050799e+15
3.009718e+15
2.958178e+15
2.837422e+15
2.746168e+15
2.665034e+15
2.622619e+15
2.651381e+15
2.723109e+15
2.767794e+15
2.774064e+15
2.719818e+15
2.587714e+15
2.441222e+15
2.339759e+15
3.162417e+15
3.01045e+15
2.940287e+15
2.923369e+15
2.91774e+15
2.980017e+15
3.035213e+15
2.997988e+15
2.948142e+15
2.833033e+15
2.745881e+15
2.665746e+15
2.620142e+15
2.632478e+15
2.673178e+15
2.687895e+15
2.653319e+15
2.56471e+15
2.344055e+15
2.080097e+15
1.831428e+15
1.624982e+15
3.202095e+15
3.042189e+15
2.939108e+15
2.913126e+15
2.902302e+15
2.897174e+15
2.952972e+15
3.003573e+15
2.974644e+15
2.931858e+15
2.829115e+15
2.749627e+15
2.667745e+15
2.611847e+15
2.602073e+15
2.609673e+15
2.593301e+15
2.525752e+15
2.376022e+15
2.156579e+15
1.876229e+15
1.594775e+15
1.368077e+15
1.257517e+15
3.253156e+15
3.105426e+15
3.011552e+15
2.917588e+15
2.8756e+15
2.860282e+15
2.854344e+15
2.906337e+15
2.955438e+15
2.93992e+15
2.906321e+15
2.819639e+15
2.748929e+15
2.668834e+15
2.602532e+15
2.571651e+15
2.555058e+15
2.505978e+15
2.415932e+15
2.235493e+15
1.996676e+15
1.721555e+15
1.488213e+15
1.321173e+15
1.242835e+15
1.223958e+15
3.28812e+15
3.145184e+15
3.08538e+15
2.989595e+15
2.880163e+15
2.832087e+15
2.797966e+15
2.790873e+15
2.837408e+15
2.880368e+15
2.878951e+15
2.857433e+15
2.791519e+15
2.732353e+15
2.658607e+15
2.586875e+15
2.543859e+15
2.521586e+15
2.459354e+15
2.365237e+15
2.168569e+15
1.931181e+15
1.647437e+15
1.401169e+15
1.232078e+15
1.149977e+15
1.271823e+15
1.291859e+15
3.346191e+15
3.229977e+15
3.113729e+15
3.050387e+15
2.945895e+15
2.837037e+15
2.757069e+15
2.711828e+15
2.712273e+15
2.766082e+15
2.812077e+15
2.827229e+15
2.814748e+15
2.764825e+15
2.717511e+15
2.65323e+15
2.582619e+15
2.527329e+15
2.49622e+15
2.43927e+15
2.35693e+15
2.194299e+15
1.968608e+15
1.738646e+15
1.494881e+15
1.248168e+15
1.084894e+15
1.296811e+15
1.346084e+15
1.288627e+15
3.227284e+15
3.157065e+15
3.09233e+15
3.031506e+15
2.896507e+15
2.767708e+15
2.66971e+15
2.640007e+15
2.660126e+15
2.708426e+15
2.749319e+15
2.76372e+15
2.76619e+15
2.730728e+15
2.688004e+15
2.638203e+15
2.575486e+15
2.521336e+15
2.481373e+15
2.425313e+15
2.356904e+15
2.243812e+15
2.07846e+15
1.885976e+15
1.753353e+15
1.615545e+15
1.514234e+15
1.430265e+15
1.548971e+15
1.377928e+15
3.262517e+15
3.160731e+15
3.132038e+15
3.068908e+15
2.971081e+15
2.830396e+15
2.702529e+15
2.617267e+15
2.607042e+15
2.635921e+15
2.665595e+15
2.695967e+15
2.693846e+15
2.679087e+15
2.629726e+15
2.614284e+15
2.580015e+15
2.497558e+15
2.457529e+15
2.426561e+15
2.393441e+15
2.346561e+15
2.269757e+15
2.165766e+15
2.044363e+15
1.922798e+15
1.859778e+15
1.832367e+15
1.784144e+15
1.794775e+15
1.701994e+15
1.771721e+15
3.182182e+15
3.121929e+15
3.092778e+15
3.013795e+15
2.922155e+15
2.774431e+15
2.670176e+15
2.601239e+15
2.606843e+15
2.638872e+15
2.656117e+15
2.661088e+15
2.646065e+15
2.62948e+15
2.605903e+15
2.597544e+15
2.516437e+15
2.461468e+15
2.453034e+15
2.361807e+15
2.29234e+15
2.219166e+15
2.152226e+15
2.082793e+15
2.034626e+15
2.002391e+15
1.981581e+15
1.997115e+15
1.98395e+15
1.965908e+15
1.959346e+15
1.985866e+15
3.183533e+15
3.111447e+15
3.076861e+15
2.976543e+15
2.871876e+15
2.75041e+15
2.665657e+15
2.597466e+15
2.597615e+15
2.593062e+15
2.547471e+15
2.480966e+15
2.409417e+15
2.356817e+15
2.331061e+15
2.343128e+15
2.343646e+15
2.360782e+15
2.314254e+15
2.31534e+15
2.356485e+15
2.323421e+15
2.306813e+15
2.311369e+15
2.322644e+15
2.324734e+15
2.312406e+15
2.307837e+15
2.277024e+15
2.257216e+15
2.228574e+15
2.247462e+15
3.072141e+15
3.070606e+15
3.031502e+15
2.936565e+15
2.83934e+15
2.733448e+15
2.658745e+15
2.596178e+15
2.550812e+15
2.481257e+15
2.333479e+15
2.181961e+15
2.062575e+15
2.041401e+15
2.121705e+15
2.184839e+15
2.241926e+15
2.302442e+15
2.339353e+15
2.349981e+15
2.312796e+15
2.318114e+15
2.382095e+15
2.401498e+15
2.448522e+15
2.48491e+15
2.501126e+15
2.499272e+15
2.458433e+15
2.404259e+15
2.305626e+15
2.320596e+15
3.159995e+15
3.032544e+15
3.039538e+15
2.979649e+15
2.902798e+15
2.818735e+15
2.727858e+15
2.655812e+15
2.593263e+15
2.535377e+15
2.388763e+15
2.109335e+15
1.850783e+15
1.765427e+15
1.960053e+15
2.126554e+15
2.214502e+15
2.259998e+15
2.283219e+15
2.29547e+15
2.315794e+15
2.361147e+15
2.398515e+15
2.444129e+15
2.496896e+15
2.575654e+15
2.628158e+15
2.651967e+15
2.642959e+15
2.596506e+15
2.499181e+15
2.396187e+15
2.323904e+15
2.195672e+15
3.053134e+15
2.970402e+15
2.977681e+15
2.924303e+15
2.864572e+15
2.800566e+15
2.7291e+15
2.664362e+15
2.600549e+15
2.551718e+15
2.409693e+15
2.120202e+15
1.777872e+15
1.644793e+15
1.933753e+15
2.14527e+15
2.266033e+15
2.338822e+15
2.392098e+15
2.436163e+15
2.476371e+15
2.51501e+15
2.553854e+15
2.600271e+15
2.647536e+15
2.708472e+15
2.758591e+15
2.774052e+15
2.751561e+15
2.68264e+15
2.538826e+15
2.444688e+15
2.256737e+15
2.145042e+15
2.989507e+15
2.918036e+15
2.91809e+15
2.867401e+15
2.820764e+15
2.77812e+15
2.7298e+15
2.681423e+15
2.62379e+15
2.579303e+15
2.481003e+15
2.288299e+15
2.096474e+15
2.107968e+15
2.204774e+15
2.299689e+15
2.37124e+15
2.42378e+15
2.46837e+15
2.513935e+15
2.563844e+15
2.618534e+15
2.673801e+15
2.72654e+15
2.780854e+15
2.832697e+15
2.87374e+15
2.876934e+15
2.842271e+15
2.758429e+15
2.59532e+15
2.497824e+15
2.287759e+15
2.194473e+15
2.945441e+15
2.868778e+15
2.863414e+15
2.81475e+15
2.774015e+15
2.747471e+15
2.721002e+15
2.694145e+15
2.653498e+15
2.613831e+15
2.553612e+15
2.452534e+15
2.372164e+15
2.384994e+15
2.426593e+15
2.463738e+15
2.493582e+15
2.523086e+15
2.559779e+15
2.608286e+15
2.668115e+15
2.735463e+15
2.803015e+15
2.863934e+15
2.918231e+15
2.961849e+15
2.985409e+15
2.967199e+15
2.916493e+15
2.818959e+15
2.655067e+15
2.556362e+15
2.357918e+15
2.276546e+15
2.916518e+15
2.826701e+15
2.818593e+15
2.772212e+15
2.729905e+15
2.708766e+15
2.697032e+15
2.689616e+15
2.670123e+15
2.647734e+15
2.614341e+15
2.568799e+15
2.541125e+15
2.545843e+15
2.555777e+15
2.563518e+15
2.575978e+15
2.601777e+15
2.645837e+15
2.708159e+15
2.784827e+15
2.868284e+15
2.947441e+15
3.013117e+15
3.063889e+15
3.094179e+15
3.092348e+15
3.043623e+15
2.973107e+15
2.855932e+15
2.694189e+15
2.592657e+15
2.416683e+15
2.310304e+15
3.003124e+15
2.790626e+15
2.785104e+15
2.740023e+15
2.697016e+15
2.672524e+15
2.663601e+15
2.665655e+15
2.664723e+15
2.658544e+15
2.644604e+15
2.626176e+15
2.619282e+15
2.614871e+15
2.610374e+15
2.613135e+15
2.632844e+15
2.675315e+15
2.740627e+15
2.824178e+15
2.919993e+15
3.017468e+15
3.10206e+15
3.16477e+15
3.202451e+15
3.209321e+15
3.175204e+15
3.092891e+15
3.00585e+15
2.864373e+15
2.709597e+15
2.592949e+15
2.44569e+15
2.273787e+15
2.809767e+15
2.778643e+15
2.743113e+15
2.681404e+15
2.636493e+15
2.618227e+15
2.619612e+15
2.627662e+15
2.631955e+15
2.632211e+15
2.633743e+15
2.627543e+15
2.620253e+15
2.62522e+15
2.651109e+15
2.701092e+15
2.773256e+15
2.863238e+15
2.965037e+15
3.074077e+15
3.175881e+15
3.254097e+15
3.304364e+15
3.318201e+15
3.296159e+15
3.216163e+15
3.105429e+15
3.010398e+15
2.844667e+15
2.724106e+15
2.553608e+15
2.377786e+15
2.837373e+15
2.736432e+15
2.712187e+15
2.661327e+15
2.600865e+15
2.564108e+15
2.547446e+15
2.549432e+15
2.553847e+15
2.562971e+15
2.571262e+15
2.584878e+15
2.61547e+15
2.666828e+15
2.736487e+15
2.819725e+15
2.912529e+15
3.013736e+15
3.120641e+15
3.23207e+15
3.323876e+15
3.383967e+15
3.411768e+15
3.388065e+15
3.33565e+15
3.206215e+15
3.09228e+15
2.989345e+15
2.809266e+15
2.715943e+15
2.483634e+15
2.412722e+15
2.895388e+15
2.74476e+15
2.715049e+15
2.669866e+15
2.620139e+15
2.571857e+15
2.539316e+15
2.535134e+15
2.549554e+15
2.57535e+15
2.612381e+15
2.667242e+15
2.737359e+15
2.81649e+15
2.898954e+15
2.982147e+15
3.068441e+15
3.162865e+15
3.264062e+15
3.371018e+15
3.440521e+15
3.481e+15
3.479884e+15
3.420086e+15
3.336394e+15
3.167229e+15
3.071501e+15
2.942678e+15
2.779766e+15
2.674313e+15
2.452362e+15
2.403508e+15
2.972194e+15
2.792821e+15
2.762415e+15
2.74938e+15
2.703094e+15
2.669633e+15
2.650857e+15
2.65797e+15
2.686914e+15
2.727171e+15
2.783599e+15
2.852315e+15
2.923314e+15
2.990629e+15
3.053568e+15
3.117041e+15
3.189638e+15
3.27743e+15
3.374604e+15
3.476386e+15
3.516638e+15
3.541733e+15
3.508357e+15
3.423426e+15
3.325723e+15
3.149978e+15
3.062855e+15
2.935073e+15
2.797872e+15
2.61707e+15
2.436161e+15
2.406641e+15
2.893857e+15
2.813332e+15
2.811114e+15
2.829896e+15
2.81622e+15
2.807429e+15
2.834918e+15
2.876464e+15
2.919649e+15
2.963819e+15
3.016157e+15
3.058122e+15
3.105813e+15
3.146191e+15
3.196985e+15
3.266138e+15
3.355589e+15
3.452812e+15
3.54563e+15
3.558675e+15
3.580203e+15
3.528917e+15
3.434734e+15
3.351346e+15
3.18169e+15
3.077131e+15
2.967266e+15
2.787618e+15
2.524331e+15
2.470083e+15
2.915253e+15
2.911204e+15
2.844272e+15
2.933606e+15
2.972415e+15
3.003867e+15
3.046436e+15
3.063824e+15
3.05736e+15
3.078803e+15
3.117928e+15
3.136102e+15
3.172589e+15
3.193263e+15
3.245058e+15
3.316497e+15
3.408907e+15
3.50787e+15
3.591638e+15
3.595835e+15
3.619588e+15
3.563673e+15
3.492135e+15
3.436097e+15
3.244675e+15
3.130946e+15
2.980423e+15
2.734324e+15
2.614441e+15
2.500739e+15
2.92901e+15
2.946709e+15
3.041203e+15
3.131101e+15
3.13861e+15
3.2021e+15
3.179671e+15
3.139938e+15
3.15678e+15
3.18699e+15
3.185118e+15
3.223241e+15
3.233748e+15
3.291252e+15
3.365107e+15
3.457543e+15
3.558841e+15
3.635142e+15
3.650017e+15
3.673034e+15
3.637781e+15
3.585743e+15
3.517191e+15
3.312422e+15
3.197439e+15
3.018879e+15
2.824614e+15
2.635451e+15
2.929791e+15
3.081803e+15
3.189431e+15
3.238988e+15
3.297617e+15
3.27327e+15
3.228717e+15
3.257596e+15
3.269185e+15
3.243726e+15
3.286089e+15
3.290656e+15
3.356706e+15
3.432097e+15
3.521807e+15
3.619808e+15
3.696195e+15
3.733876e+15
3.743895e+15
3.712154e+15
3.655614e+15
3.584332e+15
3.373344e+15
3.239449e+15
3.067202e+15
2.936648e+15
3.027576e+15
3.18674e+15
3.278685e+15
3.378296e+15
3.35487e+15
3.331117e+15
3.361445e+15
3.362443e+15
3.329801e+15
3.375079e+15
3.377489e+15
3.446141e+15
3.517348e+15
3.602834e+15
3.694527e+15
3.759687e+15
3.79732e+15
3.79215e+15
3.758156e+15
3.705541e+15
3.642584e+15
3.422382e+15
3.333571e+15
3.242468e+15
3.14733e+15
3.307003e+15
3.3132e+15
3.371223e+15
3.397866e+15
3.42259e+15
3.449133e+15
3.41651e+15
3.455194e+15
3.455273e+15
3.518239e+15
3.582839e+15
3.658697e+15
3.740653e+15