/*--------------------------------*- C++ -*----------------------------------*\
  =========                 |
  \\      /  F ield         | OpenFOAM: The Open Source CFD Toolbox
   \\    /   O peration     | Website:  https://openfoam.org
    \\  /    A nd           | Version:  6
     \\/     M anipulation  |
\*---------------------------------------------------------------------------*/
FoamFile
{
    version     2.0;
    format      ascii;
    class       volScalarField;
    location    "49.8/region0/neutronTransport";
    object      precursor0.dnp;
}
// * * * * * * * * * * * * * * * * * * * * * * * * * * * * * * * * * * * * * //

dimensions      [0 -3 0 0 0 0 0];

internalField   nonuniform List<scalar> 
203709
(
5.869371e+14
6.457576e+14
6.456881e+14
5.870876e+14
6.133796e+14
6.866707e+14
8.500938e+14
8.411537e+14
8.410617e+14
8.500709e+14
6.86624e+14
6.134541e+14
5.992713e+14
6.890936e+14
8.611526e+14
8.587062e+14
8.831357e+14
8.892326e+14
8.892084e+14
8.83107e+14
8.586501e+14
8.611798e+14
6.891331e+14
5.993865e+14
5.992558e+14
8.369994e+14
8.548692e+14
8.884295e+14
9.058885e+14
9.212378e+14
9.28038e+14
9.28076e+14
9.212307e+14
9.058839e+14
8.885311e+14
8.550352e+14
8.37278e+14
5.995243e+14
6.889618e+14
8.547746e+14
8.934173e+14
9.208527e+14
9.41645e+14
9.566732e+14
9.641602e+14
9.642062e+14
9.566987e+14
9.417277e+14
9.210443e+14
8.936711e+14
8.551044e+14
6.892729e+14
6.132696e+14
8.609506e+14
8.882959e+14
9.207772e+14
9.490401e+14
9.713534e+14
9.868489e+14
9.945537e+14
9.945863e+14
9.869438e+14
9.715401e+14
9.492644e+14
9.210781e+14
8.886943e+14
8.614259e+14
6.135737e+14
6.864267e+14
8.58406e+14
9.056351e+14
9.414445e+14
9.712685e+14
9.944582e+14
1.009924e+15
1.01726e+15
1.017299e+15
1.010076e+15
9.946494e+14
9.714987e+14
9.417814e+14
9.060211e+14
8.58786e+14
6.867759e+14
5.869639e+14
8.499475e+14
8.829182e+14
9.210066e+14
9.56503e+14
9.867329e+14
1.009889e+15
1.024276e+15
1.031407e+15
1.031407e+15
1.024299e+15
1.009883e+15
9.867976e+14
9.566538e+14
9.212319e+14
8.83206e+14
8.503402e+14
5.870754e+14
6.455837e+14
8.409432e+14
8.889812e+14
9.278286e+14
9.639616e+14
9.943746e+14
1.017209e+15
1.031466e+15
1.039228e+15
1.039002e+15
1.031428e+15
1.017244e+15
9.945059e+14
9.641228e+14
9.280219e+14
8.892684e+14
8.412232e+14
6.457955e+14
6.456522e+14
8.411095e+14
8.890703e+14
9.278295e+14
9.639306e+14
9.943258e+14
1.017129e+15
1.031436e+15
1.039416e+15
1.039198e+15
1.031478e+15
1.017259e+15
9.944902e+14
9.641344e+14
9.28031e+14
8.892784e+14
8.413282e+14
6.459076e+14
5.868209e+14
8.501168e+14
8.829968e+14
9.21015e+14
9.564472e+14
9.866262e+14
1.009763e+15
1.024224e+15
1.031475e+15
1.031466e+15
1.024369e+15
1.009986e+15
9.868442e+14
9.566689e+14
9.212254e+14
8.831979e+14
8.502583e+14
5.871118e+14
6.864224e+14
8.58436e+14
9.056374e+14
9.414108e+14
9.711362e+14
9.942932e+14
1.009761e+15
1.017183e+15
1.017174e+15
1.009973e+15
9.94544e+14
9.714002e+14
9.416389e+14
9.058387e+14
8.586683e+14
6.867002e+14
6.132444e+14
8.609351e+14
8.881841e+14
9.206302e+14
9.488233e+14
9.711389e+14
9.865896e+14
9.94403e+14
9.944134e+14
9.868141e+14
9.714058e+14
9.491473e+14
9.209526e+14
8.884984e+14
8.61231e+14
6.13465e+14
6.888783e+14
8.546025e+14
8.932214e+14
9.206404e+14
9.414119e+14
9.564821e+14
9.644171e+14
9.644385e+14
9.566103e+14
9.416365e+14
9.209331e+14
8.935701e+14
8.550259e+14
6.892008e+14
5.991938e+14
8.368928e+14
8.546641e+14
8.882302e+14
9.056382e+14
9.210418e+14
9.282497e+14
9.28286e+14
9.211496e+14
9.058227e+14
8.88445e+14
8.549132e+14
8.372073e+14
5.993432e+14
5.992515e+14
6.889669e+14
8.609842e+14
8.584333e+14
8.830059e+14
8.893602e+14
8.894591e+14
8.831036e+14
8.586348e+14
8.61147e+14
6.890377e+14
5.993241e+14
6.133498e+14
6.865197e+14
8.501023e+14
8.41487e+14
8.416283e+14
8.501864e+14
6.866014e+14
6.133733e+14
5.870375e+14
6.457699e+14
6.458284e+14
5.870468e+14
4.918221e+14
5.590419e+14
5.818149e+14
5.974445e+14
6.072193e+14
6.072273e+14
5.974733e+14
5.818566e+14
5.591166e+14
4.919477e+14
5.016372e+14
5.84519e+14
7.445336e+14
7.688462e+14
7.965964e+14
8.271573e+14
8.513487e+14
8.513656e+14
8.272472e+14
7.966048e+14
7.687422e+14
7.443741e+14
5.843503e+14
5.015146e+14
5.134494e+14
7.322431e+14
7.733908e+14
8.328869e+14
8.893316e+14
9.363044e+14
9.969644e+14
1.047007e+15
1.047008e+15
9.969931e+14
9.361259e+14
8.890616e+14
8.327338e+14
7.732979e+14
7.3234e+14
5.135292e+14
5.18526e+14
7.459499e+14
8.129984e+14
8.861948e+14
9.620839e+14
1.070109e+15
1.203888e+15
1.33687e+15
1.384602e+15
1.38457e+15
1.336669e+15
1.203685e+15
1.069987e+15
9.620605e+14
8.862184e+14
8.130675e+14
7.459795e+14
5.186376e+14
5.134282e+14
7.458719e+14
8.212152e+14
9.069628e+14
1.049428e+15
1.22117e+15
1.405971e+15
1.54188e+15
1.643048e+15
1.807327e+15
1.807249e+15
1.642945e+15
1.541697e+15
1.40572e+15
1.221109e+15
1.049352e+15
9.070338e+14
8.212618e+14
7.459259e+14
5.13538e+14
5.016831e+14
7.324564e+14
8.130559e+14
9.070215e+14
1.102014e+15
1.362417e+15
1.541217e+15
1.688287e+15
1.924898e+15
2.030847e+15
2.093356e+15
2.093246e+15
2.030558e+15
1.924508e+15
1.68795e+15
1.540904e+15
1.362114e+15
1.101919e+15
9.069776e+14
8.131091e+14
7.32569e+14
5.01827e+14
5.844208e+14
7.733846e+14
8.862076e+14
1.049419e+15
1.362317e+15
1.612238e+15
1.896406e+15
2.053777e+15
2.17673e+15
2.25264e+15
2.291273e+15
2.291174e+15
2.252351e+15
2.176384e+15
2.053463e+15
1.89615e+15
1.612143e+15
1.3624e+15
1.04954e+15
8.864608e+14
7.736906e+14
5.846659e+14
4.920008e+14
7.44522e+14
8.327594e+14
9.620232e+14
1.221041e+15
1.541187e+15
1.896283e+15
2.109886e+15
2.247787e+15
2.34321e+15
2.403827e+15
2.433739e+15
2.433701e+15
2.403715e+15
2.343152e+15
2.247847e+15
2.110089e+15
1.896687e+15
1.541784e+15
1.221717e+15
9.626068e+14
8.332077e+14
7.447781e+14
4.920676e+14
5.59203e+14
7.690188e+14
8.89207e+14
1.070132e+15
1.406167e+15
1.688365e+15
2.053654e+15
2.247704e+15
2.372885e+15
2.457412e+15
2.510912e+15
2.537037e+15
2.537076e+15
2.511035e+15
2.457677e+15
2.3733e+15
2.248292e+15
2.054409e+15
1.689187e+15
1.406963e+15
1.070614e+15
8.896941e+14
7.692556e+14
5.592908e+14
5.819674e+14
7.968482e+14
9.36242e+14
1.203774e+15
1.542214e+15
1.925004e+15
2.176614e+15
2.343069e+15
2.45735e+15
2.535872e+15
2.585783e+15
2.610251e+15
2.61033e+15
2.586034e+15
2.536289e+15
2.457897e+15
2.343732e+15
2.177304e+15
1.925593e+15
1.542517e+15
1.204379e+15
9.367418e+14
7.969989e+14
5.820377e+14
5.975709e+14
8.274719e+14
9.972408e+14
1.337255e+15
1.643571e+15
2.031173e+15
2.252676e+15
2.403757e+15
2.510862e+15
2.585774e+15
2.633434e+15
2.656818e+15
2.656787e+15
2.633419e+15
2.585782e+15
2.510955e+15
2.403968e+15
2.252974e+15
2.031474e+15
1.643799e+15
1.337636e+15
9.974889e+14
8.276156e+14
5.977173e+14
6.072617e+14
8.515157e+14
1.047191e+15
1.385115e+15
1.80803e+15
2.093936e+15
2.291556e+15
2.433814e+15
2.537026e+15
2.610303e+15
2.657026e+15
2.680112e+15
2.679985e+15
2.656997e+15
2.610387e+15
2.537212e+15
2.434046e+15
2.291819e+15
2.094209e+15
1.808326e+15
1.38549e+15
1.047584e+15
8.518124e+14
6.074883e+14
6.071578e+14
8.513579e+14
1.047033e+15
1.385026e+15
1.808093e+15
2.094085e+15
2.291773e+15
2.433937e+15
2.537011e+15
2.610212e+15
2.657019e+15
2.680313e+15
2.680284e+15
2.657286e+15
2.61067e+15
2.537472e+15
2.434279e+15
2.292029e+15
2.094416e+15
1.808505e+15
1.385455e+15
1.047474e+15
8.517158e+14
6.074228e+14
5.973142e+14
8.27254e+14
9.972589e+14
1.337414e+15
1.643633e+15
2.031477e+15
2.253031e+15
2.40399e+15
2.510903e+15
2.585675e+15
2.633395e+15
2.657041e+15
2.657217e+15
2.633998e+15
2.586449e+15
2.511611e+15
2.404556e+15
2.253496e+15
2.031964e+15
1.644204e+15
1.33788e+15
9.977079e+14
8.276924e+14
5.976314e+14
5.817504e+14
7.967571e+14
9.36476e+14
1.204098e+15
1.542373e+15
1.925343e+15
2.176954e+15
2.343264e+15
2.457331e+15
2.535698e+15
2.585576e+15
2.610185e+15
2.610384e+15
2.586254e+15
2.536605e+15
2.458262e+15
2.344097e+15
2.177658e+15
1.925964e+15
1.543009e+15
1.204477e+15
9.368078e+14
7.972452e+14
5.82107e+14
5.590612e+14
7.689983e+14
8.89447e+14
1.07025e+15
1.406502e+15
1.688666e+15
2.053868e+15
2.247736e+15
2.372722e+15
2.457153e+15
2.51065e+15
2.536905e+15
2.537088e+15
2.511296e+15
2.458101e+15
2.373812e+15
2.248809e+15
2.054783e+15
1.689255e+15
1.406931e+15
1.070742e+15
8.897569e+14
7.694558e+14
5.594016e+14
4.918732e+14
7.44539e+14
8.329265e+14
9.6209e+14
1.221335e+15
1.541372e+15
1.896347e+15
2.109783e+15
2.247571e+15
2.342967e+15
2.403694e+15
2.433736e+15
2.433919e+15
2.404284e+15
2.343894e+15
2.248701e+15
2.110965e+15
1.897378e+15
1.542007e+15
1.221754e+15
9.625645e+14
8.332036e+14
7.449133e+14
4.921772e+14
5.845536e+14
7.734163e+14
8.861422e+14
1.04942e+15
1.362348e+15
1.61214e+15
1.896252e+15
2.05366e+15
2.176687e+15
2.252821e+15
2.291559e+15
2.291744e+15
2.253358e+15
2.177528e+15
2.054684e+15
1.897353e+15
1.613082e+15
1.362979e+15
1.049863e+15
8.866387e+14
7.736706e+14
5.846205e+14
5.017838e+14
7.323468e+14
8.129746e+14
9.069661e+14
1.101989e+15
1.362363e+15
1.541356e+15
1.688611e+15
1.925303e+15
2.031553e+15
2.094206e+15
2.094408e+15
2.032005e+15
1.925942e+15
1.689258e+15
1.542104e+15
1.363093e+15
1.10248e+15
9.073375e+14
8.133899e+14
7.326089e+14
5.016971e+14
5.135552e+14
7.461044e+14
8.213637e+14
9.069783e+14
1.049441e+15
1.22139e+15
1.40663e+15
1.542663e+15
1.64399e+15
1.808398e+15
1.80859e+15
1.644308e+15
1.542949e+15
1.406857e+15
1.221798e+15
1.049852e+15
9.072962e+14
8.216067e+14
7.463276e+14
5.135798e+14
5.186922e+14
7.460875e+14
8.131087e+14
8.864147e+14
9.623604e+14
1.070303e+15
1.204289e+15
1.337806e+15
1.385577e+15
1.385644e+15
1.33779e+15
1.204373e+15
1.070556e+15
9.624534e+14
8.864857e+14
8.132097e+14
7.462163e+14
5.187535e+14
5.134544e+14
7.32516e+14
7.735977e+14
8.33018e+14
8.894721e+14
9.367084e+14
9.976191e+14
1.047639e+15
1.047642e+15
9.975852e+14
9.365789e+14
8.895216e+14
8.331495e+14
7.736524e+14
7.325069e+14
5.134623e+14
5.018386e+14
5.846243e+14
7.447237e+14
7.692463e+14
7.971092e+14
8.27683e+14
8.518673e+14
8.518777e+14
8.276722e+14
7.970229e+14
7.691497e+14
7.448342e+14
5.846989e+14
5.01828e+14
4.919619e+14
5.591762e+14
5.819103e+14
5.975193e+14
6.073393e+14
6.073343e+14
5.976218e+14
5.820191e+14
5.592404e+14
4.919361e+14
4.168303e+14
4.72631e+14
4.866149e+14
4.919958e+14
4.918877e+14
4.862924e+14
4.720543e+14
4.16369e+14
4.163706e+14
4.994143e+14
5.469128e+14
6.889396e+14
7.147056e+14
7.297836e+14
7.366509e+14
7.365445e+14
7.294454e+14
7.141649e+14
6.886892e+14
5.467835e+14
4.993517e+14
4.165178e+14
4.591949e+14
6.679692e+14
7.31935e+14
8.071387e+14
8.893879e+14
9.275823e+14
9.510588e+14
9.620805e+14
9.619885e+14
9.50786e+14
9.271546e+14
8.889426e+14
8.069082e+14
7.317905e+14
6.679207e+14
4.594344e+14
4.302857e+14
5.348139e+14
7.18456e+14
8.540906e+14
1.000518e+15
1.16463e+15
1.24816e+15
1.296828e+15
1.329225e+15
1.346028e+15
1.345922e+15
1.328928e+15
1.296391e+15
1.247677e+15
1.164225e+15
1.000251e+15
8.540849e+14
7.183616e+14
5.34895e+14
4.303126e+14
4.3435e+14
6.548951e+14
7.603836e+14
9.45982e+14
1.186073e+15
1.356277e+15
1.498661e+15
1.723279e+15
1.828216e+15
1.890028e+15
1.920799e+15
1.920709e+15
1.889808e+15
1.827955e+15
1.723125e+15
1.498786e+15
1.356486e+15
1.186154e+15
9.458754e+14
7.605389e+14
6.548785e+14
4.343862e+14
4.302694e+14
6.55029e+14
7.852041e+14
9.843341e+14
1.272862e+15
1.485409e+15
1.774531e+15
1.961592e+15
2.12386e+15
2.244383e+15
2.326132e+15
2.366916e+15
2.366827e+15
2.325943e+15
2.244051e+15
2.123521e+15
1.961426e+15
1.774474e+15
1.485396e+15
1.272934e+15
9.844788e+14
7.851112e+14
6.549515e+14
4.302863e+14
5.350197e+14
7.606118e+14
9.844706e+14
1.293301e+15
1.535618e+15
1.876271e+15
2.126071e+15
2.329697e+15
2.503623e+15
2.644217e+15
2.74449e+15
2.785717e+15
2.785598e+15
2.744142e+15
2.643734e+15
2.503205e+15
2.329491e+15
2.126015e+15
1.876316e+15
1.535679e+15
1.293208e+15
9.844329e+14
7.606013e+14
5.350174e+14
4.596236e+14
7.185657e+14
9.460208e+14
1.273212e+15
1.535659e+15
1.906984e+15
2.203074e+15
2.463016e+15
2.687354e+15
2.876864e+15
3.018308e+15
3.118897e+15
3.176923e+15
3.176765e+15
3.118467e+15
3.017697e+15
2.876233e+15
2.686856e+15
2.462693e+15
2.203011e+15
1.907027e+15
1.535792e+15
1.273192e+15
9.460541e+14
7.185889e+14
4.595083e+14
4.164704e+14
6.681719e+14
8.542962e+14
1.186299e+15
1.486077e+15
1.876883e+15
2.203421e+15
2.510962e+15
2.790842e+15
3.01899e+15
3.207023e+15
3.363824e+15
3.474092e+15
3.533699e+15
3.533499e+15
3.473538e+15
3.363038e+15
3.206182e+15
3.018189e+15
2.790229e+15
2.51065e+15
2.20328e+15
1.876846e+15
1.486077e+15
1.186163e+15
8.544403e+14
6.681587e+14
4.163731e+14
4.996442e+14
7.322309e+14
1.000665e+15
1.357019e+15
1.775393e+15
2.126988e+15
2.463564e+15
2.791017e+15
3.070669e+15
3.317678e+15
3.517473e+15
3.672709e+15
3.776985e+15
3.830181e+15
3.829973e+15
3.776419e+15
3.671946e+15
3.516682e+15
3.316988e+15
3.070233e+15
2.790885e+15
2.463607e+15
2.127148e+15
1.775576e+15
1.356934e+15
1.000961e+15
7.323891e+14
4.996194e+14
5.470876e+14
8.072791e+14
1.164609e+15
1.499734e+15
1.962616e+15
2.330668e+15
2.687897e+15
3.019219e+15
3.317655e+15
3.573988e+15
3.773178e+15
3.920141e+15
4.016898e+15
4.065139e+15
4.065014e+15
4.016578e+15
3.919788e+15
3.772947e+15
3.573995e+15
3.317995e+15
3.019903e+15
2.688748e+15
2.331459e+15
1.963247e+15
1.499972e+15
1.165391e+15
8.076729e+14
5.471752e+14
4.16914e+14
6.89258e+14
8.893814e+14
1.248335e+15
1.724386e+15
2.12498e+15
2.504611e+15
2.877635e+15
3.207448e+15
3.517516e+15
3.77314e+15
3.967535e+15
4.10781e+15
4.199066e+15
4.244154e+15
4.244168e+15
4.199119e+15
4.108014e+15
3.968e+15
3.773937e+15
3.518657e+15
3.208846e+15
2.879102e+15
2.505851e+15
2.125937e+15
1.724953e+15
1.2492e+15
8.898853e+14
6.89217e+14
4.168856e+14
4.724661e+14
7.147434e+14
9.277783e+14
1.297365e+15
1.829418e+15
2.245622e+15
2.645269e+15
3.019333e+15
3.364523e+15
3.672968e+15
3.920198e+15
4.107844e+15
4.242843e+15
4.330456e+15
4.373719e+15
4.373802e+15
4.330728e+15
4.243382e+15
4.108662e+15
3.921254e+15
3.674148e+15
3.365717e+15
3.020499e+15
2.64644e+15
2.24646e+15
1.82992e+15
1.297947e+15
9.281152e+14
7.149335e+14
4.725885e+14
4.86605e+14
7.299342e+14
9.514204e+14
1.330095e+15
1.891503e+15
2.327682e+15
2.745996e+15
3.120361e+15
3.475262e+15
3.77766e+15
4.017235e+15
4.199253e+15
4.330538e+15
4.415756e+15
4.457782e+15
4.457767e+15
4.41577e+15
4.330641e+15
4.199502e+15
4.017652e+15
3.778231e+15
3.475929e+15
3.121109e+15
2.746812e+15
2.328245e+15
1.891769e+15
1.330364e+15
9.516639e+14
7.301048e+14
4.866704e+14
4.921689e+14
7.370451e+14
9.626554e+14
1.347161e+15
1.922515e+15
2.368708e+15
2.787564e+15
3.178824e+15
3.535449e+15
3.831422e+15
4.065897e+15
4.244583e+15
4.373988e+15
4.458101e+15
4.499629e+15
4.499618e+15
4.458195e+15
4.374225e+15
4.244931e+15
4.066301e+15
3.831896e+15
3.535988e+15
3.179511e+15
2.788318e+15
2.369215e+15
1.922661e+15
1.34723e+15
9.62766e+14
7.370999e+14
4.922154e+14
4.921987e+14
7.370736e+14
9.626753e+14
1.347221e+15
1.922578e+15
2.368841e+15
2.787742e+15
3.178998e+15
3.535693e+15
3.831826e+15
4.066222e+15
4.244685e+15
4.373936e+15
4.458089e+15
4.499794e+15
4.49996e+15
4.458652e+15
4.374739e+15
4.245446e+15
4.066779e+15
3.832323e+15
3.536371e+15
3.179831e+15
2.788543e+15
2.369386e+15
1.922764e+15
1.347228e+15
9.627364e+14
7.370773e+14
4.922307e+14
4.867388e+14
7.30097e+14
9.515356e+14
1.330285e+15
1.891686e+15
2.328161e+15
2.746647e+15
3.120962e+15
3.475976e+15
3.778462e+15
4.017904e+15
4.199622e+15
4.33061e+15
4.41576e+15
4.458021e+15
4.458365e+15
4.416705e+15
4.331799e+15
4.200737e+15
4.018838e+15
3.779302e+15
3.476869e+15
3.121901e+15
2.747484e+15
2.328844e+15
1.892073e+15
1.330316e+15
9.516397e+14
7.3015e+14
4.868021e+14
4.727465e+14
7.150076e+14
9.279805e+14
1.297728e+15
1.829686e+15
2.246254e+15
2.64622e+15
3.020297e+15
3.36552e+15
3.673925e+15
3.92092e+15
4.108207e+15
4.242871e+15
4.330317e+15
4.373666e+15
4.373998e+15
4.33127e+15
4.244193e+15
4.109635e+15
3.922274e+15
3.67513e+15
3.366592e+15
3.021261e+15
2.64702e+15
2.247e+15
1.830237e+15
1.29772e+15
9.281158e+14
7.151325e+14
4.728314e+14
4.172347e+14
6.893907e+14
8.89802e+14
1.248978e+15
1.724586e+15
2.125537e+15
2.505359e+15
2.878611e+15
3.20843e+15
3.518351e+15
3.773678e+15
3.967738e+15
4.107773e+15
4.198958e+15
4.244173e+15
4.244481e+15
4.199886e+15
4.10918e+15
3.969422e+15
3.775412e+15
3.519926e+15
3.20973e+15
2.87971e+15
2.506349e+15
2.126305e+15
1.725238e+15
1.248842e+15
8.899261e+14
6.896687e+14
4.17295e+14
5.472557e+14
8.076608e+14
1.16537e+15
1.499708e+15
1.962986e+15
2.33102e+15
2.688533e+15
3.019865e+15
3.318126e+15
3.574234e+15
3.773259e+15
3.920187e+15
4.017073e+15
4.065538e+15
4.065864e+15
4.018047e+15
3.921715e+15
3.77517e+15
3.576292e+15
3.320056e+15
3.021464e+15
2.689891e+15
2.332171e+15
1.96372e+15
1.500473e+15
1.165116e+15
8.076961e+14
5.474105e+14
4.996278e+14
7.324121e+14
1.00114e+15
1.357195e+15
1.775708e+15
2.127057e+15
2.463733e+15
2.791248e+15
3.070832e+15
3.317852e+15
3.517792e+15
3.673261e+15
3.777882e+15
3.831396e+15
3.831733e+15
3.778865e+15
3.674799e+15
3.519749e+15
3.320036e+15
3.072959e+15
2.793075e+15
2.465273e+15
2.128229e+15
1.776342e+15
1.357876e+15
1.001135e+15
7.325698e+14
4.998978e+14
4.163318e+14
6.684664e+14
8.546947e+14
1.186598e+15
1.486339e+15
1.876962e+15
2.203539e+15
2.511211e+15
2.791221e+15
3.019659e+15
3.20812e+15
3.365315e+15
3.476044e+15
3.536014e+15
3.53633e+15
3.476905e+15
3.366623e+15
3.209787e+15
3.021602e+15
2.793189e+15
2.512963e+15
2.205009e+15
1.878009e+15
1.48672e+15
1.187158e+15
8.546775e+14
6.684665e+14
4.167154e+14
4.594376e+14
7.187714e+14
9.463572e+14
1.273316e+15
1.536056e+15
1.907417e+15
2.203723e+15
2.463926e+15
2.688656e+15
2.878725e+15
3.020615e+15
3.121627e+15
3.179963e+15
3.180218e+15
3.122273e+15
3.021533e+15
2.879897e+15
2.690076e+15
2.465374e+15
2.20505e+15
1.908565e+15
1.536903e+15
1.273962e+15
9.466535e+14
7.188969e+14
4.596306e+14
5.350649e+14
7.608368e+14
9.847764e+14
1.29375e+15
1.536141e+15
1.877367e+15
2.127582e+15
2.331545e+15
2.505781e+15
2.646821e+15
2.747619e+15
2.789144e+15
2.789287e+15
2.747988e+15
2.647395e+15
2.506564e+15
2.332353e+15
2.128398e+15
1.878161e+15
1.536852e+15
1.294262e+15
9.850663e+14
7.609157e+14
5.351056e+14
4.305141e+14
6.553039e+14
7.855513e+14
9.848344e+14
1.273854e+15
1.486772e+15
1.776081e+15
1.963493e+15
2.126114e+15
2.247011e+15
2.329144e+15
2.370108e+15
2.370175e+15
2.329394e+15
2.247326e+15
2.126507e+15
1.963991e+15
1.776704e+15
1.487264e+15
1.274211e+15
9.850981e+14
7.856763e+14
6.553421e+14
4.304759e+14
4.344649e+14
6.55354e+14
7.610599e+14
9.464663e+14
1.18669e+15
1.357233e+15
1.50017e+15
1.72506e+15
1.83019e+15
1.892276e+15
1.92319e+15
1.923202e+15
1.892531e+15
1.830598e+15
1.725481e+15
1.500474e+15
1.357824e+15
1.187291e+15
9.468417e+14
7.611784e+14
6.554328e+14
4.344905e+14
4.305455e+14
5.35305e+14
7.188346e+14
8.547055e+14
1.001009e+15
1.165227e+15
1.248731e+15
1.297459e+15
1.330152e+15
1.347726e+15
1.347596e+15
1.330553e+15
1.298075e+15
1.249378e+15
1.165819e+15
1.001481e+15
8.549762e+14
7.190348e+14
5.352686e+14
4.30587e+14
4.595489e+14
6.683214e+14
7.3243e+14
8.075801e+14
8.896413e+14
9.277835e+14
9.513914e+14
9.628063e+14
9.626344e+14
9.515423e+14
9.279859e+14
8.898492e+14
8.07679e+14
7.324323e+14
6.686413e+14
4.595425e+14
4.163589e+14
4.996955e+14
5.471737e+14
6.893487e+14
7.148148e+14
7.299245e+14
7.373038e+14
7.372349e+14
7.299049e+14
7.147728e+14
6.894274e+14
5.471533e+14
4.996012e+14
4.165261e+14
4.170756e+14
4.725398e+14
4.865279e+14
4.921828e+14
4.921363e+14
4.86461e+14
4.724094e+14
4.167731e+14
3.699307e+14
4.169178e+14
4.274192e+14
4.272959e+14
4.165393e+14
3.696648e+14
3.555865e+14
4.421194e+14
4.947055e+14
5.545997e+14
6.888892e+14
7.180209e+14
7.29229e+14
7.289513e+14
7.17304e+14
6.880448e+14
5.544112e+14
4.946331e+14
4.419846e+14
3.556297e+14
3.584693e+14
4.640908e+14
6.445269e+14
7.541231e+14
8.504193e+14
9.885309e+14
1.064968e+15
1.096713e+15
1.112192e+15
1.111838e+15
1.095818e+15
1.064118e+15
9.882447e+14
8.500571e+14
7.53568e+14
6.443095e+14
4.641246e+14
3.586924e+14
4.010169e+14
6.226454e+14
7.792472e+14
1.000358e+15
1.129264e+15
1.256992e+15
1.371473e+15
1.561782e+15
1.635105e+15
1.664377e+15
1.664068e+15
1.634292e+15
1.560801e+15
1.370661e+15
1.256106e+15
1.128527e+15
9.994256e+14
7.791623e+14
6.22519e+14
4.01292e+14
4.296784e+14
6.916495e+14
8.994456e+14
1.150222e+15
1.349245e+15
1.623261e+15
1.801132e+15
1.937777e+15
2.052098e+15
2.122321e+15
2.154738e+15
2.154492e+15
2.121658e+15
2.05122e+15
1.936943e+15
1.800481e+15
1.62281e+15
1.348874e+15
1.149597e+15
8.99345e+14
6.914747e+14
4.297739e+14
4.456355e+14
7.479888e+14
1.03593e+15
1.257804e+15
1.477092e+15
1.835684e+15
2.093089e+15
2.29643e+15
2.440878e+15
2.550514e+15
2.621667e+15
2.656219e+15
2.656045e+15
2.621204e+15
2.549898e+15
2.440253e+15
2.295871e+15
2.092686e+15
1.835569e+15
1.477032e+15
1.257394e+15
1.035546e+15
7.477327e+14
4.455643e+14
4.29806e+14
7.481033e+14
1.082038e+15
1.3394e+15
1.702973e+15
2.003894e+15
2.305067e+15
2.556591e+15
2.765695e+15
2.942069e+15
3.071763e+15
3.154609e+15
3.194977e+15
3.19488e+15
3.154379e+15
3.071528e+15
2.941949e+15
2.76572e+15
2.556676e+15
2.305156e+15
2.003807e+15
1.702834e+15
1.33915e+15
1.081319e+15
7.478322e+14
4.297064e+14
4.01236e+14
6.917683e+14
1.036378e+15
1.339494e+15
1.7473e+15
2.104907e+15
2.437342e+15
2.731535e+15
3.007077e+15
3.241035e+15
3.433351e+15
3.57576e+15
3.66819e+15
3.71341e+15
3.713359e+15
3.668096e+15
3.575688e+15
3.433405e+15
3.241262e+15
3.007393e+15
2.731831e+15
2.437512e+15
2.104972e+15
1.747153e+15
1.339243e+15
1.035917e+15
6.915616e+14
4.011037e+14
3.586529e+14
6.228032e+14
9.000509e+14
1.258177e+15
1.703424e+15
2.105243e+15
2.482962e+15
2.819111e+15
3.144995e+15
3.441321e+15
3.691501e+15
3.894788e+15
4.048312e+15
4.148972e+15
4.196865e+15
4.196765e+15
4.148739e+15
4.048092e+15
3.894755e+15
3.691723e+15
3.441723e+15
3.145435e+15
2.819426e+15
2.48304e+15
2.105137e+15
1.703126e+15
1.257835e+15
8.998199e+14
6.225838e+14
3.585153e+14
4.643498e+14
7.798737e+14
1.150447e+15
1.478171e+15
2.004725e+15
2.43812e+15
2.819579e+15
3.189892e+15
3.536888e+15
3.846063e+15
4.10908e+15
4.321932e+15
4.483158e+15
4.59169e+15
4.647087e+15
4.646931e+15
4.591276e+15
4.482645e+15
4.32154e+15
4.108929e+15
3.846184e+15
3.537208e+15
3.190215e+15
2.819772e+15
2.438036e+15
2.004483e+15
1.477814e+15
1.150228e+15
7.796473e+14
4.643187e+14
3.558859e+14
6.447364e+14
1.000505e+15
1.350031e+15
1.837145e+15
2.306422e+15
2.732912e+15
3.146125e+15
3.537541e+15
3.896722e+15
4.215607e+15
4.487639e+15
4.70999e+15
4.88316e+15
5.002031e+15
5.063157e+15
5.062915e+15
5.001375e+15
4.88228e+15
4.70914e+15
4.486982e+15
4.215264e+15
3.896688e+15
3.537655e+15
3.146241e+15
2.732893e+15
2.306206e+15
1.836794e+15
1.349266e+15
1.000348e+15
6.446092e+14
3.560719e+14
4.420851e+14
7.542587e+14
1.129602e+15
1.624712e+15
2.094764e+15
2.558477e+15
3.009003e+15
3.443083e+15
3.84733e+15
4.216204e+15
4.543194e+15
4.828085e+15
5.062901e+15
5.244152e+15
5.367085e+15
5.429337e+15
5.429046e+15
5.366299e+15
5.243104e+15
5.061874e+15
4.827294e+15
4.542786e+15
4.216191e+15
3.847558e+15
3.443401e+15
3.009236e+15
2.558444e+15
2.094577e+15
1.623944e+15
1.129069e+15
7.540733e+14
4.421922e+14
4.949487e+14
8.509376e+14
1.258021e+15
1.803095e+15
2.298382e+15
2.768103e+15
3.243455e+15
3.693683e+15
4.110702e+15
4.488562e+15
4.828347e+15
5.1249e+15
5.36697e+15
5.550579e+15
5.673623e+15
5.735303e+15
5.735093e+15
5.673079e+15
5.549942e+15
5.366518e+15
5.12484e+15
4.828767e+15
4.489419e+15
4.111794e+15
3.694744e+15
3.244248e+15
2.76845e+15
2.298459e+15
1.802353e+15
1.257117e+15
8.502991e+14
4.946655e+14
5.550543e+14
9.899359e+14
1.373412e+15
1.940174e+15
2.443337e+15
2.94488e+15
3.436115e+15
3.8972e+15
4.323823e+15
4.711187e+15
5.063351e+15
5.36706e+15
5.611854e+15
5.795187e+15
5.916996e+15
5.977746e+15
5.977723e+15
5.91695e+15
5.795319e+15
5.612398e+15
5.368154e+15
5.065006e+15
4.713236e+15
4.325954e+15
3.899059e+15
3.437459e+15
2.945588e+15
2.443532e+15
1.939478e+15
1.372181e+15
9.884604e+14
5.544364e+14
3.7026e+14
6.893006e+14
1.066546e+15
1.564141e+15
2.054858e+15
2.553487e+15
3.074962e+15
3.578781e+15
4.050963e+15
4.48545e+15
4.884848e+15
5.245044e+15
5.550953e+15
5.795361e+15
5.97725e+15
6.09763e+15
6.157585e+15
6.157669e+15
6.09793e+15
5.977928e+15
5.796523e+15
5.552558e+15
5.246913e+15
4.886841e+15
4.487447e+15
4.052751e+15
3.580036e+15
3.075527e+15
2.553496e+15
2.054082e+15
1.562758e+15
1.065057e+15
6.885209e+14
3.698209e+14
4.16935e+14
7.185559e+14
1.09821e+15
1.637582e+15
2.125349e+15
2.625092e+15
3.158252e+15
3.671606e+15
4.152079e+15
4.594623e+15
5.004477e+15
5.368718e+15
5.674565e+15
5.917538e+15
6.097858e+15
6.216998e+15
6.276259e+15
6.276279e+15
6.217107e+15
6.09814e+15
5.918074e+15
5.675393e+15
5.369807e+15
5.005765e+15
4.596044e+15
4.153448e+15
3.672461e+15
3.158384e+15
2.62474e+15
2.124503e+15
1.636342e+15
1.097013e+15
7.178595e+14
4.168058e+14
4.276344e+14
7.299784e+14
1.113699e+15
1.66704e+15
2.158083e+15
2.660035e+15
3.199026e+15
3.717275e+15
4.200475e+15
4.650662e+15
5.066485e+15
5.431899e+15
5.737019e+15
5.978797e+15
6.158154e+15
6.27667e+15
6.335653e+15
6.335725e+15
6.276926e+15
6.158607e+15
5.979403e+15
5.737745e+15
5.432787e+15
5.067551e+15
4.651974e+15
4.201739e+15
3.717945e+15
3.198918e+15
2.659426e+15
2.157161e+15
1.666e+15
1.112969e+15
7.29552e+14
4.275395e+14
4.276478e+14
7.300553e+14
1.11389e+15
1.667091e+15
2.158139e+15
2.660126e+15
3.199192e+15
3.717585e+15
4.200849e+15
4.650992e+15
5.066847e+15
5.432468e+15
5.737577e+15
5.979057e+15
6.158158e+15
6.276635e+15
6.335762e+15
6.336058e+15
6.277462e+15
6.159273e+15
5.980114e+15
5.738428e+15
5.4334e+15
5.068092e+15
4.652463e+15
4.202199e+15
3.71838e+15
3.199277e+15
2.659699e+15
2.157422e+15
1.666255e+15
1.113215e+15
7.29747e+14
4.276785e+14
4.171626e+14
7.186881e+14
1.098234e+15
1.63755e+15
2.125448e+15
2.625327e+15
3.158677e+15
3.672449e+15
4.153137e+15
4.595655e+15
5.005605e+15
5.369982e+15
5.675739e+15
5.918322e+15
6.098169e+15
6.217042e+15
6.27642e+15
6.27685e+15
6.218172e+15
6.0996e+15
5.919744e+15
5.677076e+15
5.371348e+15
5.007102e+15
4.597216e+15
4.154559e+15
3.67352e+15
3.159244e+15
2.625431e+15
2.125342e+15
1.637291e+15
1.097962e+15
7.186105e+14
4.172333e+14
3.705811e+14
6.890632e+14
1.066153e+15
1.563925e+15
2.054896e+15
2.553806e+15
3.0755e+15
3.579821e+15
4.052384e+15
4.487017e+15
4.886482e+15
5.246675e+15
5.55233e+15
5.796248e+15
5.9776e+15
6.097619e+15
6.157549e+15
6.15792e+15
6.098659e+15
5.979099e+15
5.797994e+15
5.554159e+15
5.248482e+15
4.888213e+15
4.4886e+15
4.053795e+15
3.581056e+15
3.076431e+15
2.55434e+15
2.05538e+15
1.564273e+15
1.066426e+15
6.893114e+14
3.706796e+14
5.550453e+14
9.892136e+14
1.37319e+15
1.940185e+15
2.443735e+15
2.945364e+15
3.437005e+15
3.898466e+15
4.32539e+15
4.712862e+15
5.064908e+15
5.368261e+15
5.612594e+15
5.795536e+15
5.91718e+15
5.978064e+15
5.978428e+15
5.918253e+15
5.797214e+15
5.614715e+15
5.370599e+15
5.067202e+15
4.714938e+15
4.327205e+15
3.90005e+15
3.438366e+15
2.946503e+15
2.444445e+15
1.940987e+15
1.373796e+15
9.899153e+14
5.552286e+14
4.949447e+14
8.508807e+14
1.257956e+15
1.802985e+15
2.298779e+15
2.768446e+15
3.244105e+15
3.694523e+15
4.111797e+15
4.489764e+15
4.829414e+15
5.125725e+15
5.367595e+15
5.551171e+15
5.67441e+15
5.7365e+15
5.736936e+15
5.675694e+15
5.553211e+15
5.370219e+15
5.128654e+15
4.832302e+15
4.492341e+15
4.114036e+15
3.696409e+15
3.245633e+15
2.769776e+15
2.299557e+15
1.803936e+15
1.258513e+15
8.511803e+14
4.95001e+14
4.424146e+14
7.546155e+14
1.129958e+15
1.624601e+15
2.095012e+15
2.55884e+15
3.009555e+15
3.44365e+15
3.848005e+15
4.216964e+15
4.543976e+15
4.828973e+15
5.064042e+15
5.245705e+15
5.369199e+15
5.432089e+15
5.432567e+15
5.370604e+15
5.24794e+15
5.066946e+15
4.832273e+15
4.547311e+15
4.219995e+15
3.850612e+15
3.445777e+15
3.011212e+15
2.560286e+15
2.095981e+15
1.625617e+15
1.130152e+15
7.545981e+14
4.422898e+14
3.561821e+14
6.450094e+14
1.001257e+15
1.349971e+15
1.837136e+15
2.306755e+15
2.733429e+15
3.146707e+15
3.538266e+15
3.897713e+15
4.216949e+15
4.489471e+15
4.712467e+15
4.886333e+15
5.005923e+15
5.067714e+15
5.068147e+15
5.00718e+15
4.888325e+15
4.715088e+15
4.492528e+15
4.220124e+15
3.900713e+15
3.540925e+15
3.148892e+15
2.735142e+15
2.308303e+15
1.838288e+15
1.350957e+15
1.0009e+15
6.450832e+14
3.560778e+14
4.645057e+14
7.799689e+14
1.150959e+15
1.47792e+15
2.005172e+15
2.438724e+15
2.82045e+15
3.191127e+15
3.538641e+15
3.848418e+15
4.11212e+15
4.325762e+15
4.487751e+15
4.596975e+15
4.652926e+15
4.653254e+15
4.597911e+15
4.489222e+15
4.327713e+15
4.114436e+15
3.850874e+15
3.541056e+15
3.193395e+15
2.822464e+15
2.440451e+15
2.00656e+15
1.479094e+15
1.15136e+15
7.801312e+14
4.64519e+14
3.586555e+14
6.231032e+14
9.003823e+14
1.259032e+15
1.704314e+15
2.106209e+15
2.484263e+15
2.820909e+15
3.147466e+15
3.444497e+15
3.695392e+15
3.899404e+15
4.053636e+15
4.154922e+15
4.203248e+15
4.203459e+15
4.155539e+15
4.054621e+15
3.900725e+15
3.69696e+15
3.446211e+15
3.149225e+15
2.822633e+15
2.48581e+15
2.107431e+15
1.705096e+15
1.259353e+15
9.005106e+14
6.232104e+14
3.588656e+14
4.012421e+14
6.923012e+14
1.037194e+15
1.340229e+15
1.748273e+15
2.106413e+15
2.439453e+15
2.734325e+15
3.010462e+15
3.245132e+15
3.438153e+15
3.581185e+15
3.674135e+15
3.71966e+15
3.719785e+15
3.674554e+15
3.581859e+15
3.439062e+15
3.246287e+15
3.011809e+15
2.735679e+15
2.440741e+15
2.107603e+15
1.749214e+15
1.340887e+15
1.037124e+15
6.922952e+14
4.014212e+14
4.298985e+14
7.48455e+14
1.083095e+15
1.34013e+15
1.704565e+15
2.005846e+15
2.307566e+15
2.559605e+15
2.769395e+15
2.946374e+15
3.076584e+15
3.159898e+15
3.200573e+15
3.20063e+15
3.160237e+15
3.077192e+15
2.947194e+15
2.770417e+15
2.560795e+15
2.308656e+15
2.006741e+15
1.705403e+15
1.340766e+15
1.08337e+15
7.486018e+14
4.299462e+14
4.457217e+14
7.484256e+14
1.03736e+15
1.259301e+15
1.478872e+15
1.837984e+15
2.095696e+15
2.299422e+15
2.444391e+15
2.554496e+15
2.626146e+15
2.661203e+15
2.66116e+15
2.626412e+15
2.555027e+15
2.445134e+15
2.300395e+15
2.096614e+15
1.83864e+15
1.479074e+15
1.259767e+15
1.037731e+15
7.48662e+14
4.45791e+14
4.297679e+14
6.920837e+14
9.007099e+14
1.151341e+15
1.350287e+15
1.625123e+15
1.803607e+15
1.940876e+15
2.055613e+15
2.12619e+15
2.158847e+15
2.158721e+15
2.126179e+15
2.055718e+15
1.941127e+15
1.804174e+15