/*--------------------------------*- C++ -*----------------------------------*\
  =========                 |
  \\      /  F ield         | OpenFOAM: The Open Source CFD Toolbox
   \\    /   O peration     | Website:  https://openfoam.org
    \\  /    A nd           | Version:  6
     \\/     M anipulation  |
\*---------------------------------------------------------------------------*/
FoamFile
{
    version     2.0;
    format      ascii;
    class       volScalarField;
    location    "49.8/region0/neutronTransport";
    object      rho;
}
// * * * * * * * * * * * * * * * * * * * * * * * * * * * * * * * * * * * * * //

dimensions      [1 -3 0 0 0 0 0];

internalField   nonuniform List<scalar> 
203709
(
3296.173
3295.982
3295.749
3295.672
3296.838
3296.772
3296.551
3296.421
3296.256
3296.14
3296.009
3296.184
3296.967
3296.936
3296.935
3296.918
3296.831
3296.762
3296.677
3296.617
3296.554
3296.627
3296.606
3296.694
3297.044
3297.025
3297.027
3297.027
3297.024
3297.006
3296.982
3296.951
3296.959
3296.952
3297.007
3297.039
3297.083
3297.155
3297.095
3297.085
3297.078
3297.071
3297.068
3297.069
3297.086
3297.106
3297.113
3297.124
3297.17
3297.191
3297.182
3297.205
3297.2
3297.194
3297.178
3297.155
3297.127
3297.085
3297.036
3297.05
3297.116
3297.169
3297.17
3297.13
3297.074
3297.017
3296.964
3296.983
3297.305
3297.374
3297.474
3297.531
3297.474
3297.281
3297.044
3296.931
3297.013
3297.204
3297.363
3297.427
3297.41
3297.352
3297.286
3297.231
3297.594
3297.423
3297.52
3297.684
3297.86
3297.912
3297.684
3297.283
3296.927
3296.821
3296.989
3297.286
3297.548
3297.693
3297.727
3297.689
3297.607
3297.608
3297.758
3297.638
3297.685
3297.82
3297.952
3297.963
3297.777
3297.424
3297.045
3296.814
3296.836
3297.079
3297.421
3297.731
3297.925
3297.993
3297.965
3297.856
3297.96
3297.856
3297.866
3297.944
3298
3297.931
3297.702
3297.363
3297.034
3296.839
3296.844
3297.035
3297.348
3297.691
3297.979
3298.157
3298.212
3298.143
3298.083
3298.024
3298.009
3298.026
3297.98
3297.802
3297.513
3297.195
3296.955
3296.866
3296.943
3297.158
3297.453
3297.77
3298.056
3298.266
3298.374
3298.327
3298.067
3298.025
3297.963
3297.79
3297.523
3297.235
3297.012
3296.919
3296.975
3297.159
3297.423
3297.716
3298.001
3298.245
3298.424
3298.509
3297.96
3297.84
3297.657
3297.41
3297.17
3297.004
3296.962
3297.054
3297.258
3297.531
3297.826
3298.105
3298.348
3298.534
3298.661
3298.646
3297.493
3297.267
3297.095
3297.018
3297.058
3297.215
3297.461
3297.758
3298.062
3298.343
3298.575
3298.762
3298.882
3298.925
3297.309
3297.164
3297.206
3297.333
3297.542
3297.816
3298.12
3298.422
3298.688
3298.91
3299.07
3299.199
3299.246
3299.162
3297.921
3297.92
3298.086
3298.335
3298.616
3298.886
3299.129
3299.315
3299.461
3299.554
3299.658
3299.594
3299.115
3299.147
3299.398
3299.609
3299.775
3299.884
3299.968
3299.946
3300.18
3300.225
3300.318
3300.31
3296.072
3295.631
3295.308
3295.018
3294.764
3294.522
3294.26
3293.979
3293.706
3293.569
3297.266
3296.591
3296.137
3295.807
3295.504
3295.208
3294.931
3294.677
3294.428
3294.184
3293.953
3293.79
3293.774
3293.9
3297.692
3297.243
3296.782
3296.403
3296.116
3295.842
3295.533
3295.213
3294.94
3294.708
3294.498
3294.29
3294.15
3294.108
3294.168
3294.376
3298.092
3297.671
3297.317
3297.003
3296.723
3296.492
3296.213
3295.952
3295.616
3295.327
3295.109
3294.832
3294.706
3294.615
3294.56
3294.598
3294.745
3294.961
3298.398
3297.924
3297.533
3297.247
3297.025
3296.85
3296.72
3296.544
3296.331
3296.074
3295.816
3295.549
3295.381
3295.261
3295.1
3295.096
3295.148
3295.259
3295.409
3295.605
3298.707
3298.128
3297.59
3297.258
3297.051
3296.88
3296.799
3296.755
3296.671
3296.571
3296.415
3296.247
3296.046
3295.893
3295.757
3295.716
3295.834
3295.801
3295.896
3296.027
3296.153
3296.286
3298.383
3297.754
3297.318
3297.068
3296.913
3296.836
3296.778
3296.756
3296.73
3296.699
3296.643
3296.564
3296.458
3296.39
3296.333
3296.331
3296.442
3296.661
3296.685
3296.773
3296.859
3296.916
3299.138
3298.305
3297.543
3297.183
3297.012
3296.93
3296.846
3296.807
3296.792
3296.785
3296.783
3296.786
3296.784
3296.764
3296.748
3296.758
3296.796
3296.876
3297.007
3296.962
3296.949
3296.939
3296.934
3296.892
3299.118
3298.315
3297.552
3297.191
3297.048
3296.978
3296.922
3296.891
3296.864
3296.833
3296.785
3296.783
3296.829
3296.877
3296.894
3296.88
3296.855
3296.833
3296.826
3296.81
3296.79
3296.759
3296.714
3296.665
3299.102
3298.424
3297.728
3297.3
3297.15
3297.116
3297.167
3297.208
3297.184
3297.039
3296.83
3296.71
3296.75
3296.899
3297.05
3297.14
3297.163
3297.146
3297.114
3297.079
3297.068
3297.001
3296.91
3296.794
3299.08
3298.563
3297.964
3297.555
3297.3
3297.283
3297.405
3297.594
3297.676
3297.459
3297.086
3296.748
3296.614
3296.719
3296.965
3297.225
3297.413
3297.513
3297.54
3297.48
3297.485
3297.415
3297.318
3297.171
3299.025
3298.672
3298.212
3297.824
3297.547
3297.489
3297.587
3297.733
3297.776
3297.62
3297.292
3296.917
3296.655
3296.616
3296.797
3297.107
3297.43
3297.685
3297.84
3297.905
3297.872
3297.834
3297.745
3297.613
3298.918
3298.705
3298.386
3298.072
3297.823
3297.728
3297.763
3297.824
3297.79
3297.6
3297.286
3296.95
3296.714
3296.661
3296.8
3297.084
3297.432
3297.763
3298.021
3298.178
3298.189
3298.174
3298.106
3298.007
3298.76
3298.642
3298.446
3298.227
3298.067
3297.946
3297.914
3297.877
3297.731
3297.469
3297.157
3296.891
3296.756
3296.788
3296.973
3297.265
3297.605
3297.938
3298.22
3298.425
3298.45
3298.46
3298.4
3298.318
3298.578
3298.496
3298.381
3298.251
3298.11
3297.998
3297.907
3297.757
3297.513
3297.227
3296.983
3296.855
3296.876
3297.041
3297.309
3297.635
3297.968
3298.273
3298.525
3298.662
3298.749
3298.729
3298.661
3298.571
3298.425
3298.312
3298.211
3298.101
3297.981
3297.853
3297.684
3297.441
3297.19
3297.001
3296.932
3297.002
3297.199
3297.487
3297.822
3298.164
3298.474
3298.73
3298.926
3298.966
3299.039
3299.008
3298.92
3298.802
3298.358
3298.167
3298.015
3297.874
3297.697
3297.545
3297.314
3297.126
3297.036
3297.067
3297.219
3297.47
3297.785
3298.135
3298.478
3298.797
3299.052
3299.239
3299.293
3299.391
3299.378
3299.311
3299.194
3299.022
3298.181
3297.947
3297.736
3297.527
3297.416
3297.29
3297.316
3297.434
3297.644
3297.919
3298.233
3298.563
3298.896
3299.188
3299.45
3299.623
3299.747
3299.734
3299.786
3299.749
3299.65
3299.497
3298.579
3298.312
3298.091
3297.969
3297.954
3298.079
3298.202
3298.332
3298.561
3298.818
3299.093
3299.368
3299.644
3299.847
3300.038
3300.115
3300.145
3300.223
3300.203
3300.157
3300.049
3299.786
3298.885
3298.798
3298.78
3298.805
3298.89
3299.043
3299.248
3299.449
3299.65
3299.871
3300.077
3300.291
3300.39
3300.457
3300.571
3300.573
3300.631
3300.657
3300.627
3300.489
3299.502
3299.471
3299.536
3299.622
3299.759
3299.936
3300.156
3300.343
3300.523
3300.661
3300.738
3300.853
3300.874
3300.917
3300.956
3301.076
3301.09
3301.01
3300.03
3300.135
3300.221
3300.403
3300.577
3300.739
3300.89
3301.021
3301.101
3301.136
3301.156
3301.191
3301.246
3301.275
3301.394
3301.341
3300.715
3300.744
3301.006
3301.15
3301.277
3301.366
3301.411
3301.425
3301.418
3301.402
3301.403
3301.444
3301.454
3301.519
3301.53
3301.609
3301.673
3301.685
3301.653
3301.608
3301.556
3301.506
3301.484
3301.511
3295.827
3295.441
3295.17
3294.936
3294.658
3294.274
3293.794
3293.306
3297.791
3296.85
3296.088
3295.655
3295.319
3295.059
3294.835
3294.576
3294.223
3293.781
3293.327
3293.114
3293.116
3293.257
3298.14
3297.554
3296.721
3296.025
3295.563
3295.228
3294.956
3294.728
3294.482
3294.169
3293.793
3293.411
3293.246
3293.287
3293.491
3293.927
3299.341
3298.647
3298.011
3297.386
3296.632
3296.061
3295.541
3295.19
3294.894
3294.645
3294.401
3294.123
3293.814
3293.511
3293.379
3293.401
3293.661
3294.102
3294.794
3295.43
3299.592
3299.201
3298.559
3297.911
3297.325
3296.584
3296.048
3295.596
3295.242
3294.921
3294.639
3294.381
3294.124
3293.873
3293.64
3293.521
3293.541
3293.771
3294.177
3294.725
3295.442
3296.154
3299.834
3299.514
3299.104
3298.458
3297.858
3297.223
3296.622
3296.174
3295.786
3295.446
3295.112
3294.799
3294.518
3294.264
3294.042
3293.855
3293.742
3293.734
3293.891
3294.196
3294.662
3295.19
3295.744
3296.007
3299.786
3299.452
3298.994
3298.365
3297.733
3297.213
3296.737
3296.384
3296.068
3295.769
3295.454
3295.131
3294.832
3294.568
3294.334
3294.144
3294.026
3294.008
3294.112
3294.35
3294.684
3295.109
3295.527
3295.882
3299.919
3299.692
3299.354
3298.839
3298.168
3297.614
3297.167
3296.787
3296.524
3296.294
3296.067
3295.814
3295.531
3295.243
3294.969
3294.732
3294.562
3294.44
3294.414
3294.499
3294.685
3294.979
3295.301
3295.623
3295.937
3296.196
3299.948
3299.859
3299.633
3299.217
3298.582
3297.906
3297.373
3296.973
3296.682
3296.51
3296.385
3296.257
3296.095
3295.904
3295.695
3295.469
3295.264
3295.106
3295.008
3295.025
3295.103
3295.26
3295.481
3295.777
3296.076
3296.288
3296.496
3296.679
3299.895
3299.804
3299.558
3299.063
3298.297
3297.575
3297.074
3296.748
3296.562
3296.467
3296.415
3296.365
3296.302
3296.211
3296.09
3295.942
3295.827
3295.736
3295.699
3295.755
3295.907
3296.07
3296.253
3296.453
3296.684
3296.775
3296.868
3296.961
3299.804
3299.729
3299.48
3298.868
3298.049
3297.311
3296.877
3296.652
3296.541
3296.495
3296.477
3296.468
3296.459
3296.446
3296.42
3296.372
3296.326
3296.305
3296.336
3296.425
3296.569
3296.639
3296.68
3296.715
3296.799
3296.828
3296.865
3296.968
3299.69
3299.658
3299.62
3299.401
3298.787
3297.966
3297.19
3296.81
3296.666
3296.606
3296.581
3296.559
3296.533
3296.491
3296.481
3296.514
3296.559
3296.584
3296.585
3296.578
3296.576
3296.586
3296.572
3296.57
3296.562
3296.553
3296.549
3296.519
3296.519
3296.492
3299.595
3299.542
3299.503
3299.323
3298.778
3298.011
3297.265
3296.859
3296.764
3296.799
3296.843
3296.828
3296.727
3296.542
3296.423
3296.441
3296.565
3296.712
3296.817
3296.864
3296.871
3296.86
3296.835
3296.821
3296.789
3296.737
3296.658
3296.538
3296.401
3296.277
3299.5
3299.41
3299.366
3299.232
3298.801
3298.143
3297.459
3297.03
3296.91
3297.003
3297.206
3297.333
3297.133
3296.785
3296.466
3296.322
3296.395
3296.615
3296.873
3297.086
3297.223
3297.288
3297.291
3297.275
3297.237
3297.177
3297.061
3296.894
3296.653
3296.369
3299.416
3299.274
3299.209
3299.112
3298.806
3298.295
3297.717
3297.294
3297.134
3297.187
3297.35
3297.435
3297.313
3297.01
3296.647
3296.379
3296.313
3296.462
3296.755
3297.09
3297.381
3297.583
3297.686
3297.697
3297.674
3297.636
3297.543
3297.397
3297.128
3296.735
3299.362
3299.156
3299.046
3298.959
3298.756
3298.4
3297.961
3297.595
3297.41
3297.394
3297.459
3297.46
3297.309
3297.023
3296.696
3296.449
3296.371
3296.486
3296.759
3297.115
3297.476
3297.776
3297.969
3298.035
3298.038
3298.021
3297.972
3297.892
3297.68
3297.286
3299.35
3299.081
3298.902
3298.787
3298.641
3298.411
3298.113
3297.836
3297.659
3297.59
3297.557
3297.441
3297.212
3296.917
3296.651
3296.5
3296.512
3296.685
3296.98
3297.34
3297.705
3298.024
3298.245
3298.339
3298.359
3298.351
3298.321
3298.301
3298.181
3297.881
3299.372
3299.065
3298.81
3298.633
3298.482
3298.319
3298.122
3297.924
3297.766
3297.652
3297.509
3297.282
3297.011
3296.768
3296.629
3296.636
3296.793
3297.067
3297.413
3297.778
3298.121
3298.405
3298.589
3298.677
3298.695
3298.682
3298.637
3298.644
3298.582
3298.371
3299.398
3299.102
3298.794
3298.541
3298.334
3298.163
3297.999
3297.833
3297.67
3297.495
3297.257
3297.01
3296.82
3296.742
3296.804
3297
3297.3
3297.659
3298.032
3298.38
3298.672
3298.89
3299.012
3299.071
3299.083
3299.063
3298.987
3298.994
3298.936
3298.719
3299.153
3298.846
3298.537
3298.281
3298.043
3297.836
3297.638
3297.431
3297.199
3297.01
3296.912
3296.935
3297.082
3297.338
3297.671
3298.046
3298.423
3298.768
3299.055
3299.271
3299.41
3299.498
3299.536
3299.546
3299.518
3299.425
3299.401
3299.312
3299.373
3299.056
3298.792
3298.42
3298.106
3297.827
3297.576
3297.389
3297.287
3297.292
3297.399
3297.6
3297.878
3298.21
3298.567
3298.92
3299.24
3299.508
3299.708
3299.847
3299.946
3300.016
3300.053
3300.072
3299.98
3299.985
3299.854
3299.683
3299.657
3299.434
3299.164
3298.896
3298.58
3298.33
3298.177
3298.104
3298.117
3298.213
3298.377
3298.608
3298.883
3299.182
3299.48
3299.754
3299.978
3300.15
3300.274
3300.363
3300.474
3300.544
3300.58
3300.607
3300.526
3300.466
3300.307
3300.048
3299.646
3299.474
3299.358
3299.239
3299.09
3299.004
3298.988
3299.042
3299.162
3299.339
3299.562
3299.803
3300.044
3300.261
3300.439
3300.566
3300.655
3300.738
3300.817
3300.938
3300.992
3301.012
3300.993
3300.994
3300.872
3300.687
3299.814
3299.736
3299.695
3299.675
3299.664
3299.711
3299.811
3299.961
3300.152
3300.362
3300.561
3300.731
3300.857
3300.942
3300.996
3301.037
3301.096
3301.165
3301.273
3301.285
3301.262
3301.278
3301.23
3301.133
3300.057
3300.05
3300.077
3300.13
3300.224
3300.353
3300.494
3300.664
3300.85
3301.024
3301.156
3301.236
3301.276
3301.289
3301.285
3301.291
3301.336
3301.385
3301.451
3301.413
3301.397
3301.376
3301.328
3301.232
3300.369
3300.491
3300.565
3300.771
3300.947
3301.119
3301.284
3301.43
3301.532
3301.571
3301.559
3301.528
3301.485
3301.44
3301.419
3301.45
3301.484
3301.514
3301.467
3301.436
3301.399
3301.357
3300.937
3301.046
3301.29
3301.489
3301.636
3301.724
3301.833
3301.85
3301.801
3301.719
3301.639
3301.56
3301.492
3301.456
3301.482
3301.525
3301.558
3301.497
3301.456
3301.434
3301.756
3301.919
3301.947
3302.019
3302.034
3301.978
3301.873
3301.755
3301.653
3301.562
3301.488
3301.45
3301.483
3301.565
3301.624
3301.593
3302.177
3302.154
3302.149
3302.096
3302.001
3301.866
3301.731
3301.625
3301.538
3301.475
3301.443
3301.491
3301.621
3301.768
3302.102
3301.975
3301.825
3301.686
3301.588
3301.518
3301.481
3301.515
3296.12
3295.789
3295.517
3295.22
3294.805
3294.291
3298.445
3297.559
3296.816
3296.093
3295.77
3295.48
3295.224
3294.925
3294.501
3293.969
3293.329
3292.952
3292.724
3292.647
3299.377
3298.654
3298.141
3297.279
3296.569
3295.893
3295.455
3295.153
3294.903
3294.611
3294.207
3293.712
3293.192
3292.91
3292.806
3292.852
3293.033
3293.092
3299.595
3299.187
3298.521
3297.943
3297.009
3296.251
3295.606
3295.089
3294.758
3294.505
3294.223
3293.861
3293.45
3293.106
3292.917
3292.936
3293.135
3293.418
3293.724
3294.108
3299.819
3299.476
3299.033
3298.406
3297.667
3296.765
3296.008
3295.335
3294.804
3294.439
3294.172
3293.899
3293.582
3293.257
3293.014
3292.931
3293.064
3293.392
3293.84
3294.311
3294.962
3295.612
3299.95
3299.721
3299.387
3298.841
3298.177
3297.432
3296.572
3295.843
3295.18
3294.646
3294.243
3293.943
3293.666
3293.385
3293.133
3292.976
3292.97
3293.168
3293.571
3294.107
3294.731
3295.494
3296.327
3296.839
3300.022
3299.869
3299.653
3299.233
3298.653
3297.984
3297.245
3296.441
3295.771
3295.167
3294.656
3294.231
3293.889
3293.592
3293.326
3293.119
3293.008
3293.026
3293.22
3293.632
3294.193
3294.858
3295.668
3296.503
3297.097
3297.172
3300.037
3299.98
3299.84
3299.549
3299.087
3298.491
3297.82
3297.108
3296.396
3295.823
3295.309
3294.848
3294.427
3294.056
3293.732
3293.457
3293.242
3293.11
3293.104
3293.255
3293.601
3294.114
3294.735
3295.492
3296.299
3296.948
3297.203
3296.856
3300.018
3300.004
3299.952
3299.789
3299.445
3298.959
3298.34
3297.675
3297.025
3296.429
3295.968
3295.551
3295.153
3294.761
3294.386
3294.039
3293.736
3293.503
3293.358
3293.324
3293.423
3293.676
3294.075
3294.577
3295.175
3295.804
3296.344
3296.881
3296.804
3296.566
3300.013
3299.98
3299.906
3299.708
3299.343
3298.826
3298.174
3297.52
3296.946
3296.474
3296.131
3295.829
3295.526
3295.202
3294.866
3294.534
3294.228
3293.977
3293.812
3293.741
3293.786
3293.96
3294.249
3294.635
3295.09
3295.564
3296.075
3296.446
3296.764
3296.78
3300.144
3299.969
3299.922
3299.831
3299.615
3299.238
3298.67
3297.946
3297.282
3296.773
3296.407
3296.174
3295.993
3295.811
3295.595
3295.352
3295.098
3294.839
3294.612
3294.448
3294.365
3294.39
3294.516
3294.729
3295.014
3295.365
3295.756
3296.116
3296.466
3296.719
3296.897
3296.972
3300.061
3299.915
3299.842
3299.734
3299.524
3299.13
3298.474
3297.622
3296.964
3296.532
3296.274
3296.139
3296.056
3295.98
3295.884
3295.759
3295.596
3295.417
3295.275
3295.171
3295.13
3295.177
3295.314
3295.515
3295.757
3296.015
3296.276
3296.485
3296.675
3296.883
3296.974
3297.052
3300.021
3299.846
3299.743
3299.63
3299.43
3299.021
3298.284
3297.316
3296.706
3296.379
3296.225
3296.164
3296.139
3296.124
3296.106
3296.079
3296.033
3295.965
3295.898
3295.861
3295.89
3295.982
3296.128
3296.247
3296.331
3296.407
3296.501
3296.589
3296.69
3296.867
3296.89
3296.998
3299.98
3299.766
3299.628
3299.514
3299.333
3298.932
3298.173
3297.179
3296.581
3296.35
3296.271
3296.245
3296.226
3296.202
3296.165
3296.151
3296.176
3296.218
3296.249
3296.262
3296.268
3296.278
3296.295
3296.297
3296.305
3296.316
3296.33
3296.344
3296.36
3296.444
3296.499
3296.664
3300.382
3299.996
3299.703
3299.506
3299.385
3299.227
3298.868
3298.158
3297.228
3296.61
3296.414
3296.424
3296.459
3296.447
3296.371
3296.208
3296.094
3296.098
3296.207
3296.352
3296.471
3296.537
3296.563
3296.565
3296.552
3296.542
3296.528
3296.501
3296.438
3296.337
3296.231
3296.159
3296.159
3296.153
3300.3
3299.971
3299.648
3299.397
3299.248
3299.106
3298.811
3298.208
3297.392
3296.773
3296.546
3296.595
3296.783
3296.93
3296.754
3296.429
3296.129
3295.982
3296.036
3296.241
3296.501
3296.733
3296.895
3296.982
3297.008
3296.999
3296.98
3296.949
3296.861
3296.697
3296.466
3296.2
3296.006
3295.873
3300.21
3299.929
3299.601
3299.303
3299.111
3298.967
3298.738
3298.273
3297.613
3297.041
3296.765
3296.768
3296.922
3297.035
3296.941
3296.662
3296.312
3296.043
3295.963
3296.095
3296.381
3296.727
3297.043
3297.273
3297.397
3297.432
3297.433
3297.431
3297.385
3297.25
3296.986
3296.581
3296.223
3295.858
3300.123
3299.893
3299.576
3299.239
3298.991
3298.819
3298.633
3298.301
3297.814
3297.343
3297.055
3296.983
3297.035
3297.058
3296.943
3296.686
3296.373
3296.124
3296.033
3296.135
3296.403
3296.77
3297.153
3297.479
3297.694
3297.789
3297.82
3297.848
3297.862
3297.811
3297.616
3297.191
3296.731
3296.109
3300.027
3299.855
3299.57
3299.216
3298.909
3298.684
3298.501
3298.263
3297.929
3297.583
3297.33
3297.207
3297.164
3297.075
3296.877
3296.605
3296.345
3296.188
3296.19
3296.358
3296.658
3297.034
3297.423
3297.763
3298.004
3298.127
3298.179
3298.222
3298.27
3298.292
3298.202
3297.876
3297.45
3296.711
3299.913
3299.772
3299.556
3299.225
3298.883
3298.593
3298.369
3298.164
3297.929
3297.683
3297.477
3297.326
3297.187
3296.979
3296.724
3296.488
3296.346
3296.347
3296.502
3296.783
3297.144
3297.531
3297.896
3298.198
3298.404
3298.516
3298.571
3298.619
3298.671
3298.719
3298.693
3298.487
3298.194
3297.533
3299.666
3299.521
3299.267
3298.923
3298.582
3298.29
3298.051
3297.835
3297.628
3297.436
3297.243
3297.007
3296.766
3296.578
3296.498
3296.557
3296.755
3297.064
3297.44
3297.833
3298.2
3298.51
3298.744
3298.894
3298.981
3299.034
3299.085
3299.128
3299.163
3299.135
3298.995
3298.834
3299.697
3299.588
3299.349
3299.026
3298.671
3298.325
3298.016
3297.747
3297.505
3297.271
3297.032
3296.836
3296.734
3296.752
3296.897
3297.157
3297.501
3297.89
3298.281
3298.639
3298.937
3299.164
3299.327
3299.438
3299.512
3299.571
3299.625
3299.659
3299.655
3299.534
3299.464
3299.281
3299.792
3299.678
3299.495
3299.213
3298.884
3298.52
3298.161
3297.834
3297.559
3297.353
3297.236
3297.22
3297.309
3297.5
3297.777
3298.114
3298.479
3298.838
3299.16
3299.426
3299.629
3299.775
3299.897
3299.993
3300.067
3300.132
3300.183
3300.212
3300.164
3299.974
3299.862
3299.656
3299.897
3299.793
3299.696
3299.508
3299.259
3298.99
3298.712
3298.46
3298.267
3298.152
3298.126
3298.192
3298.345
3298.573
3298.852
3299.154
3299.45
3299.713
3299.925
3300.087
3300.209
3300.303
3300.413
3300.499
3300.564
3300.619
3300.673
3300.67
3300.592
3300.413
3300.235
3299.982
3299.933
3299.858
3299.747
3299.584
3299.409
3299.251
3299.119
3299.033
3299.009
3299.055
3299.176
3299.359
3299.585
3299.825
3300.054
3300.25
3300.402
3300.508
3300.586
3300.655
3300.72
3300.812
3300.866
3300.9
3300.936
3300.986
3300.954
3300.843
3300.713
3300.554
3300.042
3300.006
3299.953
3299.87
3299.783
3299.722
3299.695
3299.711
3299.774
3299.884
3300.048
3300.24
3300.435
3300.608
3300.74
3300.829
3300.879
3300.902
3300.923
3300.955
3300.989
3301.039
3301.047
3301.046
3301.066
3301.118
3301.073
3300.982
3300.876
3300.745
3300.18
3300.146
3300.143
3300.167
3300.196
3300.271
3300.374
3300.501
3300.641
3300.813
3300.969
3301.093
3301.169
3301.195
3301.19
3301.162
3301.124
3301.104
3301.102
3301.099
3301.101
3301.089
3301.093
3301.126
3301.19
3301.119
3301.033
3300.963
3300.364
3300.45
3300.57
3300.706
3300.865
3301.02
3301.158
3301.275
3301.416
3301.498
3301.524
3301.498
3301.436
3301.363
3301.28
3301.203
3301.152
3301.121
3301.104
3301.125
3301.15
3301.178
3301.226
3301.242
3301.124
3301.065
3300.794
3301.045
3301.193
3301.437
3301.586
3301.685
3301.735
3301.812
3301.8
3301.732
3301.627
3301.505
3301.392
3301.28
3301.184
3301.137
3301.128
3301.151
3301.237
3301.322
3301.375
3301.359
3301.334
3301.199
3301.471
3301.672
3301.907
3301.971
3302.044
3302.015
3302.024
3301.93
3301.795
3301.648
3301.504
3301.38
3301.268
3301.186
3301.177
3301.217
3301.305
3301.478
3301.549
3301.628
3301.536
3301.482
3302.064
3302.207
3302.263
3302.243
3302.181
3302.138
3301.997
3301.825
3301.664
3301.517
3301.403
3301.312
3301.258
3301.314
3301.421
3301.574
3301.757
3301.824
3301.905
3301.788
3302.441
3302.409
3302.368
3302.27
3302.219
3302.039
3301.891
3301.736
3301.598
3301.508
3301.448
3301.418
3301.487
3301.651
3301.842
3302.049
3302.101
3302.239
3302.474
3302.337
3302.27
3302.07
3301.968
3301.837
3301.713
3301.646
3301.616
3301.591
3301.644
3301.878
3302.138
3302.464
3302.126
3301.988
3301.872
3301.83
3301.842
3301.912
3297.952
3297.253
3296.616
3296.238
3295.928
3295.646
3295.275
3294.768
3294.191
3293.7
3299.423
3298.914
3298.124
3297.544
3296.869
3296.215
3295.809
3295.511
3295.214
3294.805
3294.245
3293.703
3293.175
3292.726
3292.562
3292.475
3299.585
3299.246
3298.661
3297.793
3297.08
3296.297
3295.684
3295.152
3294.837
3294.528
3294.133
3293.713
3293.245
3292.857
3292.587
3292.525
3292.513
3292.585
3300.082
3299.799
3299.438
3298.95
3298.326
3297.406
3296.559
3295.656
3294.972
3294.455
3294.136
3293.822
3293.447
3293.074
3292.733
3292.52
3292.46
3292.584
3292.73
3292.945
3293.24
3293.428
3300.065
3299.964
3299.679
3299.215
3298.638
3297.959
3297.038
3296.105
3295.111
3294.375
3293.866
3293.544
3293.231
3292.892
3292.596
3292.392
3292.344
3292.462
3292.737
3293.093
3293.553
3294.045
3294.683
3295.226
3300.025
3299.969
3299.829
3299.45
3298.926
3298.338
3297.628
3296.711
3295.757
3294.746
3293.961
3293.444
3293.112
3292.805
3292.511
3292.306
3292.232
3292.334
3292.611
3293.042
3293.586
3294.248
3295
3295.699
3296.397
3296.551
3299.954
3299.949
3299.865
3299.618
3299.158
3298.651
3298.071
3297.348
3296.447
3295.515
3294.553
3293.775
3293.225
3292.857
3292.544
3292.286
3292.156
3292.184
3292.397
3292.788
3293.341
3294.02
3294.814
3295.67
3296.423
3296.738
3296.564
3296.137
3300.019
3299.942
3299.887
3299.704
3299.358
3298.912
3298.427
3297.852
3297.121
3296.25
3295.386
3294.526
3293.801
3293.241
3292.829
3292.488
3292.225
3292.11
3292.15
3292.399
3292.848
3293.467
3294.214
3295.059
3295.925
3296.592
3296.757
3296.451
3295.98
3295.715
3300.004
3299.915
3299.777
3299.505
3299.158
3298.739
3298.262
3297.674
3296.942
3296.133
3295.375
3294.644
3293.998
3293.455
3293.013
3292.633
3292.32
3292.162
3292.184
3292.411
3292.829
3293.419
3294.138
3294.953
3295.807
3296.485
3296.691
3296.415
3296.038
3295.789
3300.196
3299.975
3299.827
3299.621
3299.354
3299.028
3298.627
3298.134
3297.518
3296.801
3296.097
3295.487
3294.918
3294.386
3293.891
3293.443
3293.041
3292.703
3292.489
3292.439
3292.568
3292.87
3293.332
3293.919
3294.595
3295.342
3296.066
3296.552
3296.575
3296.247
3296.085
3296.096
3300.592
3300.263
3299.974
3299.721
3299.493
3299.244
3298.944
3298.542
3297.998
3297.349
3296.69
3296.121
3295.676
3295.278
3294.889
3294.491
3294.091
3293.706
3293.362
3293.105
3292.98
3293.001
3293.171
3293.481
3293.904
3294.41
3294.971
3295.538
3296.11
3296.491
3296.556
3296.43
3296.321
3296.281
3300.573
3300.237
3299.924
3299.626
3299.391
3299.165
3298.881
3298.436
3297.817
3297.127
3296.522
3296.079
3295.782
3295.544
3295.309
3295.042
3294.747
3294.444
3294.15
3293.906
3293.752
3293.71
3293.791
3293.985
3294.271
3294.627
3295.044
3295.49
3295.923
3296.319
3296.605
3296.752
3296.728
3296.562
3300.509
3300.174
3299.82
3299.525
3299.301
3299.099
3298.805
3298.306
3297.566
3296.8
3296.277
3295.959
3295.783
3295.67
3295.567
3295.442
3295.283
3295.082
3294.873
3294.713
3294.607
3294.58
3294.645
3294.802
3295.045
3295.329
3295.612
3295.892
3296.155
3296.406
3296.653
3296.826
3296.936
3296.86
3300.968
3300.615
3300.209
3299.778
3299.445
3299.218
3299.027
3298.723
3298.17
3297.289
3296.506
3296.094
3295.895
3295.815
3295.78
3295.758
3295.731
3295.691
3295.631
3295.549
3295.472
3295.431
3295.467
3295.569
3295.721
3295.852
3295.961
3296.064
3296.175
3296.296
3296.438
3296.626
3296.773
3296.935
3296.94
3296.903
3300.883
3300.626
3300.213
3299.748
3299.379
3299.135
3298.941
3298.644
3298.072
3297.147
3296.344
3296.033
3295.923
3295.891
3295.871
3295.846
3295.815
3295.798
3295.817
3295.857
3295.894
3295.917
3295.933
3295.953
3295.976
3295.99
3296.008
3296.033
3296.063
3296.095
3296.141
3296.243
3296.378
3296.614
3296.654
3296.755
3300.704
3300.494
3300.14
3299.695
3299.315
3299.05
3298.848
3298.57
3298.029
3297.15
3296.379
3296.067
3296.043
3296.066
3296.051
3295.986
3295.843
3295.735
3295.731
3295.83
3295.976
3296.107
3296.192
3296.233
3296.245
3296.241
3296.236
3296.232
3296.216
3296.164
3296.079
3296.005
3295.983
3296.09
3296.17
3296.326
3300.546
3300.386
3300.045
3299.641
3299.26
3298.969
3298.751
3298.495
3298.025
3297.259
3296.54
3296.198
3296.188
3296.346
3296.494
3296.342
3296.039
3295.756
3295.61
3295.653
3295.849
3296.114
3296.362
3296.543
3296.646
3296.683
3296.682
3296.674
3296.656
3296.577
3296.411
3296.186
3295.962
3295.822
3295.787
3295.833
3300.332
3300.228
3299.939
3299.583
3299.213
3298.897
3298.654
3298.415
3298.03
3297.414
3296.784
3296.418
3296.355
3296.481
3296.604
3296.534
3296.273
3295.938
3295.673
3295.587
3295.71
3295.995
3296.351
3296.686
3296.934
3297.071
3297.118
3297.133
3297.149
3297.119
3296.976
3296.698
3296.328
3296
3295.753
3295.674
3300.133
3300.066
3299.82
3299.517
3299.175
3298.843
3298.567
3298.327
3298.018
3297.553
3297.045
3296.694
3296.567
3296.594
3296.625
3296.536
3296.305
3296.009
3295.764
3295.67
3295.768
3296.037
3296.413
3296.812
3297.153
3297.381
3297.489
3297.537
3297.589
3297.633
3297.586
3297.373
3296.984
3296.538
3296.052
3295.735
3299.958
3299.902
3299.683
3299.425
3299.133
3298.81
3298.502
3298.239
3297.973
3297.631
3297.25
3296.949
3296.789
3296.728
3296.655
3296.487
3296.242
3295.998
3295.847
3295.85
3296.02
3296.327
3296.714
3297.115
3297.467
3297.716
3297.852
3297.92
3297.992
3298.082
3298.127
3298.036
3297.753
3297.332
3296.722
3296.165
3299.852
3299.777
3299.602
3299.326
3299.072
3298.786
3298.469
3298.172
3297.905
3297.631
3297.345
3297.098
3296.923
3296.785
3296.6
3296.372
3296.158
3296.029
3296.038
3296.199
3296.488
3296.859
3297.257
3297.63
3297.937
3298.149
3298.269
3298.338
3298.416
3298.519
3298.604
3298.597
3298.444
3298.146
3297.639
3297.035
3299.781
3299.694
3299.531
3299.24
3298.99
3298.748
3298.461
3298.145
3297.849
3297.578
3297.325
3297.096
3296.89
3296.668
3296.449
3296.283
3296.22
3296.291
3296.499
3296.818
3297.202
3297.602
3297.973
3298.282
3298.514
3298.665
3298.754
3298.817
3298.897
3298.994
3299.074
3299.082
3298.997
3298.767
3298.475
3297.956
3299.664
3299.636
3299.539
3299.249
3298.975
3298.737
3298.488
3298.177
3297.855
3297.551
3297.271
3297.011
3296.778
3296.601
3296.516
3296.545
3296.698
3296.964
3297.314
3297.705
3298.096
3298.449
3298.74
3298.956
3299.108
3299.206
3299.273
3299.332
3299.416
3299.502
3299.558
3299.54
3299.473
3299.253
3299.039
3298.623
3299.733
3299.643
3299.374
3299.081
3298.831
3298.605
3298.344
3298.042
3297.737
3297.464
3297.258
3297.133
3297.108
3297.189
3297.376
3297.649
3297.983
3298.341
3298.689
3298.996
3299.244
3299.428
3299.552
3299.643
3299.707
3299.759
3299.811
3299.897
3299.973
3300.011
3299.982
3299.905
3299.685
3299.508
3299.859
3299.806
3299.629
3299.341
3299.091
3298.883
3298.685
3298.477
3298.284
3298.127
3298.032
3298.015
3298.087
3298.245
3298.475
3298.751
3299.04
3299.315
3299.553
3299.738
3299.871
3299.96
3300.012
3300.061
3300.09
3300.119
3300.154
3300.248
3300.319
3300.36
3300.352
3300.282
3300.065
3299.857
3299.898
3299.902
3299.823
3299.626
3299.421
3299.249
3299.111
3298.987
3298.899
3298.857
3298.87
3298.944
3299.083
3299.275
3299.494
3299.714
3299.91
3300.069
3300.183
3300.254
3300.289
3300.306
3300.3
3300.301
3300.283
3300.287
3300.307
3300.421
3300.501
3300.569
3300.594
3300.53
3300.342
3300.143
3300.032
3300.01
3299.938
3299.794
3299.671
3299.602
3299.56
3299.564
3299.613
3299.7
3299.821
3299.983
3300.157
3300.315
3300.437
3300.516
3300.555
3300.561
3300.539
3300.502
3300.46
3300.399
3300.35
3300.301
3300.295
3300.315
3300.446
3300.558
3300.68
3300.745
3300.704
3300.546
3300.249
3300.211
3300.165
3300.117
3300.133
3300.172
3300.253
3300.361
3300.473
3300.585
3300.721
3300.826
3300.883
3300.886
3300.849
3300.79
3300.713
3300.624
3300.538
3300.451
3300.357
3300.284
3300.225
3300.225
3300.286
3300.484
3300.635
3300.786
3300.83
3300.863
3300.381
3300.452
3300.501
3300.591
3300.702
3300.788
3300.916
3301.032
3301.111
3301.163
3301.236
3301.24
3301.184
3301.081
3300.957
3300.833
3300.703
3300.578
3300.473
3300.367
3300.257
3300.205
3300.202
3300.268
3300.391
3300.659
3300.801
3300.856
3300.863
3300.862
3300.72
3300.885
3301.045
3301.279
3301.367
3301.48
3301.546
3301.553
3301.519
3301.518
3301.42
3301.278
3301.104
3300.932
3300.779
3300.628
3300.488
3300.373
3300.292
3300.244
3300.283
3300.37
3300.528
3300.71
3301.008
3300.967
3300.919
3300.885
3301.285
3301.535
3301.755
3301.865
3301.925
3301.905
3301.816
3301.687
3301.616
3301.44
3301.24
3301.028
3300.84
3300.68
3300.54
3300.434
3300.374
3300.375
3300.426
3300.591
3300.773
3301.024
3301.236
3301.345
3301.151
3301.011
3301.973
3302.198
3302.219
3302.269
3302.182
3302.024
3301.825
3301.712
3301.485
3301.251
3301.015
3300.826