/*--------------------------------*- C++ -*----------------------------------*\
  =========                 |
  \\      /  F ield         | OpenFOAM: The Open Source CFD Toolbox
   \\    /   O peration     | Website:  https://openfoam.org
    \\  /    A nd           | Version:  6
     \\/     M anipulation  |
\*---------------------------------------------------------------------------*/
FoamFile
{
    version     2.0;
    format      ascii;
    class       volScalarField;
    location    "49.8/region0/neutronTransport";
    object      rho;
}
// * * * * * * * * * * * * * * * * * * * * * * * * * * * * * * * * * * * * * //

dimensions      [1 -3 0 0 0 0 0];

internalField   nonuniform List<scalar> 
203709
(
3296.585
3296.401
3296.241
3296.205
3297.736
3297.566
3297.115
3296.902
3296.721
3296.612
3296.591
3296.733
3298.83
3298.7
3298.363
3298.18
3297.847
3297.596
3297.397
3297.276
3297.228
3297.307
3297.392
3297.667
3298.811
3298.825
3298.792
3298.693
3298.605
3298.418
3298.224
3298.056
3297.95
3297.909
3297.974
3298.082
3298.242
3298.438
3298.827
3298.828
3298.822
3298.805
3298.792
3298.727
3298.633
3298.544
3298.494
3298.492
3298.561
3298.674
3298.818
3298.939
3298.95
3298.925
3298.929
3298.923
3298.911
3298.895
3298.88
3298.881
3298.87
3298.88
3298.925
3299.012
3299.124
3299.24
3299.287
3299.342
3299.088
3299.073
3299.048
3299.018
3298.983
3298.958
3298.951
3298.973
3299.027
3299.12
3299.21
3299.245
3299.201
3299.072
3298.921
3298.848
3299.45
3299.314
3299.3
3299.251
3299.178
3299.102
3299.033
3298.953
3298.865
3298.784
3298.722
3298.668
3298.622
3298.579
3298.534
3298.484
3298.431
3298.419
3299.68
3299.742
3299.689
3299.543
3299.375
3299.259
3299.241
3299.245
3299.214
3299.147
3299.066
3298.988
3298.916
3298.846
3298.775
3298.699
3298.623
3298.552
3299.855
3299.953
3300.011
3299.89
3299.555
3299.234
3299.172
3299.297
3299.438
3299.505
3299.491
3299.429
3299.345
3299.251
3299.153
3299.053
3298.951
3298.836
3299.995
3300.036
3300.02
3299.834
3299.509
3299.161
3298.95
3298.998
3299.263
3299.554
3299.73
3299.776
3299.732
3299.638
3299.525
3299.415
3299.316
3299.144
3300.002
3299.873
3299.612
3299.273
3298.948
3298.737
3298.721
3298.921
3299.272
3299.636
3299.889
3299.982
3299.943
3299.828
3299.702
3299.601
3299.776
3299.579
3299.28
3298.96
3298.696
3298.55
3298.56
3298.734
3299.046
3299.429
3299.789
3300.036
3300.124
3300.067
3299.93
3299.764
3299.144
3298.872
3298.641
3298.491
3298.452
3298.533
3298.729
3299.018
3299.361
3299.71
3300.002
3300.182
3300.22
3300.147
3298.758
3298.592
3298.493
3298.461
3298.524
3298.674
3298.897
3299.17
3299.464
3299.757
3300.01
3300.207
3300.295
3300.265
3298.654
3298.612
3298.642
3298.794
3298.984
3299.214
3299.461
3299.69
3299.909
3300.085
3300.264
3300.335
3299.221
3299.261
3299.424
3299.641
3299.835
3299.977
3300.127
3300.167
3300.066
3300.125
3300.222
3300.207
3296.976
3296.58
3296.284
3296.033
3295.867
3295.794
3295.835
3296.007
3296.319
3296.711
3297.917
3297.293
3296.964
3296.623
3296.327
3296.067
3295.882
3295.788
3295.803
3295.948
3296.243
3296.624
3297.129
3297.594
3298.341
3297.957
3297.427
3297.084
3296.758
3296.465
3296.184
3295.963
3295.842
3295.827
3295.919
3296.147
3296.504
3296.963
3297.473
3297.948
3298.867
3298.483
3298.128
3297.69
3297.356
3297.023
3296.683
3296.427
3296.155
3295.993
3295.948
3295.971
3296.132
3296.405
3296.769
3297.235
3297.68
3297.916
3299.417
3299.074
3298.756
3298.483
3298.126
3297.752
3297.469
3297.119
3296.804
3296.533
3296.327
3296.193
3296.188
3296.291
3296.472
3296.746
3297.104
3297.486
3297.805
3298.046
3299.832
3299.578
3299.319
3299.064
3298.83
3298.603
3298.311
3298.034
3297.738
3297.431
3297.134
3296.88
3296.686
3296.605
3296.608
3296.74
3297.013
3297.278
3297.593
3297.934
3298.273
3298.585
3299.82
3299.57
3299.297
3299.059
3298.863
3298.735
3298.581
3298.428
3298.237
3298.008
3297.76
3297.526
3297.331
3297.22
3297.192
3297.279
3297.53
3297.89
3298.088
3298.361
3298.673
3298.91
3299.966
3299.674
3299.317
3299.018
3298.839
3298.727
3298.632
3298.569
3298.521
3298.457
3298.353
3298.212
3298.064
3297.938
3297.867
3297.868
3297.962
3298.184
3298.55
3298.748
3298.934
3299.105
3299.237
3299.337
3299.853
3299.445
3299.102
3298.899
3298.806
3298.746
3298.671
3298.633
3298.604
3298.571
3298.53
3298.485
3298.443
3298.41
3298.416
3298.474
3298.592
3298.774
3299
3299.133
3299.161
3299.196
3299.266
3299.338
3299.925
3299.377
3299.082
3298.971
3298.942
3298.866
3298.81
3298.769
3298.724
3298.685
3298.657
3298.646
3298.665
3298.708
3298.788
3298.834
3298.842
3298.795
3298.733
3298.7
3298.627
3298.638
3298.73
3298.88
3300.124
3299.592
3299.246
3299.207
3299.159
3299.112
3299.052
3298.982
3298.898
3298.821
3298.747
3298.67
3298.599
3298.543
3298.502
3298.471
3298.445
3298.42
3298.396
3298.37
3298.357
3298.365
3298.394
3298.471
3300.302
3299.888
3299.554
3299.481
3299.493
3299.507
3299.387
3299.247
3299.103
3299.04
3299.03
3299.014
3298.972
3298.915
3298.856
3298.801
3298.75
3298.699
3298.646
3298.588
3298.525
3298.455
3298.376
3298.308
3300.412
3300.137
3299.871
3299.767
3299.773
3299.829
3299.802
3299.523
3299.183
3299.019
3299.063
3299.182
3299.28
3299.319
3299.305
3299.258
3299.192
3299.12
3299.049
3298.975
3298.877
3298.781
3298.656
3298.517
3300.426
3300.269
3300.095
3299.997
3299.979
3299.967
3299.857
3299.576
3299.207
3298.909
3298.827
3298.978
3299.237
3299.462
3299.592
3299.625
3299.587
3299.511
3299.433
3299.374
3299.298
3299.259
3299.181
3299.078
3300.332
3300.256
3300.156
3300.082
3300.008
3299.915
3299.712
3299.39
3299.028
3298.732
3298.602
3298.687
3298.954
3299.3
3299.607
3299.803
3299.867
3299.823
3299.729
3299.634
3299.61
3299.608
3299.633
3299.621
3300.146
3300.103
3300.036
3299.95
3299.824
3299.661
3299.387
3299.063
3298.754
3298.533
3298.454
3298.54
3298.78
3299.127
3299.502
3299.821
3300.012
3300.053
3299.974
3299.825
3299.754
3299.768
3299.839
3299.894
3299.948
3299.854
3299.771
3299.656
3299.472
3299.269
3298.983
3298.716
3298.517
3298.42
3298.443
3298.584
3298.83
3299.155
3299.515
3299.858
3300.106
3300.219
3300.164
3300.024
3299.886
3299.847
3299.903
3299.976
3299.605
3299.473
3299.307
3299.1
3298.863
3298.672
3298.536
3298.475
3298.509
3298.628
3298.824
3299.083
3299.393
3299.714
3300.027
3300.25
3300.375
3300.331
3300.202
3300.052
3299.97
3299.969
3299.466
3299.283
3299.092
3298.905
3298.777
3298.727
3298.718
3298.737
3298.853
3299.018
3299.235
3299.487
3299.78
3300.039
3300.307
3300.443
3300.513
3300.493
3300.378
3300.241
3300.157
3300.112
3299.34
3299.197
3299.097
3299.049
3299.065
3299.131
3299.272
3299.406
3299.546
3299.747
3299.965
3300.234
3300.389
3300.533
3300.663
3300.685
3300.642
3300.548
3300.45
3300.374
3299.603
3299.55
3299.565
3299.614
3299.694
3299.806
3299.948
3300.117
3300.277
3300.431
3300.564
3300.726
3300.807
3300.848
3300.849
3300.816
3300.755
3300.678
3300.199
3300.158
3300.2
3300.263
3300.353
3300.457
3300.573
3300.7
3300.814
3300.91
3300.984
3301.041
3301.057
3301.053
3301.069
3301.008
3300.744
3300.696
3300.737
3300.822
3300.904
3300.988
3301.074
3301.153
3301.218
3301.266
3301.3
3301.318
3301.345
3301.4
3301.259
3301.248
3301.282
3301.338
3301.401
3301.459
3301.509
3301.556
3301.609
3301.625
3297.058
3296.767
3296.489
3296.291
3296.178
3296.151
3296.21
3296.343
3298.267
3297.714
3297.19
3296.871
3296.585
3296.324
3296.143
3296.05
3296.05
3296.144
3296.308
3296.631
3296.893
3297.069
3298.547
3298.13
3297.543
3297.047
3296.703
3296.41
3296.16
3295.995
3295.922
3295.951
3296.089
3296.33
3296.693
3297.007
3297.258
3297.506
3299.63
3298.997
3298.5
3297.996
3297.436
3296.976
3296.558
3296.254
3296.008
3295.853
3295.796
3295.85
3296.026
3296.332
3296.761
3297.127
3297.49
3297.848
3298.267
3298.481
3299.986
3299.575
3298.94
3298.441
3297.952
3297.311
3296.887
3296.447
3296.129
3295.876
3295.721
3295.671
3295.738
3295.934
3296.271
3296.727
3297.192
3297.656
3298.105
3298.555
3298.938
3299.242
3300.393
3299.983
3299.505
3298.904
3298.419
3297.903
3297.293
3296.87
3296.451
3296.117
3295.845
3295.671
3295.605
3295.656
3295.833
3296.153
3296.614
3297.117
3297.635
3298.164
3298.622
3298.985
3299.248
3299.312
3300.382
3299.942
3299.462
3298.918
3298.424
3297.942
3297.406
3296.996
3296.597
3296.252
3295.958
3295.749
3295.646
3295.658
3295.774
3296.018
3296.423
3296.913
3297.453
3297.98
3298.467
3298.867
3299.105
3299.256
3300.751
3300.351
3299.911
3299.453
3298.963
3298.531
3298.126
3297.681
3297.305
3296.936
3296.588
3296.276
3296.024
3295.853
3295.786
3295.824
3295.983
3296.284
3296.693
3297.184
3297.686
3298.17
3298.484
3298.903
3299.191
3299.148
3301.16
3300.738
3300.331
3299.896
3299.498
3299.093
3298.728
3298.405
3298.062
3297.747
3297.428
3297.102
3296.782
3296.503
3296.282
3296.139
3296.094
3296.162
3296.356
3296.685
3297.089
3297.527
3297.969
3298.413
3298.792
3299.098
3299.123
3298.91
3301.127
3300.705
3300.305
3299.906
3299.546
3299.186
3298.859
3298.586
3298.344
3298.126
3297.904
3297.658
3297.389
3297.125
3296.894
3296.72
3296.629
3296.636
3296.759
3297.02
3297.388
3297.761
3298.141
3298.544
3298.926
3299.138
3299.171
3298.964
3301.084
3300.69
3300.262
3299.894
3299.461
3299.06
3298.74
3298.519
3298.362
3298.245
3298.135
3298.004
3297.841
3297.659
3297.489
3297.357
3297.29
3297.305
3297.419
3297.648
3297.988
3298.308
3298.611
3298.865
3299.114
3299.232
3299.198
3299.017
3301.314
3301.039
3300.694
3300.264
3299.777
3299.244
3298.845
3298.605
3298.471
3298.379
3298.319
3298.267
3298.2
3298.116
3298.021
3297.953
3297.91
3297.916
3297.988
3298.129
3298.34
3298.582
3298.772
3298.891
3298.994
3299.11
3299.203
3299.111
3298.912
3298.69
3301.228
3301.015
3300.714
3300.328
3299.692
3299.1
3298.795
3298.669
3298.589
3298.529
3298.482
3298.434
3298.383
3298.332
3298.288
3298.277
3298.299
3298.374
3298.448
3298.496
3298.494
3298.475
3298.475
3298.464
3298.523
3298.663
3298.865
3298.883
3298.794
3298.688
3301.122
3300.973
3300.736
3300.415
3299.826
3299.163
3298.933
3298.891
3298.851
3298.798
3298.733
3298.647
3298.564
3298.489
3298.417
3298.354
3298.305
3298.272
3298.25
3298.232
3298.215
3298.198
3298.184
3298.171
3298.199
3298.28
3298.435
3298.516
3298.531
3298.538
3300.992
3300.9
3300.734
3300.49
3300.02
3299.442
3299.17
3299.183
3299.237
3299.159
3299.042
3298.893
3298.801
3298.771
3298.755
3298.728
3298.687
3298.642
3298.596
3298.549
3298.5
3298.448
3298.395
3298.341
3298.288
3298.245
3298.237
3298.251
3298.276
3298.311
3300.838
3300.785
3300.683
3300.518
3300.187
3299.759
3299.489
3299.442
3299.519
3299.558
3299.362
3299.028
3298.812
3298.794
3298.882
3298.988
3299.058
3299.078
3299.057
3299.005
3298.934
3298.861
3298.801
3298.748
3298.671
3298.553
3298.41
3298.275
3298.135
3297.999
3300.673
3300.629
3300.569
3300.47
3300.264
3299.987
3299.774
3299.687
3299.679
3299.638
3299.428
3299.083
3298.753
3298.593
3298.661
3298.878
3299.119
3299.3
3299.391
3299.393
3299.328
3299.24
3299.183
3299.18
3299.182
3299.136
3299.021
3298.889
3298.74
3298.611
3300.522
3300.452
3300.399
3300.337
3300.216
3300.053
3299.903
3299.801
3299.718
3299.564
3299.28
3298.919
3298.583
3298.382
3298.385
3298.587
3298.908
3299.243
3299.501
3299.633
3299.633
3299.541
3299.451
3299.456
3299.538
3299.626
3299.647
3299.63
3299.551
3299.369
3300.413
3300.282
3300.202
3300.138
3300.05
3299.942
3299.823
3299.699
3299.545
3299.297
3298.969
3298.63
3298.357
3298.214
3298.239
3298.43
3298.75
3299.132
3299.49
3299.744
3299.842
3299.79
3299.676
3299.633
3299.708
3299.857
3299.973
3300.069
3300.091
3299.919
3300.171
3300.028
3299.917
3299.808
3299.695
3299.563
3299.397
3299.177
3298.885
3298.595
3298.353
3298.207
3298.182
3298.287
3298.511
3298.829
3299.198
3299.564
3299.852
3300.006
3300.001
3299.902
3299.829
3299.868
3300.001
3300.12
3300.264
3300.337
3300.174
3299.953
3299.772
3299.621
3299.451
3299.267
3299.053
3298.797
3298.565
3298.39
3298.297
3298.296
3298.388
3298.57
3298.828
3299.143
3299.478
3299.799
3300.047
3300.188
3300.199
3300.13
3300.073
3300.103
3300.183
3300.328
3300.406
3300.465
3300.288
3300.035
3299.783
3299.558
3299.355
3299.131
3298.91
3298.731
3298.615
3298.57
3298.594
3298.692
3298.853
3299.068
3299.328
3299.615
3299.893
3300.141
3300.315
3300.406
3300.416
3300.382
3300.371
3300.427
3300.474
3300.588
3300.644
3300.631
3300.163
3299.945
3299.748
3299.525
3299.327
3299.177
3299.088
3299.062
3299.092
3299.175
3299.306
3299.475
3299.68
3299.905
3300.136
3300.338
3300.501
3300.61
3300.657
3300.674
3300.691
3300.737
3300.791
3300.932
3300.949
3300.91
3300.253
3300.056
3299.924
3299.833
3299.721
3299.68
3299.688
3299.74
3299.832
3299.956
3300.108
3300.279
3300.453
3300.614
3300.749
3300.846
3300.905
3300.938
3301.001
3301.084
3301.139
3301.322
3301.372
3301.342
3300.797
3300.622
3300.488
3300.4
3300.364
3300.309
3300.318
3300.36
3300.438
3300.545
3300.67
3300.801
3300.924
3301.029
3301.111
3301.169
3301.219
3301.281
3301.427
3301.522
3301.7
3301.801
3301.879
3301.8
3301.032
3300.919
3300.858
3300.824
3300.842
3300.867
3300.893
3300.965
3301.056
3301.154
3301.247
3301.329
3301.397
3301.455
3301.512
3301.595
3301.713
3301.896
3302.104
3302.164
3302.303
3302.265
3301.369
3301.269
3301.226
3301.258
3301.309
3301.361
3301.43
3301.505
3301.579
3301.645
3301.705
3301.762
3301.83
3301.917
3301.994
3302.233
3302.441
3302.529
3302.577
3302.638
3301.679
3301.682
3301.704
3301.732
3301.807
3301.879
3301.944
3302.003
3302.061
3302.13
3302.227
3302.348
3302.442
3302.611
3302.88
3302.853
3302.095
3302.065
3302.071
3302.183
3302.256
3302.315
3302.373
3302.438
3302.524
3302.641
3302.761
3302.821
3302.958
3303.142
3302.607
3302.642
3302.692
3302.747
3302.813
3302.9
3302.998
3303.068
3297.493
3297.213
3296.962
3296.787
3296.684
3296.652
3298.955
3298.456
3297.96
3297.457
3297.187
3296.888
3296.657
3296.503
3296.417
3296.377
3296.453
3296.603
3296.766
3296.887
3299.727
3299.149
3298.704
3298.174
3297.741
3297.168
3296.849
3296.554
3296.348
3296.225
3296.182
3296.219
3296.371
3296.562
3296.764
3296.936
3297.126
3297.223
3299.96
3299.564
3299.035
3298.451
3297.865
3297.347
3296.856
3296.449
3296.166
3295.994
3295.916
3295.931
3296.046
3296.275
3296.532
3296.792
3297.033
3297.25
3297.414
3297.565
3300.319
3299.895
3299.441
3298.82
3298.219
3297.549
3296.978
3296.471
3296.075
3295.818
3295.683
3295.653
3295.729
3295.913
3296.193
3296.512
3296.84
3297.163
3297.442
3297.695
3297.941
3298.134
3300.69
3300.313
3299.786
3299.22
3298.649
3297.979
3297.275
3296.666
3296.14
3295.753
3295.518
3295.418
3295.435
3295.57
3295.82
3296.165
3296.555
3296.955
3297.348
3297.736
3298.082
3298.447
3298.857
3299.109
3301.064
3300.658
3300.207
3299.664
3299.08
3298.484
3297.79
3297.068
3296.446
3295.909
3295.521
3295.292
3295.211
3295.259
3295.437
3295.741
3296.148
3296.612
3297.094
3297.573
3298.045
3298.504
3298.945
3299.249
3299.414
3299.29
3301.49
3301.024
3300.599
3300.097
3299.552
3298.966
3298.357
3297.665
3296.963
3296.359
3295.829
3295.431
3295.182
3295.084
3295.128
3295.312
3295.626
3296.062
3296.579
3297.128
3297.674
3298.192
3298.662
3299.039
3299.235
3299.225
3299.078
3298.895
3301.779
3301.412
3300.982
3300.544
3300.014
3299.465
3298.881
3298.281
3297.631
3296.988
3296.433
3295.93
3295.526
3295.243
3295.092
3295.067
3295.187
3295.464
3295.883
3296.404
3296.977
3297.559
3298.097
3298.552
3298.888
3299.054
3299.097
3298.922
3298.758
3298.659
3301.716
3301.369
3300.949
3300.445
3299.943
3299.4
3298.835
3298.286
3297.721
3297.168
3296.678
3296.216
3295.807
3295.48
3295.262
3295.166
3295.203
3295.384
3295.71
3296.152
3296.684
3297.252
3297.791
3298.26
3298.608
3298.927
3299.049
3298.854
3298.638
3298.533
3301.886
3301.63
3301.325
3300.86
3300.385
3299.888
3299.366
3298.855
3298.396
3297.953
3297.523
3297.124
3296.728
3296.346
3296.002
3295.73
3295.553
3295.489
3295.553
3295.752
3296.07
3296.495
3296.981
3297.476
3297.947
3298.397
3298.799
3299.001
3298.803
3298.568
3298.444
3298.314
3301.799
3301.577
3301.273
3300.807
3300.339
3299.849
3299.367
3298.927
3298.545
3298.206
3297.901
3297.621
3297.331
3297.021
3296.706
3296.418
3296.194
3296.061
3296.036
3296.129
3296.337
3296.658
3297.065
3297.5
3297.942
3298.384
3298.771
3298.964
3298.827
3298.521
3298.387
3298.228
3301.677
3301.497
3301.214
3300.769
3300.305
3299.809
3299.329
3298.895
3298.531
3298.251
3298.043
3297.877
3297.712
3297.519
3297.298
3297.073
3296.883
3296.758
3296.721
3296.783
3296.946
3297.209
3297.555
3297.93
3298.287
3298.59
3298.844
3298.963
3298.845
3298.571
3298.393
3298.269
3301.546
3301.395
3301.126
3300.737
3300.289
3299.751
3299.191
3298.721
3298.394
3298.197
3298.076
3297.994
3297.914
3297.814
3297.684
3297.544
3297.451
3297.403
3297.424
3297.524
3297.699
3297.942
3298.198
3298.407
3298.573
3298.728
3298.867
3298.914
3298.781
3298.574
3298.437
3298.372
3301.517
3301.373
3301.266
3301.046
3300.716
3300.301
3299.73
3299.048
3298.614
3298.397
3298.29
3298.223
3298.169
3298.118
3298.055
3297.984
3297.913
3297.878
3297.891
3297.968
3298.071
3298.148
3298.168
3298.176
3298.198
3298.236
3298.341
3298.511
3298.654
3298.619
3298.501
3298.431
3298.366
3298.331
3301.392
3301.248
3301.135
3300.958
3300.694
3300.336
3299.808
3299.091
3298.682
3298.583
3298.547
3298.503
3298.442
3298.365
3298.279
3298.203
3298.134
3298.077
3298.035
3298.01
3297.995
3297.981
3297.965
3297.949
3297.938
3297.937
3297.981
3298.088
3298.233
3298.295
3298.296
3298.335
3298.303
3298.252
3301.273
3301.112
3300.993
3300.848
3300.65
3300.368
3299.931
3299.308
3298.896
3298.843
3298.915
3298.881
3298.787
3298.644
3298.53
3298.48
3298.462
3298.445
3298.419
3298.387
3298.348
3298.303
3298.249
3298.194
3298.144
3298.096
3298.047
3298.002
3297.979
3297.983
3298.003
3298.064
3298.071
3297.817
3301.181
3300.984
3300.843
3300.711
3300.565
3300.362
3300.041
3299.564
3299.191
3299.094
3299.175
3299.252
3299.139
3298.819
3298.565
3298.493
3298.546
3298.65
3298.743
3298.794
3298.798
3298.756
3298.682
3298.604
3298.55
3298.52
3298.477
3298.396
3298.285
3298.165
3298.05
3297.946
3297.903
3297.973
3301.131
3300.885
3300.704
3300.556
3300.433
3300.293
3300.081
3299.764
3299.472
3299.336
3299.337
3299.342
3299.198
3298.885
3298.535
3298.314
3298.309
3298.481
3298.724
3298.944
3299.086
3299.127
3299.075
3298.981
3298.926
3298.952
3299.016
3299.052
3299.027
3298.956
3298.86
3298.744
3298.709
3298.689
3301.093
3300.827
3300.597
3300.409
3300.271
3300.155
3300.017
3299.824
3299.628
3299.491
3299.407
3299.304
3299.068
3298.721
3298.36
3298.102
3298.036
3298.179
3298.475
3298.827
3299.135
3299.326
3299.368
3299.289
3299.201
3299.223
3299.362
3299.533
3299.66
3299.723
3299.739
3299.642
3299.58
3299.308
3300.806
3300.528
3300.308
3300.119
3299.978
3299.858
3299.725
3299.584
3299.452
3299.307
3299.09
3298.773
3298.419
3298.106
3297.91
3297.881
3298.03
3298.33
3298.719
3299.11
3299.415
3299.562
3299.543
3299.452
3299.435
3299.562
3299.783
3299.999
3300.152
3300.258
3300.228
3300.222
3300.895
3300.606
3300.298
3300.037
3299.829
3299.664
3299.517
3299.368
3299.203
3298.997
3298.706
3298.391
3298.113
3297.924
3297.858
3297.932
3298.139
3298.454
3298.836
3299.224
3299.546
3299.736
3299.768
3299.711
3299.695
3299.804
3300.015
3300.246
3300.418
3300.513
3300.585
3300.554
3301.048
3300.716
3300.379
3300.063
3299.783
3299.543
3299.328
3299.119
3298.894
3298.632
3298.376
3298.176
3298.049
3298.016
3298.088
3298.261
3298.519
3298.84
3299.188
3299.524
3299.794
3299.957
3300.005
3299.996
3300.025
3300.15
3300.35
3300.566
3300.708
3300.751
3300.808
3300.775
3301.251
3300.916
3300.557
3300.242
3299.907
3299.598
3299.315
3299.047
3298.798
3298.596
3298.458
3298.393
3298.403
3298.483
3298.63
3298.842
3299.103
3299.391
3299.676
3299.931
3300.123
3300.236
3300.291
3300.341
3300.439
3300.602
3300.797
3300.98
3301.074
3301.065
3301.068
3300.97
3301.09
3300.845
3300.49
3300.189
3299.865
3299.571
3299.336
3299.164
3299.049
3298.995
3299.001
3299.064
3299.178
3299.335
3299.531
3299.751
3299.978
3300.185
3300.357
3300.484
3300.568
3300.655
3300.778
3300.943
3301.128
3301.312
3301.444
3301.448
3301.476
3301.366
3301.424
3301.14
3300.906
3300.554
3300.278
3300.064
3299.894
3299.767
3299.692
3299.67
3299.697
3299.77
3299.881
3300.023
3300.184
3300.354
3300.516
3300.657
3300.771
3300.869
3300.964
3301.116
3301.308
3301.499
3301.676
3301.823
3301.852
3301.898
3301.829
3301.695
3301.396
3301.19
3300.996
3300.774
3300.589
3300.452
3300.357
3300.304
3300.298
3300.333
3300.405
3300.507
3300.628
3300.757
3300.883
3300.996
3301.096
3301.189
3301.303
3301.439
3301.658
3301.869
3302.038
3302.171
3302.275
3302.259
3302.251
3302.148
3301.51
3301.355
3301.224
3301.076
3300.967
3300.891
3300.855
3300.86
3300.898
3300.967
3301.059
3301.161
3301.262
3301.357
3301.445
3301.536
3301.642
3301.794
3301.956
3302.197
3302.373
3302.479
3302.563
3302.592
3302.607
3302.522
3301.681
3301.553
3301.486
3301.432
3301.376
3301.354
3301.367
3301.41
3301.475
3301.557
3301.643
3301.727
3301.807
3301.891
3301.994
3302.12
3302.286
3302.431
3302.65
3302.753
3302.801
3302.807
3302.844
3302.798
3301.901
3301.837
3301.829
3301.816
3301.818
3301.838
3301.885
3301.944
3302.022
3302.1
3302.175
3302.251
3302.34
3302.451
3302.569
3302.708
3302.794
3302.982
3302.979
3303.012
3302.961
3302.968
3302.199
3302.179
3302.195
3302.234
3302.274
3302.335
3302.392
3302.475
3302.545
3302.609
3302.678
3302.761
3302.85
3302.927
3303.021
3303.057
3303.178
3303.132
3303.103
3303.049
3302.553
3302.524
3302.62
3302.66
3302.758
3302.801
3302.915
3302.969
3303.011
3303.061
3303.12
3303.16
3303.155
3303.228
3303.217
3303.305
3303.212
3303.157
3303.045
3303.03
3303.118
3303.183
3303.289
3303.311
3303.322
3303.344
3303.368
3303.351
3303.284
3303.346
3303.335
3303.44
3303.604
3303.583
3303.557
3303.548
3303.545
3303.532
3298.987
3298.539
3298.107
3297.776
3297.488
3297.278
3297.128
3297.03
3296.999
3297.035
3300.034
3299.581
3299.03
3298.667
3298.217
3297.691
3297.354
3297.084
3296.896
3296.776
3296.72
3296.724
3296.756
3296.869
3296.988
3297.102
3300.176
3299.9
3299.24
3298.686
3298.215
3297.68
3297.225
3296.786
3296.531
3296.384
3296.329
3296.373
3296.463
3296.585
3296.75
3296.913
3297.059
3297.212
3300.984
3300.521
3300.011
3299.522
3298.918
3298.251
3297.663
3297.056
3296.57
3296.176
3295.961
3295.865
3295.873
3295.975
3296.139
3296.347
3296.585
3296.83
3297.029
3297.213
3297.424
3297.559
3301.164
3300.889
3300.305
3299.793
3299.21
3298.533
3297.795
3297.107
3296.455
3295.962
3295.624
3295.464
3295.427
3295.495
3295.651
3295.869
3296.129
3296.407
3296.693
3296.981
3297.278
3297.522
3297.745
3297.963
3301.447
3301.095
3300.67
3300.113
3299.555
3298.92
3298.179
3297.372
3296.605
3295.926
3295.454
3295.176
3295.075
3295.101
3295.234
3295.448
3295.716
3296.014
3296.326
3296.655
3297.008
3297.388
3297.775
3298.067
3298.371
3298.654
3301.753
3301.376
3300.948
3300.475
3299.899
3299.33
3298.667
3297.877
3297.019
3296.191
3295.496
3295.051
3294.827
3294.784
3294.877
3295.083
3295.373
3295.711
3296.072
3296.444
3296.836
3297.262
3297.723
3298.207
3298.672
3298.956
3299.126
3299.228
3302.028
3301.671
3301.278
3300.764
3300.263
3299.708
3299.138
3298.461
3297.645
3296.765
3295.899
3295.19
3294.76
3294.57
3294.569
3294.719
3294.998
3295.373
3295.806
3296.267
3296.745
3297.246
3297.774
3298.307
3298.799
3299.171
3299.337
3299.351
3299.343
3299.273
3301.957
3301.603
3301.116
3300.59
3300.093
3299.559
3298.988
3298.299
3297.475
3296.607
3295.771
3295.057
3294.609
3294.41
3294.408
3294.567
3294.882
3295.32
3295.83
3296.38
3296.951
3297.532
3298.1
3298.602
3298.96
3299.11
3299.131
3299.099
3299.05
3299.087
3302.102
3301.826
3301.459
3300.959
3300.454
3299.971
3299.451
3298.873
3298.179
3297.377
3296.562
3295.794
3295.111
3294.628
3294.359
3294.293
3294.424
3294.734
3295.182
3295.716
3296.304
3296.919
3297.526
3298.077
3298.51
3298.766
3298.886
3298.864
3298.744
3298.725
3298.775
3298.859
3302.179
3301.997
3301.742
3301.317
3300.834
3300.354
3299.887
3299.369
3298.782
3298.109
3297.381
3296.665
3295.999
3295.385
3294.896
3294.568
3294.414
3294.441
3294.649
3295.017
3295.5
3296.054
3296.65
3297.249
3297.795
3298.237
3298.55
3298.764
3298.71
3298.474
3298.37
3298.428
3298.627
3298.668
3302.095
3301.915
3301.626
3301.197
3300.74
3300.288
3299.829
3299.302
3298.732
3298.139
3297.546
3296.985
3296.462
3295.956
3295.499
3295.13
3294.882
3294.781
3294.842
3295.058
3295.401
3295.838
3296.344
3296.88
3297.402
3297.877
3298.345
3298.679
3298.629
3298.299
3298.135
3298.153
3298.2
3298.297
3301.978
3301.798
3301.49
3301.094
3300.675
3300.248
3299.78
3299.258
3298.736
3298.247
3297.804
3297.415
3297.055
3296.687
3296.31
3295.951
3295.652
3295.456
3295.391
3295.464
3295.664
3295.967
3296.357
3296.807
3297.278
3297.76
3298.222
3298.581
3298.604
3298.224
3297.985
3297.917
3297.893
3297.894
3302.072
3301.837
3301.659
3301.357
3301.002
3300.627
3300.214
3299.739
3299.217
3298.713
3298.28
3297.935
3297.674
3297.459
3297.238
3296.986
3296.713
3296.452
3296.254
3296.153
3296.165
3296.291
3296.515
3296.824
3297.202
3297.61
3297.989
3298.32
3298.569
3298.597
3298.259
3297.967
3297.859
3297.756
3297.677
3297.696
3301.965
3301.74
3301.524
3301.223
3300.909
3300.583
3300.188
3299.706
3299.119
3298.571
3298.172
3297.915
3297.759
3297.65
3297.542
3297.406
3297.232
3297.054
3296.941
3296.898
3296.945
3297.083
3297.304
3297.579
3297.838
3298.056
3298.253
3298.441
3298.58
3298.553
3298.301
3298.027
3297.894
3297.763
3297.568
3297.532
3301.865
3301.621
3301.375
3301.086
3300.813
3300.537
3300.173
3299.697
3299.012
3298.44
3298.133
3297.984
3297.903
3297.84
3297.779
3297.707
3297.618
3297.527
3297.478
3297.492
3297.579
3297.71
3297.798
3297.832
3297.857
3297.901
3297.98
3298.127
3298.303
3298.36
3298.236
3298.058
3297.942
3297.843
3297.636
3297.46
3301.787
3301.508
3301.227
3300.95
3300.708
3300.478
3300.163
3299.729
3299.06
3298.456
3298.273
3298.221
3298.181
3298.125
3298.058
3297.974
3297.897
3297.832
3297.782
3297.748
3297.73
3297.721
3297.709
3297.692
3297.676
3297.672
3297.685
3297.745
3297.867
3297.978
3297.972
3297.913
3297.851
3297.722
3297.55
3297.548
3301.732
3301.42
3301.107
3300.822
3300.592
3300.4
3300.145
3299.782
3299.208
3298.662
3298.501
3298.565
3298.564
3298.49
3298.365
3298.237
3298.169
3298.145
3298.136
3298.125
3298.107
3298.076
3298.031
3297.973
3297.916
3297.873
3297.836
3297.79
3297.74
3297.698
3297.662
3297.613
3297.545
3297.498
3297.592
3297.932
3301.71
3301.369
3301.024
3300.714
3300.471
3300.293
3300.099
3299.82
3299.381
3298.933
3298.75
3298.81
3298.91
3298.873
3298.576
3298.291
3298.171
3298.186
3298.281
3298.392
3298.473
3298.502
3298.473
3298.397
3298.314
3298.271
3298.269
3298.256
3298.199
3298.11
3298.026
3297.977
3297.989
3298.08
3298.268
3298.556
3301.723
3301.359
3300.987
3300.643
3300.364
3300.168
3300.01
3299.811
3299.505
3299.173
3298.99
3298.977
3299.008
3298.926
3298.647
3298.285
3298.012
3297.939
3298.063
3298.3
3298.551
3298.739
3298.819
3298.782
3298.683
3298.633
3298.693
3298.813
3298.911
3298.955
3298.967
3298.981
3299.015
3299.065
3299.099
3299.199
3301.736
3301.363
3301.015
3300.63
3300.301
3300.055
3299.884
3299.731
3299.53
3299.301
3299.136
3299.057
3298.986
3298.802
3298.481
3298.106
3297.802
3297.674
3297.762
3298.031
3298.393
3298.742
3298.984
3299.062
3298.995
3298.91
3298.957
3299.151
3299.386
3299.574
3299.7
3299.789
3299.851
3299.887
3299.808
3299.768
3301.796
3301.478
3301.074
3300.665
3300.295
3299.988
3299.761
3299.595
3299.438
3299.271
3299.116
3298.979
3298.807
3298.522
3298.171
3297.833
3297.597
3297.523
3297.637
3297.918
3298.31
3298.726
3299.069
3299.253
3299.258
3299.183
3299.197
3299.378
3299.662
3299.929
3300.127
3300.27
3300.366
3300.373
3300.375
3300.223
3301.896
3301.577
3301.189
3300.759
3300.354
3299.995
3299.697
3299.465
3299.278
3299.104
3298.926
3298.723
3298.447
3298.133
3297.845
3297.635
3297.546
3297.6
3297.796
3298.109
3298.496
3298.898
3299.24
3299.451
3299.506
3299.478
3299.508
3299.678
3299.955
3300.235
3300.448
3300.598
3300.708
3300.698
3300.699
3300.548
3301.63
3301.298
3300.884
3300.465
3300.075
3299.725
3299.421
3299.158
3298.92
3298.682
3298.419
3298.153
3297.935
3297.798
3297.761
3297.83
3298.001
3298.26
3298.582
3298.932
3299.27
3299.546
3299.72
3299.789
3299.818
3299.902
3300.091
3300.356
3300.617
3300.808
3300.933
3301.015
3300.978
3300.971
3301.834
3301.506
3301.135
3300.685
3300.262
3299.874
3299.523
3299.203
3298.913
3298.661
3298.457
3298.314
3298.238
3298.237
3298.313
3298.462
3298.673
3298.929
3299.211
3299.49
3299.74
3299.934
3300.06
3300.142
3300.233
3300.382
3300.593
3300.843
3301.07
3301.223
3301.316
3301.355
3301.273
3301.211
3302.025
3301.788
3301.394
3300.967
3300.547
3300.16
3299.82
3299.535
3299.303
3299.122
3298.995
3298.926
3298.915
3298.964
3299.069
3299.223
3299.415
3299.629
3299.846
3300.048
3300.22
3300.358
3300.464
3300.581
3300.732
3300.92
3301.127
3301.347
3301.531
3301.644
3301.707
3301.671
3301.6
3301.465
3301.913
3301.636
3301.314
3300.935
3300.573
3300.262
3300.016
3299.831
3299.699
3299.621
3299.591
3299.609
3299.675
3299.784
3299.927
3300.09
3300.259
3300.421
3300.566
3300.694
3300.816
3300.933
3301.092
3301.269
3301.445
3301.611
3301.784
3301.928
3302.032
3302.074
3302.006
3301.874
3301.901
3301.654
3301.345
3301.013
3300.726
3300.504
3300.347
3300.246
3300.196
3300.193
3300.231
3300.309
3300.419
3300.549
3300.687
3300.821
3300.946
3301.064
3301.181
3301.313
3301.44
3301.608
3301.745
3301.859
3301.96
3302.122
3302.27
3302.371
3302.364
3302.323
3302.172
3301.954
3301.732
3301.473
3301.209
3301.002
3300.86
3300.775
3300.743
3300.758
3300.811
3300.897
3301.003
3301.119
3301.234
3301.344
3301.451
3301.56
3301.677
3301.809
3301.901
3302.014
3302.057
3302.115
3302.209
3302.406
3302.57
3302.611
3302.614
3302.54
3302.134
3301.97
3301.817
3301.645
3301.479
3301.364
3301.3
3301.282
3301.304
3301.368
3301.458
3301.557
3301.656
3301.751
3301.842
3301.936
3302.034
3302.126
3302.21
3302.21
3302.245
3302.241
3302.31
3302.434
3302.68
3302.77
3302.803
3302.766
3302.213
3302.101
3302.032
3301.941
3301.858
3301.82
3301.815
3301.838
3301.908
3301.997
3302.08
3302.156
3302.226
3302.293
3302.36
3302.417
3302.442
3302.454
3302.387
3302.419
3302.422
3302.533
3302.684
3302.864
3302.924
3302.909
3302.363
3302.373
3302.338
3302.32
3302.323
3302.333
3302.352
3302.431
3302.512
3302.562
3302.6
3302.63