/*--------------------------------*- C++ -*----------------------------------*\
  =========                 |
  \\      /  F ield         | OpenFOAM: The Open Source CFD Toolbox
   \\    /   O peration     | Website:  https://openfoam.org
    \\  /    A nd           | Version:  6
     \\/     M anipulation  |
\*---------------------------------------------------------------------------*/
FoamFile
{
    version     2.0;
    format      ascii;
    class       volScalarField;
    location    "49.8/region0/neutronTransport";
    object      volPower;
}
// * * * * * * * * * * * * * * * * * * * * * * * * * * * * * * * * * * * * * //

dimensions      [1 -1 -3 0 0 0 0];

internalField   nonuniform List<scalar> 
203709
(
520032.5
572140
572000.9
519967.5
543458
608314.5
753120.3
745090.3
744911.3
752813.2
607909.7
543049.3
531092.1
610537.3
762887.1
760540.5
782077.3
787380.4
787264.9
781775.6
760060
762274.6
609886.6
530415.6
531202.6
741780.5
757364.6
786876.9
802133.1
815570.7
821465.4
821389
815267.1
801655.6
786262.3
756598.9
740897.3
530443.7
610668.6
757406.6
791371.5
815414.5
833603.6
846737.3
853234.3
853173.2
846456.3
833156.4
814836.6
790636.1
756523.8
609803.4
543690.6
763084
786962.7
815407.2
840170.9
859721.5
873272.1
879963.3
879903
873075.4
859398.1
839662.2
814729.3
786108.7
762061.5
542799.9
608559.5
760761
802249.7
833617.8
859752.4
880092.4
893613.1
899979.3
899937.7
893500.2
879826.7
859347
833098
801539.9
759848.3
607689
520590.4
753620.2
782504.5
815894.1
847002.4
873517.5
893818.9
906378
912551.9
912482.6
906192.7
893480.9
873111.3
846505
815235.7
781672.9
752680.3
519636.6
572666.2
745659.2
787927.5
822028.9
853740
880417.2
900398.5
912817.4
919532.1
919246.8
912530.7
900029.9
879999.2
853222.4
821385.4
787196.6
744775
571773.1
572791.8
745898.7
788099.5
822144.2
853869.3
880555.4
900495.5
912925.6
919806.3
919515.9
912668.5
900138.3
880090.1
853356.8
821541.8
787371.6
745038.7
572008.9
520618.3
754012.6
782869.7
816294.6
847432.4
873923.5
894180
906759.2
912986.6
912859.1
906550.1
893872.6
873499.1
846929.9
815702.6
782173.9
753136.7
520018.6
608867.8
761245.9
802856
834308.5
860400.2
880687.7
894191.5
900609.6
900498.8
894087.7
880467
860079.1
833869.9
802318.4
760668.8
608359.6
544017.4
763623.9
787550.2
816075.6
840834.9
860409.3
873939.1
880749.3
880695.3
873950.7
860340.5
840712.7
815863.8
787251.5
763225.2
543618.6
611083
757939.4
791983.5
816102.2
834353.8
847590.9
854548.6
854537.2
847612.9
834392.4
816126.5
791980.3
757923.4
610956.4
531621.3
742446.6
758033.4
787667.7
802987.4
816566.9
822915.9
822941.2
816641.7
803106.8
787777
758122.2
742522.5
531505.8
531718.2
611240.8
763862.3
761499.3
783266.2
788886.3
788982.8
783380.8
761717.3
764042.7
611305.6
531714.3
544270.3
609213
754520
746858.8
747008
754670
609387.9
544387.4
521161.9
573398.7
573486.4
521261.1
436716.6
496338
516425.9
530172.9
538736.2
538650.3
529919.1
515997.2
495756.6
436098.2
445486.3
518979
660953.9
682317.8
706743.6
733681.6
754982
754867.1
733375.7
706113.5
681323.6
659633.5
517718.3
444251.2
455936.5
650165.3
686449.3
739012.7
788853.6
830284
883901.1
928093.1
927936.5
883473.2
829413
787624.7
737642
684906.3
648545.8
454695.1
460456.8
662314.5
721552.3
786207.1
853227
948791
1067175
1184964
1227071
1226835
1184191
1066085
947556.5
851899.6
784695.2
719881.5
660435.5
459129.9
456000.8
662268.5
728824.9
804545.4
930561.1
1082540
1246181
1366370
1455800
1600955
1600643
1455022
1365187
1244662
1080988
928902.8
802915.6
726998.1
660326.1
454595.4
445717
650480.5
721646
804627.5
977179.5
1207649
1365720
1495723
1704829
1798359
1853449
1853141
1797466
1703480
1494114
1363895
1205642
975256.4
802753.3
719729.7
648498.5
444253.1
519140.2
686628.5
786353.7
930700.1
1207735
1428711
1679791
1818637
1927040
1993898
2027845
2027563
1993072
1925791
1816985
1677795
1426609
1205668
928794.2
784566.6
684858.8
517596
437276.3
661373.2
739243.4
853494.8
1082760
1366099
1679963
1868427
1989876
2073801
2127043
2153239
2153029
2126388
2072742
1988430
1866632
1677941
1364134
1080980
851843
737479.4
659355.4
435681.2
497022.2
683074
789279.4
949310
1246840
1496349
1819030
1990060
2100182
2174417
2221299
2244097
2243943
2220806
2173540
2098876
1988331
1816942
1494185
1244707
947303.2
787407.9
680985.8
495229.2
517211.7
707755.5
830982.9
1067801
1367350
1705747
1927769
2074377
2174822
2243696
2287310
2308562
2308427
2286876
2242870
2173592
2072747
1925774
1703447
1364910
1065893
829200.1
705661.6
515438.2
531038.7
734916.1
885128.1
1186269
1457189
1799741
1995116
2128184
2222376
2288058
2329621
2349824
2349556
2328903
2286953
2221019
2126645
1993341
1797677
1454986
1184263
883190.4
732927.7
529418.8
539636.2
756254.8
929491
1228801
1602902
1855364
2029649
2154958
2245738
2309963
2350657
2370525
2370076
2349684
2308647
2244269
2153416
2027994
1853532
1600910
1226923
927767
754533.2
538191.5
539559.8
756140.8
929404.6
1228826
1603117
1855676
2030001
2155318
2246073
2310265
2350989
2370969
2370536
2350077
2309001
2244611
2153790
2028428
1854029
1601394
1227170
927890.2
754634.6
538265.5
530853.7
734798.8
885304.5
1186701
1457669
1800546
1996105
2129212
2223352
2289004
2330641
2350973
2350691
2329979
2288027
2222152
2127902
1994747
1799178
1456389
1185314
884028.1
733535
529723.7
517079.8
707800.1
831448.1
1068501
1368087
1706879
1929183
2075915
2176388
2245263
2288941
2310304
2310165
2288663
2244790
2175725
2075102
1928268
1705913
1367160
1067354
830309.5
706760.5
516110.4
496976.2
683251.5
789837.1
949896.9
1247840
1497588
1820600
1991793
2101996
2176339
2223370
2246370
2246382
2223503
2176482
2102063
1991714
1820317
1497053
1247113
949223.7
788926.4
682381
496140.3
437268.8
661656
739803.1
854088.9
1083760
1367300
1681478
1870162
1991852
2076056
2129634
2156118
2156237
2130024
2076639
1992501
1870737
1681811
1367195
1083400
853711.3
739121.9
660908.5
436626.6
519531.8
687114.1
786897.3
931491.7
1208955
1430214
1681729
1820985
1929803
1997128
2031386
2031549
1997598
1930513
1821812
1682557
1430843
1209175
931473.8
786792.2
686642.9
518852.1
446057.2
650874.6
722225.3
805412.4
978315.3
1209290
1367891
1498370
1708046
1802152
1857657
1857853
1802598
1708663
1499002
1368559
1209854
978607.9
805498
722217.2
650562
445421.7
456460.1
663106.9
729749.6
805559.3
931865.9
1084383
1248836
1369513
1459445
1605246
1605456
1459851
1369940
1249225
1084906
932324.3
805868.5
729895.6
663099.4
456186.7
461048.4
663194.1
722578.6
787520.3
854823
950614.1
1069604
1188337
1230839
1230963
1188511
1069931
951129.7
855195.9
787836.9
722869.1
663404.3
461053.7
456476.2
651323.8
687689.4
740421.7
790510
832424.5
886572.7
931078.3
931149.5
886742.8
832602.3
790920.2
740932.3
688109.1
651637.8
456646.5
446329.9
519941.9
662432
684158.3
708894.1
736078.9
757618.2
757699
736275.6
709130.4
684464.3
662964.6
520369.3
446606
437743.2
497612.4
517840
531737.1
540508.2
540565.8
532006.8
518209.6
498006.7
438062.4
370727.1
420325.5
432676.6
437372.9
437195.3
432147
419418.8
369838.7
370400.5
444185.1
486281.7
612482.6
635210.1
648459.8
654426.7
654207.2
647781.4
634096.1
611366.4
485287.3
443149.9
369589.2
408379
594017.5
650644.2
717267.6
790136.1
823849.2
844500
854108.5
853860.8
843753.1
822617.7
788545.8
715635.7
648940.4
592252.9
407319.6
382820.2
475644
638793.2
759082.3
888891.7
1034452
1108315
1151214
1179683
1194332
1193989
1178660
1149537
1106063
1031831
886360.4
756793
636488.6
473889
381223.7
386459.6
582554.3
676016.6
840659.5
1053674
1204410
1330397
1529111
1621717
1676109
1703001
1702550
1674791
1619617
1526411
1327549
1201297
1050366
837553.2
673443.6
579924
384679.2
382908.3
582747.9
698140.6
874735.5
1130685
1318931
1574846
1740185
1883512
1989813
2061763
2097420
2096878
2060209
1987253
1880133
1736287
1570570
1314724
1126612
871350.6
694977.9
579825.5
380968.2
476010.8
676383.9
874961.4
1148884
1363487
1664977
1885842
2065710
2219254
2343252
2431543
2467517
2466881
2429664
2340296
2215497
2061388
1881081
1660048
1358781
1144294
871186.2
673223.6
473630.2
409027.6
639212.9
841002.5
1131221
1363616
1692209
1953938
2183580
2381658
2548905
2673576
2762083
2812891
2812230
2760149
2670536
2544984
2377078
2178536
1948722
1686959
1358809
1126680
837332.2
636150.6
406873.3
370816
594646.9
759742
1054354
1319861
1665652
1954254
2225877
2472966
2674237
2840035
2978203
3075255
3127500
3126879
3073416
2975317
2836281
2669759
2467985
2220648
1948877
1660358
1315018
1049897
756458.4
591715.5
368826.6
444835.5
651484.5
889710.7
1205735
1576047
1886818
2184108
2473200
2719868
2937599
3113600
3250264
3341973
3388596
3388044
3340353
3247745
3110259
2933553
2715311
2468330
2179039
1881718
1571054
1201049
886205.4
648630.7
442608.6
486985.2
718124.7
1035379
1332243
1741785
2067004
2382484
2674860
2937936
3163694
3338943
3468128
3553088
3595323
3594912
3551854
3466106
3336186
3160296
2934027
2670608
2377985
2062310
1737007
1327625
1031827
715319.7
484751.4
371308.2
613540
791065.3
1109675
1531421
1885673
2221023
2550361
2841227
3114403
3339354
3510211
3633358
3713327
3752696
3752398
3712399
3631739
3507886
3336318
3110724
2837055
2545833
2216228
1880715
1526485
1105962
788104.5
610612.7
369409.5
420817.5
636142.7
825123.3
1153116
1624558
1992665
2345640
2675705
2980032
3251749
3469279
3634137
3752509
3829067
3866652
3866365
3828171
3750945
3631928
3466437
3248311
2976079
2671335
2341071
1987763
1619668
1149285
822025.2
633412
418816.4
433399.5
649610.5
846075.9
1182094
1679570
2065473
2434944
2765124
3077944
3344322
3555232
3715288
3830365
3904676
3940976
3940492
3903325
3828338
3712825
3552516
3341307
3074501
2761225
2430673
2060807
1674960
1178353
843066.6
646948.8
431338.4
438349.4
655917.8
856031
1197199
1707040
2101860
2471901
2816994
3131260
3391987
3598442
3755622
3869099
3942406
3978146
3977488
3940685
3866710
3752968
3595741
3389201
3128209
2813550
2468034
2097656
1702838
1193692
853147.5
653303.1
436325.3
438388.2
655957.9
856058.5
1197251
1707098
2102003
2472205
2817439
3131811
3392596
3599053
3756193
3869640
3942979
3978797
3978177
3941353
3867343
3753593
3596412
3389961
3129053
2814392
2468765
2098286
1703359
1194038
853382.6
653495.8
436470.3
433555.9
649800.7
846210.9
1182268
1679757
2066012
2435961
2766399
3079476
3346034
3556965
3716938
3832017
3906441
3942889
3942441
3905231
3830239
3714832
3554741
3343787
3077146
2763834
2433011
2062845
1676511
1179287
843730.2
647502.8
431754.5
421126.4
636454.8
825367.4
1153470
1624897
1993549
2347185
2677615
2982251
3254244
3471933
3636842
3755238
3831902
3869619
3869419
3831361
3754383
3635729
3470631
3252794
2980625
2675689
2344850
1990983
1622160
1150646
823045.8
634312.7
419450.3
371655.2
613762.1
791543.4
1110337
1531883
1886773
2222671
2552558
2843785
3117292
3342461
3513478
3636792
3717006
3756672
3756737
3717213
3637050
3513667
3342457
3116978
2843100
2551489
2221245
1884882
1529739
1107687
789414.8
611888
370218.3
487225.5
718601
1036238
1332656
1742989
2068589
2384697
2677490
2940890
3166985
3342638
3472292
3557778
3600525
3600771
3558500
3473372
3343886
3168161
2941732
2677807
2384558
2067976
1741697
1331264
1033894
716753.7
485792.9
444916.6
651810.5
890417.5
1206404
1577319
1888346
2186218
2475945
2723143
2941487
3118190
3255584
3348045
3395342
3395638
3348898
3256882
3119770
2943140
2724592
2476954
2186765
1888268
1576434
1205361
888723.8
650370.4
443812.9
370778
595100.1
760411.4
1055227
1321092
1667316
1956571
2228986
2476849
2678962
2845672
2984702
3082644
3135696
3135978
3083404
2985824
2847042
2680473
2478250
2230076
1957242
1667396
1320380
1054453
759110.3
593761.3
370083.9
408994.6
639686.3
841817.5
1132272
1365394
1694689
1957263
2187757
2386789
2555130
2680775
2770232
2821894
2822146
2770873
2681677
2556243
2388073
2188983
1958277
1695370
1365632
1132099
841211.2
638855.8
408356.1
476287.4
677029.3
875972.1
1150513
1365688
1668399
1890250
2071051
2225512
2350564
2439975
2476824
2477003
2440454
2351308
2226505
2072089
1891259
1669287
1366332
1150759
875787.2
676530.8
475735.9
383324.7
583388.5
699050.5
876117.3
1133053
1322210
1579008
1745323
1889633
1996914
2069820
2106218
2106351
2070257
1997534
1890429
1746274
1580054
1323028
1133585
876327
698947
583039.1
382901.6
386854.8
583522.8
677389.6
842274.1
1056004
1207597
1334661
1534408
1627765
1682909
1710410
1710508
1683387
1628510
1535272
1335482
1208648
1056949
842833.7
677576.6
583473
386700.1
383452.4
476677.2
640106.4
760987.3
891162.4
1037408
1111724
1155053
1184134
1199810
1199786
1184749
1155986
1112767
1038460
892045.2
761590.9
640532.8
476766.1
383483.8
409354.1
595474.9
652482.8
719388.7
792476
826429.6
847459.5
857672.4
857607.3
847841
826973.8
793094.1
719932.8
652918.4
596094.5
409592.2
371123.4
445439
487731.7
614561.2
637241.6
650722.1
657348.6
657365.5
650924.4
637526.7
615016.4
488086.9
445708
371563
372002.2
421566.9
434081.8
439173
439191.4
434191.9
421700.6
372019
329403.1
371219.4
380499.9
380319.8
370677.2
328871.3
316721.9
393730.4
440438.2
493634.2
613110.6
638881.8
648719
648346.2
637867.7
611747.1
492796.9
439629.1
392823.4
316058.1
319300.4
413272.6
573869.5
671180.3
756635.3
879347.3
947129.6
975149
988705.1
988183
973722.4
945314.9
877646.3
754797.2
669078.6
572092.9
412108.3
318485
357112.6
554418.3
693582.2
890181.9
1004469
1117652
1219072
1387629
1452374
1478032
1477420
1450631
1385069
1216187
1114323
1001056
886498.3
691139.5
552227.4
355957.2
382617.3
615787.1
800423.2
1023239
1199802
1442637
1600062
1720853
1821801
1883624
1911927
1911236
1881608
1818635
1716862
1595566
1437982
1195375
1018795
797078.9
612912.1
380952.1
396855.9
665958
921943.2
1118809
1313229
1631040
1858881
2038696
2166180
2262765
2325219
2355239
2354457
2322914
2259066
2161331
2032990
1852829
1625177
1307959
1113573
917263.7
662456.9
394790.5
382835.9
666141.6
963008.4
1191399
1513721
1780211
2046783
2269146
2453836
2609413
2723578
2796197
2831175
2830288
2793595
2719432
2604006
2447473
2262140
2039494
1772952
1506868
1185433
957499.5
662422.6
380706.2
357498.7
616112.4
922540.6
1191619
1553204
1869908
2164047
2424110
2667515
2874030
3043594
3168889
3249857
3288976
3287984
3246958
3164258
3037523
2866862
2659568
2415713
2155514
1861698
1545686
1185394
917329
612614.8
355374
319724.1
554888.4
801338.7
1119516
1514473
1870433
2204659
2501755
2789610
3051222
3271939
3451098
3586137
3674306
3715716
3714631
3671123
3581098
3444567
3264267
3042707
2780545
2492408
2195317
1861686
1506768
1113405
796905.5
551563.4
317690.4
413874.6
694625.8
1023993
1314813
1781593
2165247
2502411
2829433
3135713
3408481
3640400
3827927
3969743
4064883
4112956
4111854
4061651
3964638
3821320
3632617
3399829
3126468
2819816
2492689
2155751
1772978
1307862
1018472
690673.9
411436.7
317359
574589
890969.1
1201318
1633312
2048962
2426093
2790970
3136327
3453073
3734164
3973854
4169663
4322017
4426355
4479610
4478595
4423359
4317283
4163513
3966551
3725979
3444222
3126968
2781318
2416406
2039726
1625236
1194634
886200.6
571268.7
315624.1
394198.1
672012.5
1005690
1445132
1861755
2272183
2670217
3053162
3409580
3734634
4022630
4273437
4480065
4639465
4747433
4801831
4800957
4744853
4635434
4474770
4267075
4015407
3726727
3401077
3044198
2660892
2262921
1853329
1437660
1000227
668259.8
391996.9
441269
758013.1
1119766
1603386
2042252
2457772
2877517
3274474
3642035
3974879
4273969
4534823
4747601
4908890
5016869
5070814
5070172
5014943
4905743
4743349
4529632
4267976
3968221
3634739
3266518
2868820
2448768
2033780
1595564
1113626
753521
438507.4
494792.9
881761.1
1222294
1724973
2170678
2614292
3048040
3454490
3830375
4171464
4481287
4748228
4963173
5124005
5230703
5283731
5283271
5229288
5121588
4959770
4743843
4475991
4165366
3823525
3446811
3039451
2605289
2162027
1716822
1215424
875942.1
491467
330316.4
614532.4
949982.7
1391676
1826679
2268239
2729488
3174478
3590696
3973283
4324818
4641693
4910558
5125090
5284481
5389624
5441682
5441226
5388236
5282149
5121907
4906532
4636852
4319217
3966890
3583384
3166168
2720700
2259592
1818339
1384039
943758.9
610315.8
327866.5
372010.3
640581.5
978166.7
1456883
1889168
2331634
2803214
3256766
3680370
4069889
4430492
4750927
5019942
5233470
5391418
5495247
5546390
5545684
5493255
5388443
5229887
5016086
4746707
4425660
4064213
3673665
3249052
2795000
2323412
1881162
1449420
972147.3
636317.4
369553.2
381559.3
650761.4
991974.5
1483068
1918199
2362562
2839287
3297227
3723412
4119704
4485420
4806861
5075271
5287841
5445100
5548390
5599132
5598216
5545902
5441622
5284007
5071437
4802961
4481118
4114628
3717343
3290246
2831823
2355020
1910814
1476191
986553.7
646791.6
379133.2
381576.3
650856
992204.8
1483198
1918309
2362662
2839429
3297521
3723948
4120440
4486271
4807747
5076133
5288646
5445880
5549208
5600025
5599158
5546836
5442520
5284899
5072390
4804033
4482306
4115857
3718516
3291320
2832777
2355877
1911640
1476947
987150
647171.7
379317.8
372225.2
640770
978360.4
1457099
1889446
2331929
2803622
3257632
3681931
4071972
4432871
4753439
5022441
5235837
5393823
5497793
5549085
5548428
5495966
5391156
5232749
5019251
4750228
4429435
4068016
3677250
3252293
2797807
2325867
1883495
1451520
973806.8
637414
370110.4
330621.9
614416.3
949886.4
1391853
1827047
2268744
2730146
3175815
3593036
3976350
4328298
4645445
4914493
5129091
5288482
5393724
5445919
5445601
5392823
5287099
5127373
4912559
4643316
4325841
3973345
3589332
3171454
2725205
2263372
1821815
1387020
945989.3
611548.3
328848.7
494865.3
881397.1
1222496
1725450
2171452
2615198
3049725
3457241
3833943
4175552
4485771
4752969
4968110
5129136
5236130
5289559
5289624
5236307
5129342
4968232
4752852
4485241
4174491
3832223
3454763
3046437
2611200
2166798
1721000
1218613
878329
492671.3
441322.6
758176.6
1120109
1603842
2043233
2458890
2879443
3277365
3645745
3979204
4278757
4540066
4753370
4915277
5023973
5078721
5079046
5024906
4916674
4755002
4541620
4279881
3979629
3645366
3276072
2877163
2455843
2039348
1600198
1116774
755418.3
439363.3
394537.6
672502.6
1006376
1445608
1862753
2273587
2672360
3056134
3413422
3739348
4028151
4279809
4487377
4647790
4756838
4812361
4812745
4757945
4649486
4489459
4281982
4030057
3740677
3413972
3055691
2670851
2271335
1859791
1442782
1003361
669988.7
392726.9
317647.6
574953.8
891961.1
1201767
1634134
2050549
2428485
2794288
3140700
3458575
3740793
3981644
4178688
4332306
4437964
4492535
4492865
4438906
4333747
4180489
3983592
3742579
3459932
3141394
2794119
2427419
2048972
1632090
1199812
889088.6
573047.6
316276.5
414087.6
694919.1
1024890
1315278
1783235
2167713
2505938
2834176
3141785
3415908
3649210
3838198
3981478
4078074
4127533
4127786
4078790
3982582
3839623
3650817
3417448
3143028
2834901
2506004
2167135
1782161
1314110
1023086
693246.8
412796.5
319773.4
555312
801941.1
1120888
1516365
1873015
2208330
2506731
2796073
3059193
3281416
3462094
3598674
3688350
3731119
3731292
3688859
3599491
3463196
3282680
3060456
2797110
2507352
2208406
1872491
1515311
1119497
800528.9
554089
319039.2
357619.1
616852.4
923786.4
1193161
1555566
1873496
2169046
2430609
2675475
2883551
3054660
3181431
3263789
3304123
3304247
3264195
3182078
3055530
2884594
2676568
2431436
2169495
1873591
1555256
1192570
922533.9
615811.1
357020
383106.1
666890.1
964742.5
1193293
1517108
1784728
2052696
2276441
2462655
2619665
2735156
2809032
2845114
2845208
2809442
2735833
2620527
2463620
2277441
2053384
1785041
1517224
1193151
964199.3
666262.4
382602.9
397229
666994.9
924292
1121744
1317032
1636249
1865258
2046291
2175029
2272783
2336386
2367537
2367569
2336799
2273473
2175906
2047300
1866143
1636750
1317056
1121891
924231.8
666760.7
396947.4
383102.4
616978
802799.5
1026064
1203185
1447613
1606332
1728364
1830360
1893095
1922168
1922147
1893321
1830766
1728935
1607149
1448575
1204176
1026514
802894.1
617210.3
383053.5
357713.6
555661.8
695749.2
892716.4
1007522
1121641
1224519
1394332
1459805
1486021
1486047
1460067
1394796
1225100
1122705
1008830
893676.6
695946.2
555969.5
357787.2
319870.1
414379.9
575412
672964.2
759068.4
882996.5
951585.9
980036.1
993978.8
993931.8
980316.4
952224.6
884033.8
760184.7
673972.8
576049.2
414607.8
320115.7
317888
394619.8
441661
495404.6
615370
641661.7
651888.2
651907.8
641908.8
615924
495978.3
442376.8
395257.9
317889.3
330953.1
372573.7
382077.4
382069.3
372671.6
330933.3
273958.1
332516.3
375344.4
402965.9
412696.8
412900.6
403553.4
376465.8
333451.2
274164
278806
378347.6
447899.4
568760.5
647333.4
762338.4
802594.8
818034.5
817469.8
801453.1
760891.3
646248.3
568090.5
446868.2
377612.3
278155.6
370467.7
577180.9
751056.4
852098.4
951280.4
1050590
1135886
1283605
1328967
1328211
1281727
1133436
1047399
948326.5
849842.6
748860.3
575045.9
368988.5
306853.8
473092.3
757291.9
948047.1
1103723
1339415
1496141
1627912
1724297
1803401
1841904
1840999
1800942
1720777
1623592
1491456
1334929
1100116
943970.6
753176
470877.1
305596.4
332295
592679.2
870337.5
1094365
1393934
1628594
1830347
2000824
2140707
2259870
2341881
2381592
2380608
2339083
2255585
2135260
1994487
1823665
1621960
1387753
1088905
865069.1
589654
330673
338843.5
617605.6
936192.7
1185541
1542980
1841174
2091332
2322207
2515415
2670788
2794107
2877113
2917772
2916685
2873953
2789096
2664252
2507713
2313882
2082789
1832742
1535483
1179125
930357.6
614163.2
336906.9
332576
617869.7
954721.3
1234540
1640424
1974309
2273331
2560714
2816280
3028086
3195294
3322706
3407701
3449464
3448249
3404135
3316986
3187757
3019127
2806496
2550642
2263356
1964796
1631974
1227671
948552.6
614005
330502
307138.4
593095.6
936621.5
1235060
1673926
2048720
2404713
2731211
3035038
3303308
3529581
3713271
3851237
3941955
3986225
3984859
3937946
3844847
3704888
3519648
3292363
3023576
2719692
2393629
2038519
1664771
1227775
930530.4
589243.6
305179.5
473324.1
870973.6
1186148
1641282
2049255
2448139
2826336
3174141
3491174
3776336
4019831
4217393
4364907
4461419
4508318
4506812
4456991
4357850
4208216
4009040
3764432
3478591
3161344
2813869
2436467
2038611
1631879
1178729
865243
470307.4
370204
758039.6
1095248
1544390
1975591
2405856
2827110
3223143
3587812
3924803
4227093
4484798
4693179
4849254
4951575
5001103
4999483
4946828
4841743
4683488
4473461
4214569
3911464
3574053
3209463
2814081
2393854
1964829
1535113
1087914
753050.4
368156.6
278797
577910.2
948939.1
1395618
1843029
2275568
2733318
3175873
3588806
3974784
4329577
4645246
4914478
5132424
5296789
5406041
5459942
5458314
5401281
5289296
5122786
4903194
4632721
4316119
3960703
3574491
3161850
2720164
2263738
1832702
1387025
942698.4
574214.7
277236.9
378881.5
752303.7
1106334
1631204
2094270
2564096
3038381
3494120
3926885
4330563
4698320
5024309
5303489
5531414
5705559
5822938
5881559
5880083
5818598
5698723
5522615
5293116
5012663
4685622
4317015
3912725
3479821
3024572
2551335
2082893
1621776
1099180
746937.1
376450.3
448549.6
854162.8
1342426
1833754
2326397
2820928
3308015
3780561
4230168
4646992
5025029
5360552
5650346
5888824
6071701
6195250
6257088
6255853
6191601
6066021
5881450
5641546
5350523
5013910
4634871
4217110
3766832
3294286
2807824
2314340
1823472
1334211
848410.8
445958.4
274168.8
570279.8
953571.8
1499688
2005429
2521033
3034170
3535779
4025412
4488871
4917021
5304956
5651071
5951165
6198076
6386725
6513804
6577406
6576528
6511170
6382449
6192344
5944197
5642993
5295855
4906848
4477425
4012680
3522511
3021043
2508468
1994172
1490457
947264.4
566629.5
273626.2
333155.8
648640.6
1053156
1632567
2146912
2678057
3203085
3721156
4224567
4698633
5136091
5533892
5890451
6198899
6451433
6643300
6771981
6836292
6835679
6770108
6640142
6447037
6193257
5883608
5525894
5126872
4687854
4212229
3708004
3189738
2664891
2134576
1621899
1045914
644598.4
332413.7
376176.5
764563.6
1140019
1730429
2267553
2802921
3332184
3860876
4373891
4856509
5302081
5709412
6074633
6388838
6644625
6838004
6967110
7031437
7030826
6965272
6834985
6640591
6383756
6068488
5702187
5293540
4846296
4362047
3848070
3318898
2789457
2254417
1718438
1130832
758789.6
375187
403771.3
805586.6
1288885
1810577
2350742
2887273
3418749
3953357
4472374
4960999
5413451
5828676
6199856
6517688
6775430
6969339
7098330
7162289
7161372
7095736
6965482
6770839
6512811
6194499
5822419
5405828
4951653
4461433
3941398
3406135
2874246
2337738
1798395
1278744
799079.2
402095
413605.3
821265.3
1334859
1849895
2391489
2929172
3461958
3999311
4521254
5012864
5469834
5889644
6263760
6583090
6841462
7035746
7164836
7228658
7227473
7161590
7031213
6836512
6578197
6258772
5884019
5462973
5004410
4511357
3988445
3450405
2917138
2379404
1838551
1325291
814988.5
411362.7
413508
821247.7
1334829
1850012
2391654
2929358
3462146
3999544
4521654
5013565
5470809
5890766
6264925
6584216
6842513
7036780
7165920
7229823
7228687
7162791
7032368
6837659
6579419
6260142
5885541
5464578
5005989
4512839
3989827
3451756
2918515
2380766
1839808
1326309
815571
411150.1
403880.2
805575.2
1288846
1810753
2351121
2887783
3419305
3954053
4473545
4963017
5416228
5831855
6203183
6520992
6778577
6972560
7101718
7165820
7164934
7099246
6968989
6774528
6516880
6199023
5827293
5410806
4956455
4465882
3945483
3410031
2878114
2341480
1801801
1281458
800408.7
401400.3
376345.1
764435.1
1140171
1730659
2268075
2803693
3333114
3862042
4375756
4859607
5306254
5714162
6079694
6394142
6650041
6843408
6972596
7037048
7036589
6971286
6841444
6647702
6391590
6076896
5710845
5302066
4854326
4369366
3854648
3324924
2795158
2259641
1722943
1134161
759728.3
373929.7
333347.3
649147.3
1054072
1633086
2147639
2679056
3204395
3722799
4227035
4702497
5141160
5539647
5896693
6205469
6458259
6650365
6779392
6844193
6844226
6779470
6650432
6458247
6205199
5895897
5538088
5138582
4698724
4222017
3716648
3197342
2671678
2140293
1626244
1048458
645452.6
331258
274667.9
570448.7
954158.1
1500519
2006418
2522212
3035778
3537828
4028337
4493165
4922498
5311277
5658042
5958742
6206317
6395734
6523719
6588382
6588745
6524751
6397286
6208160
5960499
5659238
5311526
4921543
4490856
4024646
3532938
3029917
2515989
2000026
1494460
949337.3
567362
272797.2
448950.6
854442.8
1343263
1835073
2327777
2822721
3310422
3783889
4234760
4652893
5032132
5368776
5659685
5899352
6083529
6208508
6271895
6272314
6209715
6085392
5901664
5662077
5370765
5033304
4652927
4233456
3781223
3306638
2818041
2322640
1829557
1338355
850958.2
446609.8
379103.3
752605.5
1106875
1632598
2095819
2565992
3041060
3497827
3931903
4337080
4706441
5034011
5314768
5544328
5720176
5839367
5899831
5900153
5840302
5721647
5546218
5316807
5035793
4707601
4337303
3931011
3495806
3038147
2562329
2091631
1627998
1103338
749825.8
377408
279299.9
578598.7
950080.1
1396818
1844829
2277633
2736285
3179906
3594221
3981886
4338576
4656169
4927339
5147276
5313659
5424924
5480769
5480964
5425497
5314593
5148549
4928783
4657463
4339410
3981984
3593455
3178255
2733915
2274680
1841298
1393357
946871.9
575998.2
277821.4
371241.8
759076.5
1096070
1545799
1978036
2409110
2831385
3228913
3595378
3934408
4238866
4498750
4709323
4867555
4971936
5023352
5023440
4972207
4868025
4710024
4499580
4239582
3934745
3595139
3228027
2829799
2406939
1975395
1543175
1093748
755856.8
369299.3
473974
872195.6
1187358
1643306
2052261
2452400
2832243
3181841
3500938
3788279
4034029
4233843
4383492
4481958
4530575
4530610
4482076
4383699
4234175
4034424
3788556
3500847
3181286
2831268
2450988
2050527
1641283
1185563
869678.2
472355.9
307243.8
593332.6
938079.1
1236354
1676768
2052742
2410346
2738571
3044335
3314645
3543076
3728933
3868919
3961447
4007283
4007312
3961568
3869118
3729216
3543350
3314751
3044056
2737917
2409485
2051605
1675416
1235083
936339.4
592394.9
306529
332653.8
618238.3
956621.5
1236897
1644037
1979355
2279964
2569081
2826476
3040216
3209461
3338775
3425446
3468646
3468690
3425656
3339111
3209890
3040646
2826723
2568978
2279524
1978872
1643285
1235985
955460.6
617515.2
332150.1
339136.6
618478.9
938487.4
1187747
1546894
1846580
2098201
2330766
2525749
2683057
2808155
2892645
2934517
2934589
2892947
2808658
2683732
2526526
2331473
2098723
1846829
1546947
1187481
937691.5
617832.3
338746.9
332795.4
593698.2
872725.8
1096576
1397962
1634280
1837171
2008937
2150592
2271452
2354799
2395570
2395694
2355272
2272263
2151693
2010214
1838263
1634994
1398677
1097334
872682
593290.3
332473
307311.7
473958.5
759521
950480.2
1108072
1344709
1502093
1635073
1733150
1813475
1852963
1853081
1814031
1734156
1636536
1503466
1345612
1108493
951619
760001.3
474254.4
307194.2
370947.5
578852.5
752788.8
855375.9
954822.8
1054879
1141752
1290786
1336973
1337086
1291262
1142443
1055784
955744.5
856207.9
754371.6
579389.1
371614
279196.6
379298.4
449098.3
570873.6
649799.6
765388.1
806697.5
822485.3
822474.3
807037.5
766181.2
650320.7
571498.5
449443.7
379745.1
279666
274560.4
333473.8
376528
404195.1
414031.1
413946
404350.9
376820.3
333778.4
274653.5
237368.2
289459.6
320035.7
351695.3
373779.2
376579.6
367804.2
337786.8
291569.4
240202.9
247621.2
348373.9
436239.7
610681.7
692508.6
745110.6
776194.4
789814.8
789764.6
776233.9
748016
695306.5
612589.4
436348.2
348051.8
247139.9
249328.4
388250.8
628526.7
767720.9
892266.5
1015931
1205072
1315114
1371035
1396531
1395631
1368553
1312153
1202179
1013298
889944.9
765165.3
627327.2
387068.9
248719.3
316504.1
550532.5
812605.9
1012929
1281783
1466697
1622977
1767236
1878398
1963648
2005032
2003904
1960445
1873693
1761601
1617392
1461703
1276656
1008473
809582.9
547894.3
315342
367701.9
704624.1
954838
1191523
1540069
1803863
2033164
2222180
2378371
2498608
2586344
2630775
2629549
2582819
2493177
2371481
2214536
2025473
1796277
1532463
1184913
949977.2
700300.1
365878.9
391754.5
778171
1066989
1444372
1756812
2078554
2365059
2614724
2824577
2995390
3129435
3222810
3269792
3268496
3219033
3123398
2987349
2815009
2604461
2354655
2068369
1747395
1436389
1061214
772744.9
389641.2
391746.2
796106.1
1114362
1536405
1909960
2274506
2618227
2925652
3197796
3427959
3614414
3758286
3856387
3905404
3903975
3852189
3751478
3605177
3416786
3185546
2913051
2605862
2263034
1899787
1527742
1107877
790238.3
388990.7
367558.1
778078.8
1115094
1564773
1976105
2391136
2785595
3149366
3481896
3776305
4025018
4225446
4377787
4480290
4531195
4529580
4475540
4370065
4215072
4012537
3762568
3467713
3135423
2772451