/*--------------------------------*- C++ -*----------------------------------*\
  =========                 |
  \\      /  F ield         | OpenFOAM: The Open Source CFD Toolbox
   \\    /   O peration     | Website:  https://openfoam.org
    \\  /    A nd           | Version:  6
     \\/     M anipulation  |
\*---------------------------------------------------------------------------*/
FoamFile
{
    version     2.0;
    format      ascii;
    class       volScalarField;
    location    "50";
    object      alphat;
}
// * * * * * * * * * * * * * * * * * * * * * * * * * * * * * * * * * * * * * //

dimensions      [1 -1 -1 0 0 0 0];

internalField   nonuniform List<scalar> 
203709
(
0.7968239
1.318725
1.342435
0.847643
0.8262957
1.379314
1.894571
2.40999
2.441725
1.974283
1.448104
0.8859675
0.7817541
1.320099
1.868071
2.428897
2.636234
2.754447
2.751378
2.633156
2.435971
1.896696
1.306743
0.796234
0.7655444
1.678056
2.306875
2.557879
2.711723
2.771561
2.763603
2.692012
2.592889
2.480162
2.323442
2.113127
1.57986
0.7073387
1.260499
2.233637
2.54038
2.655521
2.668009
2.617904
2.567169
2.549154
2.537017
2.519803
2.471618
2.348031
2.054069
1.158088
0.7181915
1.670107
2.302128
2.460733
2.465603
2.41778
2.418101
2.459484
2.511265
2.565318
2.616615
2.646101
2.605702
2.398709
1.685414
0.7122561
1.123263
1.990788
2.215567
2.236602
2.196889
2.21678
2.293417
2.386804
2.481328
2.572455
2.669876
2.75925
2.789056
2.684128
2.33109
1.263684
0.7402033
1.679541
2.101783
2.107817
1.99936
1.986658
2.094175
2.189866
2.302653
2.422512
2.53754
2.666578
2.80943
2.901908
2.868373
2.6216
1.815498
0.7285986
1.162092
2.117088
2.304258
2.267952
2.153885
2.107198
2.135046
2.164296
2.229428
2.344675
2.475884
2.625632
2.815912
2.969575
2.98641
2.81616
2.378461
1.230759
1.136438
2.108497
2.394281
2.446202
2.420974
2.385625
2.338404
2.267802
2.217819
2.276594
2.400841
2.557352
2.789919
2.99925
3.04581
2.881778
2.444767
1.285239
0.7015963
1.678862
2.345297
2.519904
2.560089
2.540182
2.473685
2.368238
2.267171
2.25048
2.328924
2.476735
2.740455
2.997476
3.050423
2.818445
2.00142
0.8286403
1.235509
2.186283
2.484153
2.585982
2.587197
2.52148
2.406155
2.28987
2.242993
2.287828
2.407535
2.674856
2.968475
2.99965
2.658107
1.502099
0.7458606
1.686678
2.336857
2.521318
2.554668
2.502258
2.393534
2.281921
2.228976
2.255698
2.35694
2.609451
2.896262
2.863602
2.093023
0.9272641
1.193771
2.092821
2.355201
2.436089
2.413978
2.333007
2.243825
2.196116
2.210532
2.291805
2.532974
2.755228
2.634105
1.521839
0.7029332
1.503828
2.021135
2.180432
2.238104
2.217035
2.166691
2.125688
2.122371
2.170199
2.36211
2.452648
1.964356
0.9221515
0.678247
1.11595
1.523194
1.904545
1.986774
2.003232
1.970825
1.929264
1.9062
1.746398
1.415514
0.9205982
0.6486162
1.042348
1.389095
1.678928
1.659883
1.365238
1.088967
0.785983
0.5507792
0.8790714
0.88534
0.5675054
0.621433
0.9851181
1.183698
1.553084
1.61537
1.653758
1.677408
1.655931
1.55062
0.9530198
0.5838148
0.965549
1.372123
1.727046
2.417361
2.944121
3.136842
3.231007
3.244051
3.168826
2.997334
2.371566
1.691754
0.9960637
0.6425763
1.389838
1.833936
2.015964
2.626157
3.275963
3.851318
4.219844
4.340007
4.24273
4.038273
3.818882
3.498108
3.106535
2.294931
1.051678
0.6543803
1.505357
2.104561
2.448043
2.918814
3.525167
4.357873
3.801058
4.520278
4.67773
4.813614
5.141007
4.606093
4.180435
3.812239
3.32329
2.384604
1.067447
0.6092504
1.520877
2.286469
2.770083
3.332071
4.025615
2.986226
4.200081
4.1622
4.926743
5.043416
5.074067
5.078427
4.985716
5.118578
4.460119
3.89638
3.342372
2.348414
1.026877
0.5504899
1.405654
2.306919
2.876895
3.608449
2.204523
3.457554
3.47881
4.582823
4.883863
5.268516
5.405364
5.463595
5.37766
5.212492
5.046054
4.765927
4.445437
3.67028
3.102956
2.164826
0.9351888
1.08717
2.116146
2.855134
3.479908
1.996264
2.981426
4.282005
4.828123
5.543351
6.002326
6.397502
6.648259
6.75821
6.757689
6.661105
6.434591
5.997644
5.073337
3.711588
3.100024
2.563964
1.483809
0.6207306
1.553062
2.68461
3.404768
4.32671
2.784722
4.586804
5.4834
6.032666
6.467162
6.618212
6.494415
6.298918
6.145203
6.055892
6.005778
5.921945
5.659006
5.072712
4.269508
3.233228
2.582418
1.669439
0.5650356
1.04908
1.938942
2.907906
3.983286
3.519184
3.727571
5.083876
5.40446
5.441059
5.259913
4.996389
4.865914
4.830719
4.873507
4.973639
5.104508
5.186537
4.968085
4.039345
3.125023
3.740145
3.005352
2.221484
1.016181
1.17388
2.147053
2.893997
4.443552
3.96609
4.6278
5.073054
4.844559
4.571187
4.347977
4.212889
4.162516
4.191814
4.282299
4.456859
4.702745
4.980583
5.077227
4.790675
3.891506
4.366151
3.39459
2.528945
1.175785
1.250462
2.332519
3.059877
4.20385
4.597562
5.15396
5.436522
4.896524
4.551637
4.36697
4.165983
4.025905
3.983881
4.005712
4.16346
4.446893
4.838342
5.071934
4.989248
3.919471
3.060423
3.762152
2.762122
1.297764
1.302366
2.466095
3.266848
3.887796
4.467626
5.021331
5.274504
5.091732
4.816688
4.619147
4.420533
4.197396
4.058518
3.944624
4.01623
4.28538
4.765616
5.092071
5.283124
5.123821
4.527111
4.047057
2.913345
1.381181
1.33483
2.538321
3.349802
3.694733
4.133076
4.595469
4.810946
4.759371
4.615783
4.545075
4.51999
4.425913
4.283549
4.044404
3.983342
4.188904
4.743143
5.094297
5.35375
5.305221
4.887573
4.131795
2.983749
1.432944
1.34149
2.539862
3.274185
3.515132
3.784811
4.09983
4.29589
4.315303
4.288657
4.327637
4.409374
4.453787
4.422687
4.212976
4.040215
4.14496
4.768698
5.102355
5.335197
5.284662
4.934427
4.023865
2.977416
1.455426
1.304509
2.456566
3.103456
3.975907
3.986321
4.095415
4.165547
4.170432
4.168132
4.215507
4.309231
4.406516
4.452018
4.300852
4.121148
4.137633
4.828562
5.104007
5.321904
5.253306
5.045606
3.825401
2.896882
1.441017
1.198513
2.281461
2.900057
3.539807
3.705498
3.836988
3.930068
3.966661
3.991805
4.063965
4.180428
4.316448
4.409275
4.294529
4.155547
4.156024
4.898284
5.122745
5.250491
5.233366
4.545973
3.625181
2.733022
1.358859
0.7385943
1.790838
2.628916
3.177183
3.974799
3.972929
4.01185
4.044302
4.033863
4.044788
4.107923
4.222765
4.310121
4.192896
4.125556
4.17625
4.955529
5.090458
5.150707
5.297328
4.152899
3.33707
2.163261
0.8432795
1.303163
2.346812
2.883429
3.438496
3.504625
3.562075
3.617097
3.708412
3.790498
3.912704
4.060472
4.137442
3.989502
4.030089
4.163355
5.021943
4.990175
5.023272
4.653821
3.814981
2.990107
1.564647
0.8024781
1.77295
2.521487
2.963354
3.540024
3.454388
3.465533
3.505938
3.628451
3.785416
3.884842
3.879126
3.664661
3.854877
4.158909
5.036985
4.852634
4.962811
4.089021
3.349957
2.231789
0.9338755
0.8654106
1.887644
2.60584
2.954386
3.292591
3.675615
3.498499
3.493688
3.523412
3.507468
3.429193
3.242915
3.732954
4.167105
5.119751
4.674108
4.120656
3.519871
2.424522
1.038329
0.8749375
1.869314
2.496691
2.743678
2.883524
3.05858
3.292167
3.080648
2.990268
2.956453
2.96056
3.735302
4.088367
4.155906
3.945469
3.466758
2.490066
1.100075
0.829255
1.711706
2.194941
2.342036
2.434382
2.466577
2.52302
2.576318
2.627094
2.720605
3.039589
3.529572
3.513208
3.228793
2.401955
1.110403
0.7313641
1.175844
1.551789
1.854654
1.878041
1.886601
1.91454
1.993462
2.189446
2.616949
2.886025
2.430611
1.795426
1.062049
0.5978624
0.930241
0.9630067
0.9723675
0.9962856
1.062581
1.239339
1.495609
1.570551
1.012782
0.6342037
0.9817809
0.9698506
1.243209
1.468944
1.532612
1.473095
0.9099661
0.7062463
1.247309
1.45921
1.890887
2.253891
2.192968
2.709171
3.105289
3.256786
3.238941
2.680286
2.045378
1.741634
0.9907285
0.8302715
1.851066
2.600118
3.011884
3.34573
3.416993
3.380868
4.033758
4.489891
4.686093
4.70807
4.53977
4.12608
3.615871
2.659777
1.221097
0.6331948
1.198948
2.056609
3.114624
3.889547
4.350319
4.857544
5.798769
6.267663
5.308933
5.189821
5.270967
5.298083
5.25893
5.1775
5.280451
4.342893
3.05629
1.926074
1.044018
0.6604539
1.543415
2.459721
3.503395
4.092257
4.161466
4.6938
5.598475
7.614882
7.2391
6.073847
5.879028
5.940934
6.014332
6.013145
5.865616
5.60101
5.100168
4.860977
3.763815
2.549172
1.090478
0.6758463
1.557614
2.422389
3.571504
4.147764
4.664283
5.451355
6.550495
8.219058
7.96144
7.243365
6.553688
6.42976
6.453116
6.500077
6.505859
6.401649
6.159591
5.774253
5.427
5.074735
3.908949
2.556428
1.05239
1.242924
2.329096
3.357326
3.94782
4.816976
5.897665
7.317085
8.253612
7.501738
7.363569
7.054055
6.924328
6.890024
6.876185
6.84419
6.77599
6.687512
6.535818
6.29399
5.931346
5.510212
5.066623
3.76033
1.940332
0.8362321
1.968979
3.064076
3.653642
4.793088
6.361968
7.140763
6.919133
6.630474
6.594677
6.959624
7.035995
7.212321
7.299454
7.318273
7.242991
7.12659
6.97285
6.781424
6.570066
6.316191
5.911059
5.414819
4.826518
3.048846
1.220985
0.7194268
1.790192
2.779255
3.677052
4.545112
6.724149
7.056723
5.622343
5.272885
5.980638
6.375465
6.960486
7.287586
7.560516
7.722932
7.828749
7.862446
7.819689
7.658373
7.42297
7.100732
6.694687
6.198972
5.695502
5.02774
4.226027
2.623558
0.9719324
1.254153
2.432566
3.400257
4.280897
5.897748
7.994808
5.94366
4.935104
5.619253
6.435174
7.043681
7.703224
8.255781
8.732551
9.080511
9.280182
9.391554
9.437252
9.361207
9.091818
8.562323
7.878841
7.179816
6.508628
5.670272
4.886486
3.366044
1.625319
1.479579
2.816325
3.222106
4.322087
6.884749
8.507229
6.576946
5.931817
6.787924
7.431642
8.034179
8.578852
8.854817
8.727179
8.507635
8.39504
8.437542
8.604311
8.803585
8.868464
8.6618
8.384396
8.231815
7.646821
6.720563
5.381641
3.572442
1.703273
0.7197119
1.969754
3.175699
3.394992
4.07057
5.967826
8.993366
7.540726
6.844182
7.150632
7.229808
7.234273
7.035952
6.654028
6.460642
6.439296
6.591869
6.888379
7.308552
7.775699
8.001664
7.705907
7.259855
7.786734
7.721283
6.596784
4.690288
3.916004
2.142658
0.7153791
1.19692
2.466519
3.408004
3.574004
4.019281
5.173877
8.044929
8.593945
7.911403
7.317822
6.642426
6.172151
5.815311
5.559595
5.437938
5.486794
5.69252
6.061713
6.614408
7.35781
7.954351
8.062447
7.557409
7.403614
7.129376
5.916975
3.574586
3.806894
2.550171
1.14165
1.305481
2.612191
3.557573
3.740717
4.069024
4.758057
6.678696
8.2246
8.580818
8.190191
7.136754
6.433153
6.017937
5.602893
5.286059
5.190478
5.283543
5.585429
6.129697
7.035371
7.881944
8.234666
7.791549
7.119898
6.90935
5.596617
3.382704
3.794792
2.595851
1.183293
1.344109
2.678646
3.653757
3.895124
4.193359
4.600132
5.618951
7.020058
7.878658
8.053768
7.644555
7.207192
6.649981
6.130892
5.623669
5.328518
5.227394
5.376282
5.812777
6.81297
7.856018
8.428749
8.340782
7.673712
6.803643
5.46731
3.53574
3.851974
2.619831
1.173979
1.348197
2.699117
3.704874
4.017143
4.346518
4.651219
5.117843
5.969069
6.747236
7.130184
7.060715
6.79135
6.533914
6.305842
6.001669
5.678669
5.419313
5.377534
5.634163
6.673694
7.855496
8.498957
8.441859
7.737774
6.689002
5.392623
3.811826
3.882207
2.617614
1.163881
1.316024
2.665356
3.695305
4.063516
4.449616
4.750072
5.03644
5.426524
5.915143
6.222845
6.26444
6.144835
6.065433
6.035281
5.96727
5.840811
5.658461
5.51882
5.575036
6.60931
7.890429
8.510582
8.384978
7.650607
6.580533
5.365207
4.123915
3.870041
2.579246
1.138963
1.216914
2.536117
3.589714
3.960469
4.380925
4.712771
4.998895
5.254504
5.510706
5.709011
5.761508
5.733048
5.724447
5.751899
5.787407
5.811773
5.764657
5.661052
5.603253
6.5934
7.938779
8.453808
8.302071
7.525102
6.448857
5.338382
4.360498
3.791082
2.471174
1.069534
0.766474
2.084834
3.412168
3.702116
4.084015
4.422121
4.731627
5.004367
5.204457
5.371183
5.43197
5.421914
5.418926
5.457353
5.548696
5.678979
5.748595
5.721215
5.657697
6.602523
7.965487
8.452875
8.251076
7.45664
6.396256
5.281758
4.381471
3.608547
2.002729
0.675275
1.681628
3.211619
3.527716
3.760842
4.04565
4.31243
4.568961
4.776289
4.942595
5.042694
5.081946
5.109686
5.171255
5.307318
5.504466
5.646168
5.685764
5.661169
6.63734
8.010483
8.327018
8.083964
7.319587
6.302724
5.198538
4.409329
3.302021
1.543418
1.531859
2.974011
4.137888
4.143079
4.232152
4.326151
4.437908
4.545701
4.653925
4.738856
4.773746
4.80001
4.883785
5.064632
5.301559
5.475053
5.555679
5.595662
6.6711
7.947665
8.077297
7.794391
7.074517
6.087642
4.99165
4.55285
2.940172
1.332778
0.920077
2.311177
3.611329
3.805378
3.88094
3.957431
3.992271
4.016455
4.075631
4.17047
4.282053
4.404478
4.58225
4.820249
5.063216
5.233097
5.325391
5.459677
6.727474
7.733999
7.681997
7.39685
6.710515
5.754061
4.731126
3.81017
2.206635
0.7682875
1.14558
2.746273
4.203147
4.301629
4.313275
4.282952
4.183967
4.090182
4.063305
4.102889
4.194515
4.359867
4.566908
4.756552
4.90211
4.995859
5.383899
6.659526
7.395125
7.16085
6.88002
6.200714
5.363568
4.572068
2.74475
1.033084
1.830333
3.403718
4.405558
4.401835
4.346069
4.214614
4.031347
3.907298
3.859644
3.897435
4.024636
4.187764
4.339941
4.50094
4.72192
5.408662
6.441427
6.993647
6.56525
6.265756
5.711296
5.059666
3.627788
1.772315
1.006295
2.349639
3.434078
4.288039
4.186516
4.051363
3.860533
3.678804
3.574198
3.555914
3.626507
3.747353
3.899765
4.154853
4.595257
5.415857
6.131858
6.565096
5.899136
5.732148
5.316094
3.969774
2.523746
0.9908301
1.000617
2.267773
3.171667
3.885388
3.681421
3.588935
3.421135
3.293703
3.244724
3.268253
3.357056
3.540987
3.939754
4.614605
5.309633
5.676956
6.077769
5.313816
5.242659
4.0338
2.677798
1.102565
0.9079892
1.596788
2.399951
3.197941
3.633158
3.224442
3.001644
2.900846
2.894494
2.982528
3.255415
3.888399
4.594597
5.053665
5.194001
5.684807
4.725132
3.381912
2.143815
1.132825
0.9221224
1.906463
2.400151
2.54365
2.610192
2.587125
2.577731
2.680129
3.113382
3.913222
4.560384
4.772478
4.533886
4.022955
2.975821
1.388657
0.6624393
1.102383
1.218332
1.507115
1.780379
1.859598
2.042462
2.49592
3.057758
3.382488
2.948925
2.354694
2.033813
1.162767
0.5029214
0.8344921
0.9416095
1.106305
1.368326
1.61477
1.679901
1.082623
0.6136336
1.145112
1.249629
1.412471
1.417521
0.8900846
0.5440913
1.017385
1.277877
1.518482
2.059044
3.063871
3.33853
3.531501
3.619094
3.105777
2.422568
2.097137
1.736443
0.9722997
0.5212794
1.01158
1.680346
2.487154
3.005685
2.930576
2.719137
3.800767
5.234556
4.489449
4.4509
4.328543
4.218014
4.789536
4.136417
3.040859
1.938449
0.99275
0.6734491
1.512953
2.379039
3.192961
2.693237
2.631758
3.057767
3.66417
4.926465
6.648581
5.943525
5.806047
5.9834
5.981331
5.878684
5.24185
4.545443
4.285294
2.78425
1.169621
0.8413203
1.803525
2.784306
3.437822
3.860627
4.145587
4.440357
4.86635
5.515666
7.083701
8.161015
7.492243
7.335794
7.629559
7.741649
7.515005
6.913068
6.146775
5.517781
4.913582
3.120426
1.318558
0.9655658
2.116276
2.413128
2.939599
3.606449
4.334897
4.914986
5.42727
6.00161
7.049291
9.093632
9.669404
8.904638
8.788095
9.024224
9.142715
8.893507
8.299732
7.470391
6.444491
5.410248
4.170355
3.384767
1.372213
1.008085
2.305785
2.478288
2.976867
3.869077
4.737965
5.414769
5.946371
6.48983
7.168373
8.858385
10.81304
10.41389
9.95038
9.944134
10.0289
10.07246
9.816884
9.249522
8.467839
7.531021
6.487525
5.312775
4.345705
3.409049
1.337997
0.9461397
2.289218
2.50008
2.804823
3.5356
4.568447
5.448024
6.280606
7.161847
8.226165
10.03683
10.98422
11.02812
10.57617
10.58045
10.68502
10.67131
10.52462
10.28284
9.823743
9.177053
8.381091
7.474965
6.46402
5.341237
4.221714
3.179537
1.204901
0.8221274
2.153112
3.508512
3.321534
3.651387
4.52254
5.287658
6.341786
7.622554
9.083333
11.13972
10.87475
10.50584
10.55086
10.613
10.87806
10.99645
10.94405
10.77579
10.4834
10.11594
9.689734
9.109213
8.390694
7.554001
6.597683
5.54873
4.979657
2.85685
1.032155
1.548022
3.216
3.52456
3.683648
4.168788
4.858553
5.89983
7.790542
9.412055
10.44327
9.589644
9.504153
9.817846
10.20552
10.57141
10.83201
10.87262
10.7938
10.68079
10.52882
10.32855
10.03576
9.630747
9.170929
8.520722
7.673816
6.58414
5.607897
4.324939
1.969511
0.790404
2.341621
3.034373
3.48446
3.832339
4.363694
5.172967
7.287902
9.756561
9.070401
8.184658
8.432064
8.91157
9.530962
10.06928
10.4358
10.57991
10.58972
10.56705
10.53688
10.47318
10.36968
10.22158
10.01269
9.697112
9.130057
8.495807
7.541019
6.30261
4.710887
3.031268
0.9964788
1.384167
3.14404
3.48461
3.833965
4.098259
4.647835
6.03884
9.747988
9.502909
7.943703
7.995007
8.486495
9.11653
9.82325
10.44293
10.89812
11.16551
11.28798
11.39669
11.49727
11.50688
11.33797
10.99143
10.55959
10.10898
9.614699
9.002126
8.045361
6.868507
5.279952
4.006963
1.675133
1.671988
3.657109
3.980272
4.266284
4.450272
4.9009
6.818112
11.23996
9.603146
8.539684
8.663025
9.089938
9.691123
10.29247
10.64634
10.51151
10.27557
10.22825
10.42094
10.80202
11.23192
11.47506
11.40994
11.2152
10.91358
10.14798
9.208878
8.253599
7.160996
5.544058
4.502878
1.900172
1.955927
3.015099
3.825801
4.370823
4.636964
5.016061
6.406841
10.90099
10.78535
9.349984
8.887997
8.728824
8.701088
8.534851
8.106905
7.895114
7.924332
8.225732
8.773948
9.551916
10.45336
11.07016
11.09806
10.83749
11.0132
10.61843
9.408472
7.758193
7.118375
5.642471
4.760136
2.17856
0.7813582
2.562805
3.328801
4.122647
4.620394
4.874364
5.147704
5.945801
9.095884
11.37498
10.61054
9.288082
8.194775
7.540417
7.096608
6.777917
6.626508
6.723755
7.082903
7.717839
8.687618
10.02116
11.16007
11.56271
11.2457
10.83453
10.31068
9.072629
7.024599
6.999818
5.738633
4.151743
2.918671
0.9092831
1.284168
3.089903
3.781323
4.528872
5.005561
5.244571
5.403912
5.821047
7.472535
9.970195
10.95473
10.47428
9.10619
8.079412
7.461331
6.891855
6.437568
6.3034
6.496699
7.022487
7.96909
9.576093
11.12742
11.81408
11.583
10.85518
10.02037
8.572957
6.573861
7.142309
6.164001
4.039554
3.62313
1.481094
1.368103
3.183917
3.966834
4.799875
5.365927
5.672526
5.808079
6.010993
6.626575
8.249024
9.645882
10.08897
9.68187
9.223488
8.462345
7.670871
6.920928
6.456929
6.372572
6.679553
7.458318
9.228362
11.12056
12.00982
11.91216
11.0863
9.870044
8.308833
6.513743
6.428102
5.289347
3.415311
3.506736
1.489204
1.367434
3.169283
3.972298
4.888155
5.590516
6.039021
6.250912
6.364716
6.560318
7.221845
8.175468
8.790422
8.835097
8.569207
8.227693
7.86812
7.391333
6.888964
6.579259
6.635272
7.163727
9.009094
11.18198
12.15888
12.06872
11.17044
9.794121
8.171931
6.53061
5.769493
4.337992
2.673592
2.993133
1.312273
1.288283
3.049851
3.819605
4.762279
5.579257
6.1949
6.560141
6.744782
6.866925
7.060823
7.426752
7.767143
7.855192
7.721916
7.576189
7.464768
7.287083
7.030369
6.811991
6.779693
7.074528
8.919365
11.32451
12.30314
12.17595
11.23987
9.789168
8.120376
6.494463
5.282588
3.954686
2.697477
2.585405
1.052541
0.8204119
2.578615
3.279232
4.190234
5.076821
5.848117
6.412821
6.776695
7.01383
7.214633
7.371312
7.462913
7.448655
7.341811
7.230853
7.13576
7.031504
6.925747
6.863878
6.910773
7.168878
8.92803
11.5097
12.41041
12.21501
11.27094
9.811527
8.115553
6.440761
5.019054
3.789351
2.901372
2.188703
0.5300353
2.11525
2.96671
3.585321
4.373733
5.108861
5.736908
6.22975
6.624567
6.974618
7.244531
7.344092
7.302776
7.160807
6.984943
6.824196
6.715297
6.693721
6.768559
6.941807
7.282042
9.103676
11.66305
12.43485
12.21647
11.24953
9.803383
8.111221
6.387489
4.890683
3.695152
2.867631
1.785352
1.94554
4.173358
4.555517
5.02248
5.398388
5.710901
5.990426
6.285471
6.600819
6.886144
7.015909
6.963171
6.798109
6.592484
6.41591
6.334751
6.391643
6.58301
6.879658
7.363965
9.378086
11.74269
12.48619
12.25804
11.29958
9.851565
8.14946
6.400775
4.879038
3.67517
3.403572
1.549663
1.713898
3.809229
4.274903
4.856975
5.286974
5.541683
5.658914
5.732979
5.882087
6.067773
6.178921
6.17812
6.091166
5.964539
5.871442
5.884636
6.042011
6.34657
6.74806
7.429136
9.673936
11.81173
12.40329
12.1469
11.20195
9.75379
8.058444
6.317541
4.819591
3.469256
2.957049
1.288388
1.008353
2.945379
3.833382
4.596375
5.336086
5.767034
5.905339
5.838446
5.698245
5.615513
5.530733
5.432508
5.340743
5.280381
5.294893
5.42106
5.680138
6.092711
6.568022
7.514184
9.911312
11.72961
12.13956
11.84393
10.89302
9.422564
7.753249
6.022751
4.665008
3.23314
2.185865
0.7155287
2.010828
4.253848
5.027877
5.673738
6.251954
6.488478
6.445511
6.18958
5.854845
5.550943
5.265258
5.037004
4.902472
4.896106
5.038175
5.351985
5.850487
6.366446
7.65382
10.12875
11.48706
11.70044
11.34306
10.34337
8.797447
7.162504
5.432858
4.445292
3.294656
1.424499
1.051837
2.84684
4.874674
5.408389
6.017115
6.375863
6.460931
6.28733
5.884263
5.457835
5.056174
4.729161
4.534259
4.510346
4.676549
5.067334
5.631515
6.198803
7.869229
10.21363
11.10862
11.10299
10.66321
9.586807
7.919347
6.328658
4.724457
4.233769
2.211299
0.7389697
1.23361
3.180999
3.991567
4.796245
5.512927
5.8957
5.954087
5.700643
5.250581
4.830116
4.464368
4.23859
4.20792
4.408954
4.869094
5.427925
6.142833
8.074316
10.06336
10.57356
10.33098
9.812392
8.68836
6.853465
5.351706
3.937384
2.805017
0.9645189
1.345119
3.357833
4.082404
4.705133
5.22347
5.450744
5.362407
5.004381
4.611783
4.266899
4.03862
4.006882
4.231759
4.701379
5.214234
6.207698
8.152828
9.686691
9.812266
9.324643
8.762021
7.663889
5.634979
4.481074
3.374256
1.228926
1.327152
3.204481
3.721238
4.300812
4.660886
4.797775
4.61356
4.278333
3.989958
3.779706
3.76516
4.01817
4.453866
5.011638
6.22825
7.852614
8.994624
8.765275
8.023773
7.45039
6.544191
4.555414
3.681527
1.411539
1.200452
2.756
4.096234
4.205412
4.215815
4.059843
3.800851
3.529033
3.353005
3.405565
3.711224
4.157581
4.865781
6.039438
7.061874
7.981209
7.457644
6.451034
6.291357
5.708513
3.624917
1.4926
0.9692929
2.213239
3.193244
3.090452
3.111024
3.129682
2.896648
2.79894
3.009971
3.407702
3.932522
4.759524
5.470628
5.796343
6.718533
6.023305
5.048956
5.154287
3.36597
1.423135
0.7300524
1.353915
2.000902
2.541611
2.78362
2.201019
2.263243
2.683396
3.155159
3.80946
4.461367
4.581466
4.500814
5.714527
4.979618
3.707882
2.441171
1.257644
0.5968497
1.015444
1.189604
1.370977
1.803076
2.393549
3.007937
3.697316
4.144
3.719807
2.992247
2.629278
2.209229
1.257034
0.561056
1.087064
1.423081
1.708441
1.811081
1.18419
0.431706
0.9230809
1.294449
1.558334
1.667079
1.817886
1.866666
1.760449
1.528482
0.8572747
0.4357911
0.7767543
1.050737
1.652319
2.453971
1.922516
2.646605
3.16637
3.283314
3.535591
3.745261
4.242198
3.301442
2.39874
1.843506
0.9478191
0.7124336
1.527735
1.838425
1.803485
1.878383
2.139064
2.857146
4.6568
5.236093
5.359568
5.868053
6.055467
5.993896
5.09021
4.272035
3.710826
3.276974
1.382292
0.7953036
1.374608
1.723418
2.202492
2.792542
3.27801
3.706315
3.942968
4.044815
5.311687
7.219854
7.630908
8.182065
8.668
8.617301
7.937883
7.072356
5.956825
4.907123
3.661292
2.233835
1.064198
0.9821644
2.195367
2.063308
2.489056
3.346844
4.255885
4.630277
4.71832
4.921499
5.227931
6.297469
8.648158
9.593278
10.43745
10.94127
11.04757
10.55815
9.717387
8.534657
7.072523
5.283364
3.802339
3.082785
1.166442
1.052997
2.560094
2.605499
2.765317
3.534659
4.73521
5.766376
6.343487
6.605509
6.883039
7.378643
8.56289
10.10394
11.40521
12.40091
12.79129
12.92765
12.49831
11.64918
10.46968
9.017162
7.319049
5.531982
4.224868
3.207583
1.176733
1.060396
2.722576
2.983616
3.101147
3.56081
4.664403
6.007235
6.995357
7.446996
7.684132
8.004057
8.780189
10.31535
11.68161
12.95455
13.95578
14.29297
14.155
13.6376
12.71821
11.55243
10.26931
8.909669
7.408831
5.724946
4.303548
3.223157
1.181434
0.9855872
2.701963
3.208258
3.465651
3.69519
4.375354
5.745955
7.070302
7.782849
8.134895
8.421132
8.858937
10.04543
12.03962
13.01338
14.01368
14.99488
15.23415
14.80549
14.13027
13.15558
12.01645
10.88313
9.829315
8.756822
7.43697
5.765936
4.288505
3.159724
1.122535
1.987402
3.011772
3.660964
3.984745
4.252639
5.175722
6.595874
7.56861
8.206981
8.826901
9.568697
10.81672
12.39495
13.36624
13.55965
14.63969
15.47701
15.56084
15.113
14.29411
13.3758
12.34856
11.34132
10.444
9.626685
8.709706
7.419993
5.632023
3.91814
2.320433
1.213318
2.939174
3.753455
4.337293
4.496982
4.81457
5.866682
7.047326
7.950982
9.066592
10.36715
12.2138
13.30574
12.9781
13.24999
13.82387
14.86886
15.41409
15.35734
14.99355
14.44068
13.72963
12.89992
12.06591
11.24892
10.49
9.734042
8.787628
7.352245
5.482563
3.996583
1.482588
0.8112342
2.754185
3.711338
4.620635
4.982171
5.003319
5.350643
6.367651
7.352783
8.983378
10.81538
12.75337
12.61094
12.02782
12.36706
13.05696
13.88567
14.59742
14.76967
14.62176
14.42462
14.22398
13.97939
13.63137
13.10323
12.43372
11.69707
10.90258
10.01355
8.832218
7.124629
5.054817
3.393515
1.003778
1.538972
2.899516
4.17593
5.201142
5.485395
5.444621
5.778535
6.677964
8.187589
11.11403
12.16218
11.13297
10.8226
11.25685
12.02665
12.8578
13.48948
13.7289
13.65171
13.53836
13.51075
13.56304
13.64086
13.70351
13.68737
13.49492
13.00876
12.25422
11.29994
10.10654
8.453335
6.143049
3.955659
1.819205
1.963264
3.213928
4.749499
5.68792
5.899975
5.822508
6.151126
7.154305
10.49389
12.49277
10.70327
10.1952
10.46709
11.1171
11.92211
12.63675
13.07334
13.19856
13.14713
13.19617
13.35153
13.50039
13.53523
13.48673
13.45382
13.4171
13.29343
12.91146
12.1877
11.06835
9.446668
7.139586
4.514953
2.230179
0.7476345
2.732493
3.87072
5.348663
6.170178
6.311576
6.191295
6.440242
7.70636
12.5937
12.2713
10.68135
10.33904
10.60159
11.1879
11.82016
12.20666
12.08311
11.81163
11.82562
12.16525
12.75297
13.38385
13.73418
13.68056
13.45138
13.15818
12.69788
12.25088
11.75484
10.95748
9.613855
7.710572
5.034221
3.012857
0.8714622
1.337125
3.58059
4.735146
6.048369
6.708867
6.775024
6.599796
6.704166
7.530221
11.84621
13.33037
11.38179
10.41011
10.05174
9.996923
9.873688
9.465299
9.229179
9.313096
9.76525
10.57413
11.71904
13.03572
13.95399
14.08617
13.7626
13.54132
12.78116
11.64677
10.58854
10.17999
8.958813
7.509996
4.810037
3.903991
1.499723
1.567771
3.152811
4.83609
6.402967
7.133115
7.240222
7.063777
7.053393
7.384944
9.965666
13.30218
12.76747
11.00962
9.600485
8.786523
8.282021
7.921051
7.749202
7.891457
8.40258
9.323358
10.74075
12.65603
14.25915
14.79826
14.45445
13.78298
13.00068
11.57628
9.719579
9.466685
8.348008
6.962121
4.906278
4.145227
1.768537
1.706335
3.120502
5.092122
6.683779
7.502132
7.712377
7.59112
7.491235
7.552393
8.565451
11.36568
12.78858
12.33878
10.82996
9.569182
8.772301
8.090024
7.523148
7.340417
7.622096
8.397826
9.806875
12.118
14.28521
15.11111
14.83579
13.93448
12.76763
11.30853
9.611467
9.638504
8.338057
6.54732
5.017614
3.373118
1.952182
1.766425
3.097733
5.070083
6.75251
7.747361
8.144908
8.156605
8.03568
8.015962
8.114704
9.55745
11.1628
11.76606
11.39059
10.88216
10.061
9.08818
8.148091
7.51491
7.414276
7.898667
9.114065
11.66995
14.32908
15.30392
15.02868
13.97649
12.5056
10.80276
9.205692
9.027012
8.064844
6.082394
4.96518
3.054181
1.992437
1.781335
3.023957
4.888614
6.607372
7.792942
8.439173
8.671508
8.65748
8.656717
8.50438
8.810314
9.680191
10.34073
10.42574
10.14437
9.733075
9.283693
8.684091
8.026555
7.634945
7.793307
8.724987
11.39326
14.50659
15.51605
15.14693
13.94453
12.27545
10.41462
8.667392
7.574542
6.591184
5.44705
4.820962
2.944624
1.946871
1.768072
2.898151
4.560409
6.215923
7.519648
8.410171
8.926049
9.143199
9.255983
9.23831
9.13955
9.271241
9.489786
9.513488
9.308167
9.065759
8.857034
8.565918
8.167759
7.867586
7.949433
8.655779
11.29565
14.83055
15.80707
15.32399
13.99893
12.18586
10.17543
8.255896
6.705833
5.517283
4.944973
4.904258
2.916492
1.838724
1.731117
3.000002
4.211555
5.691288
6.919604
7.893747
8.624581
9.11539
9.482038
9.734744
9.784119
9.727062
9.633009
9.465541
9.218052
8.943032
8.664029
8.357994
8.052787
7.892411
8.081263
8.831907
11.46101
15.21827
16.13791
15.56224
14.17131
12.27978
10.15716
8.086711
6.335036
5.097459
4.492829
4.259261
2.899264
1.611165
1.579902
4.026947
4.98069
6.150442
7.029058
7.671578
8.203408
8.678964
9.180878
9.624415
9.908448
10.01384
9.947112
9.725081
9.36816
8.929876
8.476261
8.066414
7.784542
7.756083
8.120538
9.054984
11.89258
15.62067
16.41615
15.79625
14.41642
12.52088
10.34492
8.171949
6.269976
4.869277
4.153226
3.998576
3.265984
1.302011
0.9395665
3.255783
4.324013
5.80691
6.926977
7.602292
7.955007
8.152418
8.439629
8.798269
9.127597
9.348338
9.38296
9.203826
8.85021
8.395737
7.930496
7.553619
7.374434
7.521749
8.099777
9.303394
12.47108
15.96232
16.52108
15.92679
14.62894
12.78402
10.60887
8.393351
6.412351
4.854879
3.810417
3.12627
2.374665
0.7042023
2.479478
3.776642
5.578682
7.107683
8.072665
8.518798
8.597541
8.475703
8.434626
8.389044
8.331679
8.224511
8.031338
7.749122
7.411617
7.090297
6.879791
6.891887
7.268738
8.078591
9.623096
13.13433
16.1084
16.52522
16.02851
14.84913
13.10357
10.96506
8.708711
6.609887
4.860169
3.546029
2.568599
1.787764
1.981708
3.463351
5.167173
7.140628
8.513563
9.263538
9.51957
9.410122
9.08804
8.773373
8.377342
7.933374
7.470733
7.023037
6.635027
6.3651
6.280648
6.478948
7.092686
8.11856
10.08442
13.80935
16.06662
16.39653
15.9541
14.91101
13.30478
11.22966
8.912809
6.655761
4.72003
3.209213
2.187031
1.40128
1.066715
3.475892
4.949588
6.879942
8.4926
9.567895
10.11222
10.21363
9.962051
9.483315
8.93552
8.247755
7.511459
6.820397
6.266847
5.930802
5.885929
6.23409
7.052532
8.271429
10.74551
14.34263
15.92668
16.12738
15.6936
14.74278
13.25139
11.22931
8.833258
6.437594
4.417639
3.003325
2.29154
0.7043821
1.517625
3.549536
5.28687
7.346983
8.966311
9.959513
10.38032
10.34182
9.92201
9.279829
8.474398
7.556875
6.682384
5.998753
5.622528
5.647673
6.164963
7.137681
8.596033
11.59995
14.57574
15.70654
15.7633
15.28571
14.33334
12.86096
10.81646
8.306519
5.818035
3.715914
2.330437
0.9781835
2.479908
4.060934
5.853006
7.850178
9.25317
9.985048
10.16514
9.894823
9.236538
8.427446
7.452826
6.507578
5.788088
5.445938
5.587452
6.245282
7.302385
9.16592
12.44233
14.63998
15.417
15.32031
14.74938
13.68158
12.09546
9.93687
7.330369
4.882639
3.065371
1.672778
1.168822
3.337952
4.67347
6.229557
7.873381
8.922755
9.366193
9.306099
8.806688
8.019838
7.126693
6.243152
5.600528
5.368066
5.632463
6.342753
7.535181
9.967655
12.80121
14.5055
14.98047
14.73754
14.02075
12.69737
10.85825
8.548243
5.957103
3.99535
2.672845
0.8129253
1.216795
3.338625
4.551659
5.906087
7.227732
7.989531
8.21521
7.953066
7.293801
6.549536
5.83442
5.359348
5.27798
5.619317
6.337122
7.904333
10.48022
12.93057
14.0558
14.26095
13.85569
12.92698
11.18974
9.032644
6.730428
4.684176
3.235005
1.053118
1.168702
3.160703
4.20812
5.272592
6.257738
6.747766
6.744206
6.329339
5.739885
5.279395
5.020244
5.071041
5.412856
6.249829
8.131862
10.71803
12.55004
13.11943
13.03902
12.41355
11.26423
9.063668
6.717085
5.153691
3.634032
1.238115
1.080059
2.829064
3.498398
4.354416