/*--------------------------------*- C++ -*----------------------------------*\
  =========                 |
  \\      /  F ield         | OpenFOAM: The Open Source CFD Toolbox
   \\    /   O peration     | Website:  https://openfoam.org
    \\  /    A nd           | Version:  6
     \\/     M anipulation  |
\*---------------------------------------------------------------------------*/
FoamFile
{
    version     2.0;
    format      ascii;
    class       volScalarField;
    location    "50";
    object      alphat;
}
// * * * * * * * * * * * * * * * * * * * * * * * * * * * * * * * * * * * * * //

dimensions      [1 -1 -1 0 0 0 0];

internalField   nonuniform List<scalar> 
203709
(
0.7988972
1.325475
1.35429
0.8569387
0.821498
1.375103
1.899218
2.427593
2.471266
2.007684
1.483462
0.9109485
0.7728787
1.307636
1.854773
2.42231
2.6441
2.781338
2.799888
2.702478
2.525128
1.981273
1.403992
0.8528142
0.7506038
1.643282
2.257919
2.509646
2.671947
2.748631
2.767007
2.740711
2.682894
2.597949
2.461083
2.269285
1.729928
0.7990678
1.203758
2.126041
2.419364
2.539919
2.575227
2.577579
2.575569
2.566676
2.547308
2.516304
2.457157
2.342434
2.102244
1.283034
0.6656684
1.561116
2.152006
2.326865
2.378032
2.409463
2.441582
2.475666
2.508047
2.53572
2.554709
2.549558
2.482237
2.265927
1.582159
0.6479717
1.029025
1.825638
2.040636
2.118589
2.172122
2.237513
2.305093
2.384419
2.460234
2.528343
2.595919
2.651011
2.65534
2.540461
2.194318
1.172502
0.7044656
1.716909
2.157143
2.161445
1.988858
2.083061
2.140604
2.193724
2.29027
2.39725
2.495298
2.598283
2.70719
2.778192
2.740013
2.500438
1.722709
0.6776382
1.114834
2.101072
2.370952
2.407578
2.376028
2.318011
2.243823
2.174483
2.205563
2.314223
2.435322
2.562167
2.715932
2.851455
2.870472
2.708705
2.288546
1.166021
1.105572
2.064033
2.405866
2.51947
2.538284
2.497108
2.41403
2.289561
2.192493
2.23875
2.360706
2.497895
2.68838
2.882055
2.93968
2.786735
2.367069
1.233614
0.692
1.644922
2.318334
2.523529
2.583312
2.564612
2.486717
2.358471
2.234155
2.209653
2.287803
2.421096
2.635652
2.877656
2.953194
2.736347
1.947549
0.8052298
1.21738
2.155415
2.459405
2.567285
2.569004
2.498819
2.374242
2.250181
2.202858
2.247422
2.35534
2.568052
2.843804
2.911562
2.588196
1.461863
0.7396665
1.667338
2.309358
2.491868
2.523747
2.468948
2.356937
2.244307
2.193238
2.218229
2.306098
2.506032
2.767483
2.785561
2.043162
0.9062501
1.184755
2.073862
2.33094
2.408802
2.384478
2.302133
2.213495
2.16656
2.176588
2.242227
2.429765
2.635179
2.567325
1.487339
0.6994481
1.493414
2.004153
2.159922
2.215809
2.193939
2.143719
2.101638
2.091352
2.122182
2.262501
2.355006
1.919245
0.9034706
0.6747294
1.10767
1.510503
1.887496
1.967962
1.984689
1.950438
1.900493
1.862645
1.671943
1.367256
0.9007809
0.6450674
1.034757
1.37764
1.664657
1.642547
1.344388
1.063274
0.7527543
0.5475166
0.8722277
0.8759566
0.5585557
0.6160524
0.9973949
1.209315
1.528837
1.609726
1.661618
1.681008
1.655989
1.547248
0.9486289
0.5666998
0.9283761
1.259097
1.770967
2.431796
2.916303
3.142593
3.249273
3.257097
3.175787
2.997876
2.36701
1.686666
0.9904901
0.6352031
1.366327
1.76411
2.042753
2.632658
3.284661
3.848867
4.240712
4.37156
4.271743
4.062554
3.836394
3.5078
3.107992
2.289087
1.047969
0.6615686
1.505093
2.091597
2.452376
2.893305
3.530609
4.351604
3.657015
4.52638
4.707355
4.856987
5.19733
4.656468
4.22189
3.841116
3.337263
2.385643
1.067712
0.6156699
1.576408
2.302961
2.786135
3.340858
4.006784
2.739672
4.063141
4.02297
4.899777
5.067514
5.136631
5.163684
5.069188
5.229736
4.55444
3.967724
3.385034
2.3638
1.03447
0.5464211
1.516803
2.345089
2.856606
3.573484
1.92294
3.088766
3.275641
4.4072
4.735226
5.146475
5.288988
5.344193
5.262328
5.108846
4.980981
4.748295
4.677213
3.84965
3.210803
2.205849
0.9544643
1.10994
2.276843
2.869382
3.476266
1.927223
2.919927
4.122602
4.622775
5.184454
5.483273
5.683539
5.76121
5.778853
5.722466
5.596105
5.345362
4.91715
4.532901
4.108978
3.446
2.820256
1.566051
0.6257691
1.586553
2.723595
3.504833
4.444372
3.122524
4.968641
5.725017
6.186578
6.527618
6.708502
6.810076
6.870229
6.905587
6.941798
6.969157
6.921402
6.65177
5.810665
4.355328
3.376252
2.859496
2.045928
0.6286015
1.053747
1.992163
2.787898
4.063637
4.061521
4.123966
5.294113
5.486539
5.512585
5.455985
5.411996
5.418496
5.492472
5.62762
5.813757
6.040499
6.271261
6.371056
6.076387
5.293553
3.768785
2.925296
2.218514
1.032686
1.178793
2.191121
2.852863
4.192438
5.039878
5.518208
5.675492
5.231112
4.916001
4.65874
4.446455
4.363957
4.408518
4.536791
4.739325
5.000314
5.296512
5.464884
5.300619
4.494322
4.350636
3.290196
2.466557
1.161849
1.258118
2.362159
3.078541
3.826176
4.748312
5.6403
6.04689
5.98225
5.263205
4.835997
4.401786
4.111514
4.024978
4.056732
4.218799
4.484648
4.851818
5.108754
5.100048
4.154867
3.25207
3.671529
2.698113
1.270706
1.313426
2.490801
3.293028
3.646375
4.22891
4.888018
5.24053
5.268328
5.187938
5.004277
4.686234
4.269328
4.031149
3.904833
3.970563
4.206497
4.641334
4.974503
5.210257
5.137953
4.469375
3.966588
2.859661
1.356125
1.347852
2.563551
3.37671
3.576316
3.913459
4.25261
4.460957
4.469726
4.424674
4.452406
4.503279
4.424451
4.233721
3.966226
3.890815
4.05343
4.548912
4.902799
5.201206
5.249456
4.824389
4.062662
2.940227
1.412758
1.354039
2.564231
3.301443
3.465825
3.658463
3.86245
3.988021
4.010918
4.04098
4.138223
4.263721
4.332926
4.318016
4.121201
3.931323
3.983679
4.536381
4.878945
5.157889
5.169939
4.897727
3.969476
2.943297
1.440995
1.314771
2.476109
3.126576
3.992348
3.966072
4.022418
4.042614
4.036295
4.03953
4.089951
4.175359
4.263627
4.3215
4.20192
4.012518
3.973403
4.575918
4.875347
5.119605
5.150015
4.976811
3.786772
2.870858
1.432545
1.208252
2.296903
2.916301
3.551929
3.684814
3.784662
3.851816
3.879515
3.901576
3.961586
4.056511
4.177713
4.282355
4.203272
4.053529
4.002944
4.637415
4.87663
5.07412
5.148435
4.494201
3.595484
2.715831
1.355946
0.7493087
1.808994
2.64724
3.18971
3.981147
3.9587
3.985693
4.009025
3.986478
3.97756
4.012963
4.108763
4.205045
4.120224
4.031935
4.025957
4.713972
4.881943
5.011368
5.229858
4.112718
3.315429
2.153412
0.846651
1.321651
2.37314
2.904398
3.449308
3.487776
3.527801
3.577504
3.662547
3.726685
3.82683
3.964641
4.057017
3.93761
3.942039
4.010967
4.797489
4.836281
4.926812
4.603768
3.784985
2.974907
1.559313
0.8153502
1.799869
2.555098
2.991547
3.559659
3.451483
3.455953
3.483009
3.588819
3.730043
3.822482
3.829843
3.631561
3.763996
3.98916
4.863891
4.750935
4.904364
4.052691
3.328665
2.222837
0.9342279
0.8765532
1.911449
2.636453
2.982633
3.314266
3.68804
3.490424
3.473193
3.494269
3.482606
3.407331
3.207364
3.632053
3.999251
5.018499
4.615096
4.081519
3.495136
2.412273
1.03588
0.8824266
1.886368
2.518573
2.764087
2.89893
3.068645
3.2981
3.075201
2.978243
2.931436
2.919406
3.635961
3.950903
4.093422
3.907514
3.441424
2.476216
1.096217
0.8331895
1.721846
2.208013
2.35427
2.443511
2.471301
2.521875
2.564631
2.60371
2.683268
2.961074
3.451735
3.477625
3.205623
2.388711
1.10564
0.7326695
1.179617
1.557349
1.859201
1.878869
1.882053
1.903699
1.976831
2.161844
2.559887
2.851012
2.415133
1.78587
1.057813
0.5971157
0.9293906
0.9610521
0.9685511
0.9906059
1.055788
1.225471
1.47779
1.559548
1.008859
0.6311899
0.9677368
0.9396441
1.20676
1.451833
1.512403
1.454632
0.8984016
0.7315175
1.275713
1.472715
1.883798
2.23184
2.191794
2.634339
3.076246
3.216602
3.198795
2.647882
2.023166
1.719675
0.9762237
0.876033
1.921939
2.64116
3.003353
3.276019
3.33524
3.291032
3.982365
4.465344
4.642312
4.66183
4.493417
4.080372
3.569213
2.620586
1.20203
0.6528718
1.271401
2.176836
3.207087
3.887359
4.175019
4.61864
5.325302
5.565834
5.130502
5.185812
5.253657
5.269722
5.215202
5.118882
5.218608
4.285185
3.010824
1.894825
1.025494
0.6551245
1.577297
2.639161
3.711494
3.968008
3.853224
4.247017
5.337523
6.778741
6.361018
5.89155
5.871663
5.970652
6.033567
6.011183
5.836833
5.555263
5.037024
4.796246
3.708922
2.507699
1.072306
0.6576148
1.538841
2.506628
3.911609
4.211681
4.348951
4.757322
5.820206
6.634556
6.722733
6.59406
6.41807
6.447002
6.520376
6.602223
6.585117
6.439378
6.149946
5.720652
5.357816
5.01099
3.856486
2.519105
1.037503
1.213442
2.292097
3.582273
4.306495
4.718841
5.109008
5.722173
5.851706
6.147648
6.487858
6.620524
6.835538
6.9267
6.968309
6.975862
6.941962
6.820276
6.599556
6.283303
5.869243
5.43825
5.014031
3.721376
1.920194
0.8138161
1.922831
3.003357
3.656969
5.231221
5.610758
5.020374
5.000984
5.274141
5.612761
6.366135
6.729449
7.117802
7.294504
7.344134
7.282989
7.170756
7.019299
6.859193
6.630131
6.298636
5.840827
5.344147
4.791802
3.023983
1.213596
0.7061887
1.749618
2.716864
3.35806
4.792895
6.847397
5.040086
4.262804
4.121192
5.071494
5.717284
6.510346
6.970849
7.318328
7.489649
7.565035
7.562442
7.495052
7.317499
7.069602
6.775906
6.466036
6.093839
5.580761
4.950954
4.217803
2.609217
0.9715635
1.235705
2.388815
3.351284
4.479527
7.573671
7.059319
5.088296
4.442356
5.178636
5.971774
6.580613
7.177284
7.595475
7.868174
8.008938
8.075647
8.084282
8.023899
7.870113
7.637527
7.282682
6.83752
6.348727
5.822911
5.358555
4.957978
3.397193
1.647486
1.465603
2.781611
3.166511
4.132889
7.237858
9.011345
7.111744
6.371124
7.073675
7.588922
8.105978
8.569417
8.862254
9.037378
9.168491
9.299534
9.44214
9.583445
9.628311
9.409842
8.819039
8.013131
7.388073
6.849651
6.356748
5.673455
3.594215
1.80145
0.7194853
1.964318
3.157655
3.330111
3.889933
5.755219
9.213766
8.67811
7.555204
7.493872
7.386755
7.374757
7.293919
7.220938
7.224452
7.352058
7.609641
7.986505
8.467599
9.003599
9.423106
9.484079
9.141498
8.535673
7.910591
7.107863
5.375446
3.937149
2.164052
0.7029699
1.199301
2.469403
3.406625
3.532663
3.877445
4.872677
7.459274
9.177415
9.218724
8.443086
7.412368
6.762108
6.306195
5.936311
5.763073
5.826963
6.077066
6.483363
7.039858
7.740416
8.350919
8.580779
8.218926
7.993446
7.578303
6.475028
4.077015
4.004063
2.636471
1.160522
1.310793
2.622658
3.569997
3.7329
3.990981
4.471708
5.917599
7.773031
8.848747
9.144649
8.99926
7.648055
6.765932
5.993007
5.443531
5.266506
5.356207
5.664813
6.182911
6.994291
7.818023
8.271054
7.99608
7.398374
7.176234
5.820452
3.361999
3.833101
2.647338
1.213261
1.351495
2.694125
3.675566
3.914443
4.176051
4.456594
5.064547
6.249352
7.291942
7.840475
7.925732
7.747616
7.242709
6.560198
5.767065
5.299197
5.152992
5.289878
5.681843
6.535235
7.532667
8.206754
8.304155
7.774149
7.025487
5.62209
3.373022
3.888735
2.679457
1.2189
1.356842
2.717046
3.731058
4.050288
4.370594
4.616611
4.884258
5.390516
6.025843
6.435968
6.519103
6.399962
6.327842
6.253121
5.998139
5.608874
5.282578
5.216057
5.424712
6.267138
7.393361
8.147117
8.291558
7.77728
6.854962
5.536459
3.581989
3.940483
2.688805
1.2193
1.32575
2.684131
3.721631
4.09602
4.486617
4.767551
4.982016
5.188722
5.459116
5.665185
5.719121
5.692965
5.71882
5.776465
5.767803
5.668391
5.488069
5.330611
5.343752
6.129182
7.361218
8.1049
8.191704
7.663508
6.697496
5.508318
3.903393
3.949843
2.647916
1.19418
1.230935
2.559072
3.616919
3.98234
4.402515
4.726969
4.986972
5.183387
5.315185
5.431115
5.458681
5.450987
5.463924
5.504766
5.550462
5.593957
5.571533
5.468929
5.383657
6.074089
7.391102
8.029763
8.034551
7.460849
6.540705
5.457051
4.273236
3.884453
2.519135
1.110329
0.7820463
2.118697
3.454337
3.723808
4.087976
4.408368
4.693464
4.932282
5.086328
5.200126
5.236115
5.219452
5.211097
5.240511
5.326088
5.466886
5.560833
5.539992
5.449437
6.084656
7.434962
7.987779
7.968539
7.347019
6.423944
5.359381
4.541434
3.705129
2.020841
0.6829388
1.714936
3.271722
3.585381
3.796711
4.053192
4.284934
4.505469
4.677483
4.808961
4.893105
4.931104
4.954493
5.003806
5.12728
5.325823
5.483741
5.525897
5.461343
6.144331
7.47584
7.917197
7.834153
7.219812
6.323686
5.252935
4.549361
3.379319
1.559805
1.557251
3.027542
4.214603
4.213085
4.28047
4.340041
4.411107
4.47968
4.559917
4.635401
4.668702
4.689832
4.75953
4.925673
5.161065
5.344638
5.42093
5.39768
6.199102
7.513333
7.743892
7.59143
6.995145
6.106195
5.039023
4.616837
3.002683
1.353496
0.9294031
2.340868
3.664861
3.876469
3.967171
4.045395
4.064016
4.05897
4.078432
4.141448
4.22937
4.332517
4.491573
4.716825
4.95967
5.134053
5.213373
5.25816
6.278802
7.419102
7.431132
7.248323
6.657301
5.773254
4.784499
3.849784
2.247251
0.7879512
1.15172
2.768592
4.24442
4.361432
4.389571
4.365996
4.258073
4.138493
4.085267
4.09931
4.165731
4.308358
4.502341
4.689563
4.829965
4.900205
5.16019
6.32366
7.180683
6.987182
6.784474
6.17374
5.376043
4.597497
2.764524
1.057108
1.833337
3.416394
4.429879
4.444674
4.404084
4.277061
4.082885
3.938587
3.870523
3.887325
3.99636
4.151473
4.302508
4.448983
4.622284
5.1733
6.229745
6.860651
6.455862
6.213859
5.701003
5.066379
3.645645
1.786496
1.001977
2.345897
3.435264
4.296671
4.211582
4.088169
3.899921
3.709284
3.592195
3.557637
3.615089
3.731509
3.875328
4.103973
4.490462
5.25783
6.001124
6.493879
5.83825
5.707588
5.314194
3.973299
2.533303
1.00181
0.9944833
2.258864
3.16441
3.88255
3.690901
3.607995
3.441936
3.307897
3.249837
3.265166
3.346626
3.520856
3.892991
4.527571
5.220881
5.60782
6.047428
5.284729
5.233243
4.033314
2.678633
1.107549
0.9007418
1.586939
2.389748
3.1881
3.62562
3.221255
2.99905
2.896235
2.886325
2.971319
3.241531
3.856623
4.554293
5.015942
5.16476
5.671688
4.714239
3.376506
2.144267
1.133215
0.9144694
1.892878
2.386217
2.531605
2.597854
2.57357
2.564518
2.674714
3.121614
3.910462
4.550132
4.763099
4.528083
4.017681
2.9711
1.387046
0.6563288
1.094429
1.211168
1.496912
1.769903
1.854739
2.055593
2.516702
3.069947
3.385854
2.948849
2.354435
2.032991
1.161755
0.5000227
0.8324251
0.9469266
1.121929
1.385604
1.625689
1.684755
1.084281
0.6163609
1.064643
1.174666
1.362594
1.379344
0.8681496
0.5830846
1.07639
1.330736
1.55447
2.062369
2.847456
3.201607
3.412775
3.517048
3.02929
2.384765
2.067483
1.712776
0.9562728
0.5396499
1.069662
1.782721
2.588903
3.086345
3.166416
2.954866
3.797967
5.584383
4.386114
4.323471
4.192837
4.087837
4.711975
4.067216
2.986195
1.904688
0.9734886
0.6839925
1.560002
2.509229
3.29931
2.835815
2.768061
3.155842
3.644852
4.824407
6.701106
5.882447
5.641889
5.793678
5.801992
5.760827
5.122667
4.426064
4.202254
2.726224
1.144696
0.8411587
1.826325
2.883479
3.587778
3.976602
4.255244
4.519626
4.890203
5.50632
6.895347
8.193621
7.423898
7.149957
7.439178
7.553537
7.348529
6.740728
5.980249
5.382931
4.809625
3.050269
1.288543
0.9529105
2.107455
2.617684
3.020217
3.783555
4.545989
5.06407
5.472003
5.96296
6.983452
8.815842
9.62679
8.794617
8.635586
8.894643
8.998228
8.735734
8.123239
7.289122
6.277161
5.261815
4.051603
3.305481
1.340624
0.9873464
2.266674
2.529831
3.233709
4.203793
5.118644
5.735992
6.075664
6.410259
7.064296
8.667646
10.23819
10.20117
9.870452
9.86422
9.972416
10.01511
9.709698
9.091296
8.275088
7.326991
6.293077
5.147858
4.219735
3.332596
1.310152
0.924889
2.23758
2.471423
2.900246
3.875528
5.012118
6.003222
6.604156
7.001731
7.769484
9.124054
9.645304
10.20691
10.34677
10.55421
10.72705
10.70128
10.56429
10.24885
9.690416
8.965332
8.132016
7.22849
6.247461
5.171053
4.106016
3.120113
1.186206
0.8057569
2.106249
3.426649
3.296679
3.830025
4.853703
5.83672
7.069585
7.536348
7.939394
8.628274
8.614163
9.202508
9.888056
10.42431
10.90886
11.13931
11.09149
10.83058
10.47463
10.0464
9.485737
8.822035
8.08343
7.279808
6.389102
5.420318
4.902539
2.820563
1.022648
1.520075
3.151064
3.447139
3.66381
4.34414
4.983408
6.934073
8.373419
7.661982
7.140445
7.279045
7.957938
8.880367
9.713356
10.40768
10.88781
11.08086
11.05454
10.89788
10.63365
10.24575
9.856345
9.408749
8.85785
8.200819
7.407858
6.40454
5.488889
4.282632
1.959069
0.7809331
2.308134
2.979378
3.415113
3.801857
4.374463
5.501752
9.113055
8.218597
6.494309
6.302881
7.034202
7.899327
8.843954
9.630053
10.19721
10.49554
10.59441
10.60152
10.56759
10.48208
10.33812
10.11679
9.757567
9.367838
8.901289
8.236269
7.316473
6.112832
4.595773
3.019144
0.9857553
1.37103
3.10932
3.428766
3.754723
4.027815
4.559636
7.155073
10.47106
7.917686
6.927255
7.13818
7.733236
8.461262
9.214199
9.813172
10.18495
10.34491
10.39178
10.4012
10.38961
10.33792
10.24038
10.09542
9.893752
9.642099
9.25319
8.605986
7.834221
6.669509
5.127965
3.986276
1.664883
1.66138
3.629349
3.934833
4.193696
4.353682
4.727084
7.045929
11.87177
9.974121
8.743603
8.715304
9.070367
9.625528
10.17918
10.56082
10.76125
10.90112
11.06589
11.27669
11.50375
11.62834
11.48323
11.03697
10.50003
10.06372
9.612747
9.036167
8.195087
6.99833
5.497436
4.477856
1.883386
1.949392
3.003611
3.812549
4.340103
4.573687
4.873539
6.191391
10.7969
11.84123
10.15187
9.271013
8.890662
8.839643
8.773323
8.695082
8.713542
8.896547
9.274073
9.838702
10.56
11.3483
11.95597
12.13378
11.87705
11.28636
10.49226
9.512754
8.174122
7.331309
6.046508
4.897399
2.100769
0.7812636
2.560639
3.327583
4.128188
4.624172
4.855853
5.043434
5.687473
8.4563
11.36977
11.84962
10.71372
9.273136
8.315875
7.727029
7.261483
7.039028
7.139359
7.52941
8.176146
9.083888
10.24233
11.28582
11.76321
11.606
11.3279
10.78303
9.438214
7.413241
7.068059
5.963922
4.096941
2.85577
0.8791309
1.285775
3.092089
3.790333
4.552292
5.039382
5.271391
5.379455
5.653019
6.859664
9.188732
10.83481
11.39497
11.30034
9.705383
8.451138
7.419998
6.670055
6.41966
6.59179
7.104701
7.973245
9.361045
10.8426
11.66441
11.64489
11.09432
10.39923
8.853583
6.570919
6.789572
5.925461
3.742808
3.516466
1.433424
1.372619
3.191622
3.981038
4.832097
5.417824
5.733365
5.845686
5.919978
6.278683
7.460973
8.794032
9.650595
9.946462
9.866124
9.185805
8.224282
7.137328
6.438971
6.28139
6.552993
7.22871
8.692169
10.52407
11.61029
11.79597
11.23146
10.24776
8.671455
6.503643
6.50822
5.321933
3.02749
3.304752
1.409433
1.375641
3.183247
3.987344
4.917424
5.641853
6.110514
6.324721
6.391636
6.439606
6.795414
7.416977
7.947504
8.147111
8.036299
7.935418
7.781172
7.378072
6.804776
6.404423
6.409089
6.827643
8.271157
10.39098
11.61134
11.84121
11.24404
10.11551
8.611675
6.681167
6.144763
4.626851
2.494037
2.824653
1.214599
1.302683
3.07338
3.836361
4.782379
5.613087
6.248628
6.630284
6.806654
6.853074
6.942665
7.095305
7.240597
7.275531
7.202246
7.168942
7.148814
7.032052
6.803821
6.581257
6.512401
6.707565
8.066848
10.42551
11.68942
11.89353
11.26802
10.07803
8.575711
6.868857
5.783945
4.219402
2.496877
2.564553
1.023439
0.8369906
2.621237
3.307119
4.20852
5.090006
5.863844
6.437378
6.803049
7.007666
7.154066
7.270815
7.278343
7.204741
7.083179
6.958803
6.847131
6.736506
6.645601
6.601127
6.630357
6.794868
8.05262
10.55871
11.7931
11.92111
11.27126
10.08127
8.579057
6.925042
5.492496
4.009187
2.768415
2.063837
0.6196883
2.15815
3.033441
3.657627
4.434599
5.141083
5.742263
6.212855
6.557793
6.854087
7.090915
7.177076
7.108893
6.941218
6.738432
6.553679
6.435374
6.426012
6.514738
6.669224
6.9068
8.25425
10.73105
11.86236
11.90065
11.22637
10.05882
8.563907
6.885974
5.293507
3.825656
3.018704
1.596311
1.978807
4.251785
4.661544
5.148122
5.520339
5.799445
6.022153
6.23093
6.471005
6.698812
6.79688
6.732544
6.566706
6.362433
6.185741
6.107054
6.172197
6.362676
6.628837
6.986791
8.563298
10.9182
11.89489
11.9163
11.22285
10.02437
8.504879
6.787452
5.186462
3.679885
3.28921
1.415559
1.730914
3.857436
4.361622
4.989379
5.452877
5.718367
5.814604
5.821646
5.874627
5.976651
6.032884
6.005062
5.913095
5.791722
5.703576
5.719225
5.875888
6.163028
6.522433
7.044802
8.925418
11.06364
11.90275
11.85282
11.13029
9.889478
8.348736
6.62046
5.09441
3.531033
2.883365
1.198888
1.011314
2.962395
3.875167
4.681591
5.475702
5.953366
6.12245
6.06095
5.875339
5.737266
5.599937
5.447181
5.308765
5.21378
5.204676
5.315789
5.559557
5.939029
6.364405
7.121234
9.270467
11.18508
11.74845
11.61556
10.84134
9.530935
7.984016
6.241856
4.900892
3.356035
2.162644
0.6840572
2.008153
4.256935
5.060053
5.748345
6.375652
6.652531
6.637064
6.388962
6.023323
5.686692
5.358013
5.083781
4.907214
4.866627
4.982043
5.265671
5.718903
6.179134
7.267304
9.593434
11.0991
11.41568
11.18433
10.32115
8.886896
7.339475
5.570758
4.589468
3.364419
1.420005
1.042865
2.831352
4.859045
5.434353
6.083998
6.479282
6.59492
6.443238
6.046848
5.599665
5.171619
4.808521
4.57461
4.514502
4.648233
4.999795
5.51735
6.022469
7.51779
9.849088
10.84256
10.90884
10.5654
9.593002
7.991852
6.45754
4.816612
4.33128
2.262416
0.7451174
1.220016
3.15538
3.98216
4.811352
5.556507
5.966221
6.048153
5.812249
5.361432
4.933937
4.546968
4.290556
4.226384
4.392988
4.812199
5.331696
5.975256
7.800687
9.834011
10.40376
10.20505
9.758693
8.711765
6.906252
5.437025
4.012436
2.858969
0.9841003
1.329599
3.326381
4.062952
4.701988
5.239434
5.485691
5.414968
5.06953
4.679141
4.324978
4.075708
4.01834
4.215547
4.652083
5.138271
6.075021
7.965595
9.553072
9.712323
9.245571
8.734632
7.691177
5.663583
4.52115
3.398748
1.252344
1.310998
3.171575
3.694572
4.284229
4.656652
4.805005
4.63115
4.302655
4.011703
3.789349
3.761315
4.000135
4.417824
4.968116
6.148853
7.750048
8.927601
8.712512
7.97485
7.436915
6.562451
4.566382
3.690722
1.423326
1.183817
2.722572
4.051194
4.168283
4.183046
4.037565
3.788998
3.516711
3.337599
3.393394
3.698937
4.146585
4.868441
6.015953
7.012143
7.955993
7.435873
6.421603
6.282551
5.703822
3.624239
1.496649
0.9552492
2.184047
3.154425
3.052984
3.084556
3.113219
2.862905
2.772987
3.006587
3.413335
3.963262
4.798074
5.47725
5.775319
6.716444
6.019189
5.035818
5.150428
3.361922
1.422437
0.7196402
1.337875
1.976704
2.513365
2.757308
2.163463
2.250034
2.703412
3.195698
3.868663
4.507409
4.596069
4.496671
5.718078
4.979459
3.705228
2.439768
1.255843
0.59017
1.007482
1.183895
1.370344
1.811883
2.444076
3.081637
3.756545
4.176125
3.732893
2.998215
2.632261
2.21029
1.256745
0.574709
1.121036
1.461578
1.735595
1.825016
1.189012
0.4650859
0.8674442
1.180575
1.500792
1.571313
1.751572
1.809016
1.71107
1.491186
0.8376718
0.4522651
0.814465
1.105358
1.70519
2.413025
1.93374
2.461263
3.027739
3.072808
3.312888
3.530195
4.121222
3.216007
2.362166
1.81483
0.9325181
0.736612
1.574039
1.982304
1.974501
2.019968
2.210416
2.725859
4.086119
5.102565
5.025199
5.471335
5.711245
5.809399
4.923029
4.120252
3.575892
3.210222
1.356184
0.8148606
1.416286
1.813113
2.335589
3.01488
3.551212
3.956748
4.220805
4.315784
5.07781
7.047472
7.258044
7.697636
8.23338
8.287067
7.624113
6.786592
5.717233
4.736197
3.498956
2.187851
1.040102
0.9828258
2.227307
2.136384
2.639454
3.655362
4.7325
5.166775
5.248736
5.367053
5.530571
6.307486
8.260724
9.344324
9.974563
10.48727
10.64345
10.17059
9.351695
8.198754
6.789085
5.059703
3.667301
3.007174
1.14021
1.039628
2.552256
2.65433
2.895786
3.839149
5.241209
6.284721
6.745001
6.927191
7.127551
7.574075
8.451164
9.780699
11.28236
12.05143
12.40048
12.55076
12.12899
11.28557
10.1092
8.669592
7.004751
5.293746
4.065598
3.125401
1.147896
1.040483
2.68551
2.982835
3.167841
3.792108
5.144736
6.498492
7.307335
7.654178
7.806092
8.040833
8.746478
10.05262
11.41314
12.87828
13.75104
14.01116
13.87542
13.34215
12.40318
11.21664
9.915261
8.546948
7.070972
5.463908
4.134715
3.13963
1.154595
0.9650816
2.652228
3.166856
3.456933
3.78971
4.733252
6.263665
7.417223
8.029747
8.282242
8.422565
8.760331
9.901623
11.61982
12.72707
13.94214
14.93442
15.1142
14.60451
13.88978
12.84794
11.65803
10.49576
9.428901
8.360949
7.080748
5.500436
4.124974
3.089834
1.104251
1.948235
2.959672
3.605112
3.958584
4.391007
5.623774
7.009947
7.971669
8.59166
8.89683
9.332939
10.41854
11.44517
12.44471
13.23748
14.59749
15.53856
15.56824
14.95197
14.02561
12.975
11.85199
10.80976
9.927276
9.14893
8.28272
7.064645
5.383555
3.784217
2.29019
1.192895
2.891883
3.683547
4.250903
4.449667
4.988382
6.307337
7.438579
8.744364
9.451798
9.725688
10.58273
10.85463
11.3627
12.37082
13.52697
14.86902
15.58284
15.50416
14.95273
14.1217
13.14151
12.18756
11.28295
10.49921
9.836264
9.197968
8.365258
7.041947
5.29239
3.867043
1.468987
0.8003879
2.715396
3.651225
4.529172
4.86857
4.93529
5.498965
6.589502
8.166753
10.12195
10.14875
9.529929
9.330386
9.975236
11.07929
12.35511
13.61876
14.64842
15.05567
14.95118
14.60371
14.11781
13.51975
12.80873
12.09936
11.41876
10.7836
10.17688
9.489963
8.474094
6.900048
4.934168
3.367371
0.9916424
1.522195
2.864043
4.118052
5.109475
5.365385
5.358992
5.854429
6.856283
10.11788
11.1111
9.117951
8.414839
8.88776
9.881827
11.09629
12.29527
13.25625
13.80145
13.93386
13.88034
13.79729
13.70297
13.56703
13.35406
13.02863
12.53725
11.99508
11.37706
10.64623
9.675807
8.185843
5.989047
3.893128
1.803631
1.946956
3.182746
4.69828
5.611961
5.796177
5.72554
6.100334
7.794359
12.50127
10.61818
9.091684
8.90097
9.418267
10.28836
11.265
12.10861
12.63903
12.8248
12.80597
12.77853
12.8314
12.93542
13.04555
13.12294
13.1564
13.09906
12.86779
12.38007
11.66667
10.65417
9.147185
6.958508
4.415246
2.213803
0.7438728
2.716011
3.843462
5.311309
6.122788
6.24323
6.10521
6.322202
7.912911
13.44135
12.29833
10.54437
10.10154
10.366
10.96943
11.61327
12.07508
12.27502
12.38226
12.55036
12.82762
13.16407
13.4215
13.43505
13.20002
12.95466
12.8178
12.66354
12.36395
11.79741
10.91002
9.509529
7.522627
4.957705
2.985023
0.848931
1.332197
3.564815
4.715787
6.030677
6.696359
6.753344
6.553465
6.610708
7.410098
11.85303
14.08161
12.11873
10.74804
10.15649
10.06759
10.03823
9.972154
10.01396
10.24829
10.73868
11.4866
12.44381
13.46762
14.2089
14.37419
14.02939
13.34698
12.56649
11.79832
10.96126
10.37139
9.162583
7.482287
4.860039
3.822312
1.446434
1.564981
3.133053
4.816877
6.401476
7.15179
7.263524
7.067343
6.992254
7.228404
9.548937
13.02865
13.81482
12.54776
10.87231
9.677404
9.004864
8.480757
8.226173
8.357497
8.880675
9.774763
11.04893
12.66538
14.10092
14.70121
14.52983
14.06991
13.18505
11.70392
9.959107
9.542469
8.531952
6.883799
4.942609
3.816191
1.726376
1.706612
3.106286
5.077612
6.691813
7.539268
7.767071
7.639319
7.469494
7.468721
8.167297
10.57342
12.47447
13.18529
13.09683
11.5056
9.970911
8.74627
7.832502
7.500047
7.742096
8.476919
9.737719
11.71388
13.80604
14.85076
14.84954
14.18126
13.17891
11.52712
9.401293
9.138846
8.155815
6.28829
5.010625
3.161012
1.925072
1.773001
3.09096
5.058257
6.759465
7.785618
8.210269
8.232178
8.080851
8.012158
7.943361
8.897901
10.27076
11.24424
11.64062
11.61856
10.8842
9.737771
8.433757
7.515005
7.313774
7.735724
8.771251
10.87488
13.4913
14.82525
14.951
14.25314
13.05757
11.36887
9.311782
8.871414
7.676872
5.632496
4.820113
2.890279
1.954183
1.796138
3.026446
4.880929
6.607058
7.816228
8.491271
8.746471
8.729398
8.653505
8.501453
8.55442
9.018756
9.509954
9.714451
9.577455
9.411242
9.18235
8.661047
7.925933
7.424863
7.503321
8.246139
10.33384
13.3984
14.88248
14.98609
14.2083
12.87328
11.16665
9.241037
8.046345
6.428897
4.599247
4.535043
2.748749
1.872758
1.794912
2.921796
4.572442
6.222711
7.530195
8.434668
8.970951
9.199982
9.253593
9.261877
9.153918
9.092543
9.082576
9.003943
8.821794
8.674836
8.534661
8.278602
7.892335
7.577559
7.597104
8.123921
10.10063
13.53999
15.10097
15.11295
14.24467
12.80627
11.01547
9.074155
7.391886
5.657641
4.116617
4.037676
2.469096
1.690664
1.764375
3.062948
4.298322
5.779886
6.984016
7.931947
8.649129
9.134011
9.446846
9.686107
9.77692
9.721122
9.565572
9.332238
9.043085
8.71694
8.377344
8.027227
7.716813
7.562018
7.704699
8.274967
10.25183
13.821
15.43053
15.32516
14.38469
12.8814
11.00466
8.958575
7.006045
5.232414
3.946219
3.403266
2.853576
1.366401
1.606396
4.100425
5.092325
6.306381
7.197437
7.81382
8.291412
8.706536
9.130277
9.539871
9.813502
9.917089
9.828278
9.56128
9.149284
8.660214
8.163028
7.732774
7.46091
7.437653
7.748771
8.487798
10.68522
14.28016
15.768
15.55361
14.58229
13.06067
11.12767
8.984147
6.889597
5.029732
3.663575
2.942476
2.743244
1.059056
0.9499756
3.296706
4.407478
5.963023
7.143227
7.849642
8.199011
8.350014
8.50505
8.7511
8.969338
9.094933
9.069984
8.868818
8.517371
8.075186
7.625411
7.268656
7.109195
7.245046
7.751068
8.733223
11.29693
14.81908
15.98356
15.68799
14.73611
13.24243
11.29156
9.091626
6.913816
4.99915
3.558831
2.626562
2.209084
0.6015383
2.491705
3.817356
5.686403
7.291605
8.319744
8.811232
8.91539
8.777606
8.660499
8.539294
8.385546
8.181605
7.911062
7.579542
7.219517
6.894511
6.689566
6.69964
7.036843
7.758277
9.052819
12.04309
15.27232
16.02107
15.7643
14.89555
13.46123
11.53312
9.307421
7.05724
5.042261
3.467478
2.344088
1.708013
1.97932
3.463889
5.202402
7.242897
8.679956
9.48405
9.788331
9.718807
9.396327
9.061529
8.627626
8.120011
7.579612
7.055688
6.605668
6.293002
6.180346
6.345395
6.895077
7.826827
9.520004
12.86892
15.47266
15.98672
15.72389
14.91881
13.57704
11.70829
9.45455
7.095368
4.953902
3.27005
2.139704
1.309266
1.059743
3.454048
4.94035
6.90985
8.570429
9.690098
10.27807
10.42433
10.21269
9.732588
9.189085
8.478257
7.694042
6.940653
6.323845
5.933353
5.84214
6.135693
6.880583
8.009193
10.2061
13.65985
15.50205
15.82494
15.51514
14.73471
13.45689
11.62466
9.305728
6.834496
4.62296
3.021661
2.234796
0.6774443
1.498347
3.498899
5.250109
7.346406
9.00506
10.03529
10.49373
10.49366
10.1075
9.471252
8.672659
7.734194
6.817703
6.081938
5.653144
5.626205
6.081828
6.990851
8.365432
11.11718
14.16582
15.42178
15.55906
15.16313
14.32952
13.02172
11.13283
8.684776
6.136819
3.907109
2.447761
0.9632759
2.442737
4.013629
5.816026
7.837186
9.264942
10.02205
10.22947
9.987536
9.355019
8.560832
7.582397
6.614614
5.858917
5.473752
5.566795
6.169939
7.18852
8.974452
12.09502
14.37438
15.23192
15.18917
14.67481
13.68866
12.22209
10.17083
7.587128
5.077594
3.173639
1.689921
1.146632
3.283085
4.618991
6.183559
7.839749
8.904169
9.364856
9.32402
8.845578
8.075737
7.19183
6.301101
5.637224
5.374519
5.601452
6.277746
7.467916
9.832237
12.62012
14.34707
14.86315
14.65462
13.98106
12.71093
10.94925
8.69461
6.088118
4.086439
2.740737
0.8323961
1.195534
3.286578
4.496699
5.851983
7.176727
7.945861
8.181833
7.933137
7.288634
6.558746
5.845807
5.360901
5.261099
5.579643
6.300538
7.89824
10.44908
12.84721
13.96446
14.1849
13.80189
12.90899
11.19905
9.083215
6.79845
4.735079
3.262485
1.077737
1.147187
3.110489
4.151913
5.210897
6.194049
6.686884
6.689488
6.283494
5.710602
5.26023
4.997227
5.037486
5.380563
6.268435
8.194494
10.74356
12.52487
13.0689
12.9891
12.37623
11.25583
9.058195
6.730247
5.175929
3.645211