/*--------------------------------*- C++ -*----------------------------------*\
  =========                 |
  \\      /  F ield         | OpenFOAM: The Open Source CFD Toolbox
   \\    /   O peration     | Website:  https://openfoam.org
    \\  /    A nd           | Version:  6
     \\/     M anipulation  |
\*---------------------------------------------------------------------------*/
FoamFile
{
    version     2.0;
    format      ascii;
    class       volScalarField;
    location    "50";
    object      Co;
}
// * * * * * * * * * * * * * * * * * * * * * * * * * * * * * * * * * * * * * //

dimensions      [0 0 0 0 0 0 0];

internalField   nonuniform List<scalar> 
203709
(
0.07830555
0.07098082
0.06949271
0.07545098
0.09377837
0.07781243
0.07399028
0.06699028
0.06341199
0.06060792
0.0588659
0.0766057
0.09966323
0.07467509
0.08244366
0.0756084
0.07202569
0.06654361
0.05976459
0.05270909
0.04996833
0.05251893
0.04650693
0.06216114
0.0997984
0.08626526
0.07913954
0.07877492
0.07521191
0.0686506
0.06015879
0.05582746
0.05082496
0.04776884
0.04459774
0.04150983
0.0387768
0.0435457
0.09639913
0.07948569
0.0772845
0.07380776
0.06635997
0.06071123
0.05629093
0.05564502
0.05376156
0.05101873
0.04769734
0.04371056
0.03905445
0.0346624
0.07531447
0.07417415
0.07018163
0.06732682
0.06046134
0.05597586
0.0584067
0.06159269
0.06226752
0.06065871
0.05780053
0.05434678
0.05026369
0.045771
0.04453664
0.05433598
0.05798255
0.05390435
0.05309337
0.04845398
0.04108527
0.04862853
0.05766826
0.06365391
0.06635666
0.06581792
0.06337845
0.0602095
0.05633191
0.05180167
0.04706507
0.04215875
0.06694841
0.04125496
0.03262951
0.02681855
0.02034206
0.01888169
0.03518352
0.0488071
0.05931481
0.0659397
0.06777097
0.06657483
0.06431175
0.0610663
0.05693658
0.05243525
0.05434188
0.06809932
0.07657384
0.06452598
0.05442748
0.04417579
0.02981936
0.0264799
0.03347212
0.03800741
0.04770497
0.0599858
0.06573341
0.06692159
0.06627453
0.0641341
0.0606766
0.05626017
0.05199998
0.04714384
0.08695761
0.07606667
0.06744525
0.05974075
0.04732949
0.04593336
0.05139469
0.05294862
0.05290362
0.05462915
0.05977852
0.06448555
0.06613676
0.06560605
0.06308121
0.05869672
0.05468462
0.04861453
0.09899068
0.08515864
0.07405648
0.06603394
0.05607793
0.05520328
0.05919761
0.06004694
0.06005058
0.06050068
0.06016797
0.06093729
0.06406307
0.06559118
0.06425337
0.06268942
0.06979752
0.08501796
0.09833209
0.0754789
0.06648256
0.05824569
0.0577932
0.0604896
0.06147402
0.06222678
0.06360709
0.06438889
0.06335316
0.06304592
0.06426989
0.0653036
0.06638097
0.06787817
0.1029907
0.08132102
0.06577534
0.05712566
0.05750907
0.0589808
0.05985518
0.06139554
0.06370437
0.06548772
0.06530636
0.06437432
0.06384424
0.06724396
0.07869393
0.1019335
0.0899509
0.0637565
0.05467612
0.05518544
0.05595937
0.05704574
0.05935779
0.06230625
0.06456035
0.06493402
0.06445071
0.0649934
0.06969131
0.07491255
0.09288814
0.06902444
0.0548871
0.05231562
0.05264067
0.05412252
0.05678923
0.05992129
0.06225456
0.06259936
0.0654504
0.06933761
0.08322396
0.1088108
0.08575618
0.05683012
0.05595998
0.05060134
0.05063927
0.05361229
0.0566402
0.06011761
0.06332684
0.07605287
0.09162776
0.1051864
0.06652299
0.05097786
0.04967088
0.05299629
0.05608921
0.06335659
0.07720107
0.09425644
0.05338583
0.05430878
0.0591861
0.07115072
0.03455342
0.0211689
0.02153267
0.03422972
0.05049206
0.05653699
0.06080073
0.06485428
0.06949673
0.07683811
0.03937413
0.03646095
0.01941098
0.01838058
0.02997145
0.04747524
0.05575137
0.05863254
0.06071767
0.06276569
0.06573358
0.06687892
0.0748097
0.08635653
0.04345344
0.03417859
0.01905771
0.01415457
0.03385
0.05158693
0.05653644
0.06224834
0.06261167
0.06307734
0.06048371
0.06371326
0.0651521
0.06810457
0.07027674
0.08021117
0.0410125
0.03078273
0.01858246
0.01693819
0.03827113
0.05365665
0.06657555
0.06532202
0.06665562
0.0660349
0.06520004
0.06637468
0.06315716
0.05876858
0.06142116
0.06389092
0.06590813
0.07630108
0.0333207
0.02569735
0.02219932
0.02714077
0.03889689
0.06018288
0.06933176
0.07707606
0.07544238
0.06979955
0.06533229
0.05919709
0.0619736
0.05771112
0.05771374
0.05482313
0.05146528
0.05563982
0.05772083
0.0687262
0.01630094
0.02327096
0.02409274
0.03343886
0.04395141
0.06248532
0.07389426
0.08121933
0.08062452
0.07843144
0.07297805
0.06611057
0.05859968
0.05321207
0.04790197
0.05031593
0.04795234
0.04312666
0.03814346
0.04203754
0.04539374
0.06109965
0.009374551
0.02021903
0.03279505
0.04809002
0.06414851
0.07737112
0.08164467
0.08436414
0.08240665
0.07658244
0.06795956
0.06234057
0.05768073
0.05263206
0.04891143
0.04430523
0.03651642
0.03344612
0.02766293
0.02588949
0.02474683
0.03126497
0.0409911
0.01684716
0.02860808
0.0433181
0.05835523
0.07723847
0.08042149
0.08245112
0.08083956
0.07450687
0.06754131
0.06301536
0.06103313
0.05950743
0.05688853
0.05331694
0.04847667
0.04180877
0.03287658
0.02632126
0.01690984
0.01077607
0.00983983
0.01147416
0.04573122
0.02857207
0.02989555
0.04098707
0.05329093
0.06910582
0.07292044
0.07256116
0.06711925
0.06198703
0.06258396
0.06601272
0.06747413
0.06665726
0.06418113
0.06068982
0.05623735
0.05075662
0.04351848
0.03579652
0.02514807
0.01941965
0.01769383
0.01789653
0.0559973
0.04429227
0.03534063
0.03643627
0.04772894
0.05424228
0.05611712
0.05329082
0.04602632
0.05222745
0.06084922
0.06690256
0.07051302
0.07131908
0.069708
0.06672068
0.06273312
0.05779948
0.0519681
0.04512762
0.03729263
0.0295443
0.02665529
0.02521317
0.06510991
0.05762546
0.05403822
0.04938189
0.04039189
0.03618877
0.03041266
0.02577889
0.02227331
0.03839659
0.05110738
0.0610704
0.06831323
0.07211598
0.07242531
0.07062087
0.0673668
0.06308828
0.05841666
0.05385962
0.04733483
0.03788234
0.03543052
0.03359071
0.07166174
0.06669482
0.06656663
0.06674363
0.06107489
0.05712591
0.04871721
0.03558263
0.02766171
0.03641122
0.04153983
0.04892134
0.0599012
0.0683259
0.07189835
0.07215014
0.07006795
0.0663544
0.06181396
0.05654591
0.04954546
0.04360904
0.04235098
0.04072222
0.07514327
0.07085343
0.07309028
0.07536318
0.07167027
0.06881755
0.06351908
0.05268788
0.04682843
0.05380813
0.05724777
0.05865285
0.05895235
0.06233917
0.06813322
0.07138699
0.07097182
0.06783872
0.06309017
0.05811289
0.05206659
0.04818332
0.0468642
0.04565069
0.07598089
0.07105918
0.07149955
0.07311047
0.07877531
0.0735629
0.06920421
0.06128204
0.05763861
0.06265769
0.06492716
0.06576071
0.0663303
0.06656392
0.06637135
0.06852998
0.07025689
0.06772046
0.06464084
0.06431741
0.05954474
0.05289049
0.04940032
0.04808879
0.07518661
0.06918026
0.06950528
0.07374694
0.08250535
0.07514045
0.0685004
0.06300494
0.06160951
0.06515303
0.06684969
0.06783517
0.06904114
0.0700343
0.06942229
0.06828769
0.06818006
0.06728337
0.0681802
0.07041404
0.06448961
0.05465484
0.05212696
0.04805785
0.07436088
0.06640183
0.06592246
0.06933132
0.07268629
0.07564395
0.06671465
0.0608499
0.06177817
0.06430136
0.06564099
0.06694441
0.06877982
0.07045662
0.07044633
0.06864623
0.06654871
0.06897082
0.07214763
0.07220607
0.06801995
0.06165604
0.05896695
0.05659795
0.08557665
0.06960093
0.06180432
0.06320556
0.06689468
0.0732718
0.06393882
0.05729501
0.05971298
0.06172292
0.06301493
0.06467471
0.06690736
0.06877877
0.06885244
0.06701473
0.06577523
0.07056145
0.07748278
0.0739801
0.06527748
0.06579107
0.07175164
0.08979919
0.07542427
0.06070579
0.05893434
0.06000223
0.06910258
0.06211616
0.05560936
0.05624877
0.05819563
0.05962742
0.06153162
0.06370653
0.06518869
0.06455587
0.06446882
0.06864423
0.0734383
0.07711062
0.07488005
0.07019057
0.06992775
0.0732949
0.0850717
0.06716997
0.05987155
0.05646584
0.06240952
0.06107657
0.05867132
0.05181724
0.05375821
0.05416312
0.05661086
0.05858708
0.06043289
0.0608717
0.06814833
0.07388514
0.08168456
0.07985244
0.07051276
0.07333851
0.07854225
0.09646395
0.08239942
0.06548745
0.06004648
0.05485069
0.0570892
0.05472985
0.05010313
0.0517827
0.04796794
0.05142496
0.05352592
0.05648425
0.06181894
0.07017024
0.0760405
0.07178319
0.07195426
0.07572243
0.07994433
0.0936204
0.07670082
0.0620941
0.05691221
0.05257874
0.04727616
0.04835226
0.04777478
0.04607776
0.04763799
0.0492619
0.04895941
0.05265534
0.05892744
0.06532251
0.07314506
0.07659873
0.08133964
0.09427474
0.06916705
0.05697179
0.05117405
0.0462881
0.04289875
0.03942172
0.04148958
0.04225583
0.04494509
0.04564193
0.04851871
0.05820326
0.06875618
0.07682886
0.08277777
0.09475551
0.06277536
0.0513812
0.04343058
0.04023874
0.03751228
0.03736528
0.0389328
0.04119626
0.04326609
0.05066678
0.06503527
0.07550801
0.0851557
0.1068393
0.04307582
0.0387116
0.03646625
0.03663759
0.03865933
0.04159207
0.04720698
0.06131831
0.07912769
0.1028528
0.04127382
0.03503754
0.02247546
0.01336749
0.03063035
0.04461518
0.0539675
0.06253842
0.06194499
0.05962994
0.05702208
0.0420521
0.03251468
0.01614334
0.02044958
0.03370113
0.04618329
0.0547909
0.05847555
0.06591715
0.071095
0.07723754
0.06712986
0.05682634
0.0563783
0.04815479
0.03975112
0.02557922
0.01586441
0.02798716
0.0408607
0.05081177
0.05778287
0.06346976
0.06735081
0.06737927
0.07100027
0.076265
0.05488635
0.04483942
0.05486671
0.05548656
0.05689721
0.04438428
0.03189565
0.0192852
0.02450866
0.03955633
0.04888841
0.05612647
0.06176878
0.06683601
0.07202434
0.07744641
0.07593816
0.06996366
0.07973069
0.09113485
0.04918384
0.04114095
0.04736807
0.0538914
0.05384955
0.05399527
0.04143972
0.02458524
0.02201102
0.0368196
0.0506131
0.05545195
0.05920612
0.06311511
0.06678678
0.06842975
0.07623833
0.07912101
0.08266171
0.07662061
0.0780421
0.08796941
0.06398454
0.04008773
0.03787127
0.04726612
0.05441323
0.05284745
0.0422646
0.02273286
0.02223008
0.03944597
0.05407763
0.06021815
0.06175549
0.0625816
0.06373665
0.06541528
0.06777554
0.07061953
0.07241358
0.08174037
0.08291309
0.07641587
0.07862794
0.0979449
0.04722388
0.03464074
0.03548822
0.04739517
0.04953353
0.03904947
0.02109364
0.02506619
0.0475641
0.061178
0.06782272
0.06718353
0.0657896
0.06463979
0.06407777
0.06314468
0.06355458
0.06481527
0.06778676
0.06963455
0.07907082
0.08030907
0.07505378
0.08026445
0.05710669
0.04062924
0.03157219
0.03485016
0.04137007
0.03370569
0.02439794
0.0331885
0.05441684
0.06747105
0.07428386
0.07683393
0.0741261
0.0694154
0.06435821
0.06206384
0.06016894
0.05913087
0.05788388
0.05805218
0.06090722
0.06301064
0.07258757
0.07421648
0.06541056
0.07810899
0.0672023
0.0509854
0.04161474
0.02763966
0.02907118
0.0267053
0.02482016
0.03947364
0.057569
0.07088932
0.08017264
0.08354152
0.08264988
0.07817581
0.07218713
0.06600986
0.06094488
0.05619957
0.05389998
0.05149311
0.04989984
0.04885851
0.0488094
0.05212091
0.06066782
0.06085695
0.06146429
0.07217073
0.05967162
0.04972703
0.04654036
0.02644828
0.02095191
0.02376781
0.03880393
0.05913236
0.07334595
0.08255319
0.08768601
0.08769247
0.08329952
0.07563065
0.06939224
0.0656666
0.06142344
0.05690584
0.05267956
0.04780719
0.04357631
0.03947165
0.03908371
0.03851586
0.03945516
0.04422566
0.04442132
0.05271506
0.05569358
0.05096761
0.04697012
0.02863439
0.02551987
0.03192155
0.05314337
0.06965457
0.08033007
0.08613917
0.08685248
0.08220711
0.074377
0.07050403
0.06761241
0.06645228
0.06389227
0.05999242
0.05469891
0.04773358
0.03959243
0.0316369
0.02681036
0.02401913
0.02150864
0.02362778
0.02619994
0.03181598
0.06815341
0.0556514
0.05486757
0.05076297
0.04199302
0.03724087
0.03752818
0.05211227
0.06728472
0.07537355
0.07795356
0.07456657
0.06844122
0.06754927
0.07118559
0.07311053
0.07277066
0.07044579
0.06663685
0.06155406
0.0552724
0.04795389
0.03983669
0.03012076
0.02017725
0.01931426
0.02234768
0.03068023
0.03555859
0.04097431
0.06216983
0.0591371
0.05821013
0.05725498
0.05046218
0.05076344
0.04516516
0.04463442
0.05323169
0.05984537
0.05964267
0.05355503
0.05610385
0.06482714
0.0710066
0.07502056
0.07646555
0.0752515
0.07205411
0.06733987
0.06150535
0.05501865
0.04804114
0.04042815
0.03126714
0.02476221
0.02306453
0.02738987
0.03450732
0.04555882
0.06191244
0.05978532
0.06135521
0.06305708
0.06015121
0.05952153
0.05944317
0.05733811
0.04926763
0.0390428
0.03223795
0.02689012
0.04154507
0.0540555
0.06380299
0.07126799
0.07592811
0.07706795
0.07531616
0.07131917
0.06588872
0.06028893
0.05465068
0.04807731
0.04043798
0.03477037
0.03145278
0.0276874
0.02826105
0.03461735
0.06238805
0.06048739
0.06339213
0.06702047
0.06663774
0.06677225
0.0692312
0.07098159
0.06886524
0.0599988
0.04595282
0.03001512
0.03959252
0.0460195
0.05189383
0.06094163
0.07032543
0.07528478
0.07606488
0.07335266
0.0683003
0.0629901
0.05786456
0.0527606
0.04709684
0.04225961
0.03914736
0.03545239
0.03251069
0.02974778
0.06224647
0.0604394
0.06403063
0.06878633
0.06968807
0.07161282
0.07308645
0.07607944
0.07785491
0.07325482
0.06272497
0.04922961
0.05713055
0.06186058
0.06416959
0.06517662
0.06591104
0.06977638
0.07425704
0.07351128
0.06895395
0.06373997
0.05889947
0.05524802
0.05198057
0.04839618
0.0450136
0.04091682
0.03812011
0.03372114
0.06141951
0.05952393
0.06326425
0.06848559
0.06963624
0.07206537
0.07406059
0.07649479
0.07746986
0.07647152
0.0695782
0.06034374
0.06637416
0.06985494
0.0715329
0.0725589
0.07324399
0.07256665
0.07231957
0.07198987
0.06813663
0.06325076
0.06048291
0.05771433
0.05530372
0.05338929
0.04882047
0.04352494
0.04050127
0.03455429
0.06076644
0.05815505
0.0612981
0.06645386
0.06723888
0.06924514
0.07221649
0.07463304
0.07449652
0.07295028
0.06925716
0.06479042
0.06937132
0.07205125
0.07366846
0.07519145
0.07654512
0.07644925
0.07393004
0.07059385
0.06628361
0.06471083
0.06353602
0.0617309
0.05951832
0.05695982
0.05236772
0.0471842
0.04071402
0.03080294
0.0742191
0.06185012
0.05925372
0.06309125
0.06365217
0.0648582
0.06804221
0.06969599
0.06949183
0.06767326
0.06532228
0.06557433
0.06906314
0.07120667
0.07294067
0.07497158
0.07685007
0.07715859
0.07478686
0.0695628
0.06592571
0.06843454
0.06825288
0.06657622
0.06428684
0.0624401
0.05931045
0.05678199
0.05510488
0.05555524
0.06855411
0.05835755
0.06760556
0.0621064
0.06035491
0.06210523
0.06388814
0.06416885
0.06211769
0.0616751
0.06472541
0.06737682
0.06915443
0.07097557
0.07322175
0.07511122
0.07528829
0.07267223
0.06703457
0.06790432
0.0710254
0.07187243
0.07068261
0.06919619
0.06617773
0.06589243
0.06510129
0.06428752
0.07466272
0.06441022
0.07170295
0.06451361
0.06034835
0.0595932
0.06058916
0.05992809
0.05948181
0.06016411
0.06280369
0.0649434
0.0664539
0.06823789
0.07026194
0.07154499
0.0709528
0.06753473
0.06595726
0.07050033
0.0736546
0.07408147
0.07335709
0.07295037
0.07610851
0.07371443
0.06550636
0.06981592
0.09291125
0.07077478
0.06826997
0.07392514
0.06417258
0.06288717
0.06146839
0.06002114
0.05933421
0.0592749
0.05907591
0.06098484
0.06217865
0.06397379
0.06554084
0.06582666
0.06418622
0.06417804
0.06771812
0.0728513
0.07614439
0.07661953
0.07634511
0.07414233
0.07552003
0.07415244
0.06870794
0.07523793
0.07972186
0.0667453
0.07548263
0.07304988
0.06466281
0.06332974
0.06053059
0.05821015
0.0575862
0.05609423
0.05613865
0.05606624
0.05772012
0.05869354
0.05827848
0.05888182
0.05950485
0.06730125
0.07475769
0.07780224
0.07878307
0.07693004
0.08201222
0.07939814
0.06623138
0.07177702
0.07191915
0.0691044
0.07337743
0.07077775
0.06240431
0.06004252
0.05589655
0.05448492
0.05281588
0.05186029
0.0508102
0.05093168
0.05110221
0.0518942
0.05322797
0.05889504
0.06926489
0.07571721
0.07959991
0.07919424
0.085123
0.08256901
0.07204436
0.07340047
0.09004077
0.06874265
0.06498953
0.06932674
0.06585954
0.05732346
0.05391735
0.05018295
0.04842763
0.0469969
0.04563383
0.04490054
0.04539917
0.04617931
0.04906319
0.06024275
0.07211282
0.07896277
0.08096633
0.08833404
0.08587021
0.07519953
0.07441885
0.08241763
0.07056375
0.06321393
0.0593987
0.06253426
0.05613243
0.05306932
0.04457586
0.04313026
0.04103535
0.03953488
0.03894349
0.03915251
0.0407531
0.05085201
0.06644631
0.07560944
0.08244639
0.0921923
0.08982769
0.07969993
0.07860496
0.08257805
0.06671638
0.05863866
0.04949166
0.05213964
0.04874462
0.0416565
0.03739487
0.03498328
0.03364612
0.03331397
0.03418619
0.04340514
0.06002989
0.07441086
0.08951306
0.09431822
0.08553952
0.07877866
0.08152186
0.1006957
0.04765899
0.04409864
0.03902901
0.03659618
0.03224761
0.02947428
0.02833547
0.02820834
0.03462232
0.04901456
0.06451483
0.07628169
0.08165754
0.08526794
0.08789168
0.0937235
0.04185444
0.03753506
0.03227736
0.02758759
0.02602733
0.02454456
0.02830342
0.03994795
0.05595415
0.0718037
0.07901863
0.08691738
0.09821313
0.1138355
0.02618174
0.02407328
0.02614491
0.03540395
0.05042946
0.06768031
0.08413948
0.1076254
0.03548149
0.02605395
0.01127085
0.02679258
0.03956146
0.04877754
0.04071704
0.03283432
0.03883103
0.03903258
0.03334267
0.02460945
0.01190003
0.02624224
0.03942079
0.04496109
0.05133306
0.05404506
0.05904941
0.06172203
0.04512376
0.03384948
0.03198656
0.03822501
0.04282879
0.03803007
0.03468647
0.02380809
0.01459775
0.02891945
0.04144624
0.05093368
0.05856165
0.06451785
0.06271683
0.05860609
0.05991727
0.06839433
0.05018908
0.0372229
0.03465754
0.03536974
0.04617735
0.05081251
0.04333096
0.03631979
0.02296191
0.02412324
0.03342632
0.0432691
0.05309667
0.05828149
0.06542502
0.06704412
0.07032051
0.07324003
0.06383039
0.07096675
0.05151333
0.04424238
0.04125633
0.04012541
0.04162942
0.04861566
0.04949343
0.04400368
0.03356005
0.02196546
0.02942707
0.03843026
0.04710084
0.05484203
0.06141778
0.06636699
0.07022662
0.07152109
0.07886702
0.08044145
0.07100442
0.07072571
0.05707138
0.05225924
0.04602075
0.03863116
0.04024588
0.0476966
0.05272008
0.05005291
0.04167557
0.02996286
0.02465436
0.03359918
0.0439151
0.05077022
0.0558669
0.06181143
0.06701105
0.07165358
0.07537387
0.0761443
0.08132382
0.08234899
0.07873555
0.07640577
0.05870365
0.05762685
0.0549894
0.04193478
0.03616327
0.04479253
0.05424803
0.0554446
0.04839123
0.03467827
0.02793997
0.03241231
0.0445289
0.05118729
0.05447255
0.05688708
0.06089293
0.06564916
0.07024952
0.07468906
0.0785719
0.08090053
0.08042114
0.08806074
0.08134916
0.07808958
0.06251769
0.05656014
0.05969881
0.04791879
0.03865321
0.03809001
0.05190789
0.0572026
0.05250159
0.03764674
0.02439898
0.0305156
0.04651283
0.05694253
0.05880107
0.05879898
0.05869786
0.05917742
0.06223774
0.06627367
0.07090888
0.07555996
0.07935017
0.08195277
0.08151974
0.0869959
0.07737627
0.08448874
0.06315717
0.05450447
0.06379188
0.05505394
0.04523999
0.03188955
0.04381312
0.05381727
0.05259336
0.03734105
0.02351361
0.03492292
0.05370754
0.06413577
0.06695562
0.06521409
0.06291267
0.06112482
0.05944252
0.05870906
0.05980883
0.06394031
0.06884537
0.07373186
0.07788961
0.08074644
0.08369233
0.08693752
0.07271311
0.08445846
0.05251234
0.06180923
0.0614758
0.05087458
0.04089988
0.03111924
0.04422273
0.04771372
0.03386772
0.02756939
0.04511017
0.06262263
0.07202939
0.07628897
0.07501327
0.07097216
0.06678016
0.06359794
0.06095664
0.05896394
0.05696136
0.0554011
0.05777784
0.0633009
0.06886658
0.0737606
0.07478851
0.08247332
0.08009708
0.07217518
0.05838603
0.05128897
0.06038482
0.05531862
0.05003692
0.03606261
0.03065718
0.03798225
0.03195013
0.03440522
0.05204431
0.06830831
0.07906188
0.08429854
0.08463403
0.08093607
0.07544169
0.06982609
0.0650437
0.06105931
0.05825755
0.05603409
0.05426961
0.05253348
0.05038371
0.05390331
0.06046861
0.06602756
0.06726176
0.07071369
0.06587042
0.07516355
0.05476163
0.05617311
0.05790494
0.05599968
0.04885429
0.03616829
0.0309216
0.02815963
0.03582545
0.05546371
0.07171503
0.08307466
0.08981084
0.09137236
0.08824966
0.08146714
0.07492394
0.07198052
0.06830577
0.06430397
0.06036458
0.0561889
0.05180715
0.04794561
0.04790568
0.04715813
0.04551399
0.04841039
0.05404332
0.05710801
0.05975408
0.06036703
0.05101625
0.0606743
0.0583314
0.05643305
0.04942346
0.03995073
0.03468842
0.03522133
0.05108169
0.06843829
0.08124768
0.08915314
0.09170285
0.08868846
0.08057497
0.07701287
0.07377345
0.07322032
0.07102387
0.06720034
0.06187598
0.0552338
0.04783872
0.04103739
0.03768148
0.03888458
0.04024965
0.04073086
0.0398771
0.04164292
0.04608109
0.04510762
0.04924276
0.05958841
0.0571862
0.0582152
0.05323835
0.0466369
0.04686905
0.04437902
0.05252977
0.06794604
0.07826337
0.08282051
0.08125584
0.0742105
0.07241417
0.07595045
0.07835444
0.07855128
0.07653611
0.07259534
0.06704918
0.0603172
0.05286981
0.04474734
0.03574483
0.03108662
0.02870639
0.03262271
0.03706923
0.03902028
0.04273803
0.05041925
0.05570995
0.0494846
0.05689677
0.05931992
0.06039278
0.05816772
0.05240594
0.05710114
0.05620875
0.05196673
0.05546021
0.06395799
0.06558204
0.0609961
0.05933779
0.06835325
0.0747862
0.07920377
0.08121813
0.08047092
0.07718829
0.07181396
0.06517326
0.0582847
0.05131128
0.04386231
0.03523243
0.02869776
0.03005558
0.03817421
0.0473723
0.05484851
0.05755521
0.06449896
0.05119727
0.05206138
0.05646192
0.05965111
0.06228945
0.06253329
0.05941937
0.06284388
0.06795739
0.06759125
0.05970484
0.0471491
0.03859057
0.03425302
0.04396225
0.05660591
0.06638642
0.07413049
0.07937606
0.08127947
0.07969022
0.0750171
0.06855944
0.06223511
0.05631399
0.05028932
0.04369239
0.03627711
0.02968697
0.03068689
0.03729324
0.05080144
0.06246177
0.07152973
0.0502849
0.05121536
0.05613043
0.05958882
0.06327824
0.06531494
0.0648603
0.06570585
0.07290244
0.07829869
0.0771229
0.06932637
0.05560712
0.03908098
0.04331398
0.05053077
0.05508712
0.06239883
0.07214714
0.07817987
0.07953646
0.07631237
0.07020616
0.06432791
0.05925546
0.05464761
0.04983768
0.04445084
0.03809907
0.03091923
0.0283114
0.03407841
0.05312306
0.06710712
0.04980014
0.05034682
0.05531065
0.05877194
0.06298767
0.06607731
0.06720136
0.0678602
0.07267569
0.08042348
0.08374257
0.08060439
0.07112965
0.05750831
0.06131994
0.06682609
0.06983151
0.07149333
0.0723628
0.07398057
0.07655602
0.07565079
0.07018665
0.06482095
0.0605207
0.05727448
0.05429833
0.05068113
0.04509984
0.03705491
0.03106198
0.02501366
0.0345329
0.05379377
0.05107314
0.04932208
0.05379829
0.05710198
0.06135427
0.06482769
0.06660424
0.06825334
0.07144094
0.07677181
0.08175314
0.08181006
0.07615901
0.06610059
0.0710274
0.07522457
0.07752514
0.07898487
0.08003298
0.07986954
0.07734558
0.07367545
0.06875623
0.06408869
0.06059246
0.05860955
0.05731392
0.05525765
0.05144971
0.04523463
0.03756538
0.02727634
0.01658705
0.03350061
0.06518745
0.05296952
0.05339557
0.0550098
0.05871357
0.06196934
0.06371556
0.06553895
0.06818856
0.07199233
0.07529493
0.07687766
0.0740325
0.06914339
0.07435215
0.07767801
0.07979787
0.08162836
0.08326777
0.08355978
0.0811711
0.07432738
0.06634074
0.06274582
0.06109777
0.05964939
0.05904315
0.0579807
0.05546982
0.05097446
0.04402145
0.03146371
0.01094299
0.02060953
0.05866163
0.06340239
0.05598651
0.05795779
0.05827021
0.0595751
0.06096637
0.06362561
0.06658122
0.068082
0.06988433
0.068825
0.07039391
0.074428
0.07711957
0.07921829
0.08143609
0.08349982
0.08406837
0.08171119
0.07405301
0.06465868
0.0635415
0.06332664
0.06250632
0.06145848
0.0603302
0.05860152
0.05685317
0.05248519
0.04645433
0.03417992
0.0654205
0.07236712
0.06289698
0.06221315
0.05975983
0.05886055
0.0578356
0.05897646
0.06091089
0.06223092
0.06451957
0.06646378
0.07045904
0.07339371
0.07549121
0.07747474
0.07975861
0.08173747
0.08208656
0.07939263
0.07099861
0.06423844
0.06614093
0.06765958
0.06791144
0.06775785
0.06777822
0.06711423
0.06559219
0.06489577
0.0607453
0.04578044
0.07820541
0.0727831
0.07117145
0.06919736
0.06676439
0.0636435
0.06033942
0.05813645
0.05924242
0.06027141
0.06326399
0.06676811
0.06943747
0.07150911
0.0731285
0.0748983
0.07687308
0.07825656
0.07795053
0.07455625
0.06551555
0.06473494
0.06887445
0.07092132
0.07187875
0.07253336
0.07293502
0.07256091
0.0705157
0.06762509
0.06274274
0.05589728
0.09386058
0.06896097
0.08097234
0.07326156
0.07296562
0.06985869
0.06634059
0.06305151
0.06091269
0.06138787
0.06310666
0.06518085
0.06661302
0.06808479
0.06934261
0.07089974
0.07237428
0.07296588
0.07196013
0.06790346
0.06309301
0.06667309
0.07143145
0.07380432
0.0751209
0.07599138
0.07595903
0.07462008
0.07004491
0.0691889
0.05863593
0.06155344
0.07079544
0.08216318
0.08262925
0.07428063
0.07363374
0.07023717
0.06675518
0.06315444
0.06070884
0.0610726
0.06236367
0.06297527
0.06357248
0.06419536
0.06535135
0.06623267
0.06624051
0.06502134
0.06090642
0.06165232
0.06922778
0.07394502
0.0765182
0.07796185
0.07834067
0.0772472
0.07221522
0.07371498
0.06966991
0.0566416
0.09215738
0.0709452
0.08421928
0.07529767
0.07415827
0.07141961
0.06808623
0.06428282
0.05990059
0.05785772
0.05866859
0.05901545
0.05890225
0.05878971
0.05907439
0.05927894
0.05911699
0.05809031
0.05677007
0.06412205
0.07213773
0.0768973
0.07960672
0.08057599
0.07973762
0.07703655
0.07552147
0.07235143
0.05734721
0.06194398
0.07643387
0.06927496
0.07808211
0.07049766
0.06987461
0.06717074
0.06348298
0.05899968
0.05446449
0.05373684
0.05416357
0.05371697
0.05305409
0.05251172
0.05205211
0.05165323
0.05141092
0.05634275
0.06886802
0.07633699
0.08092172
0.08310161
0.08290447
0.08056402
0.07478154
0.07218718
0.06268155
0.05873593
0.06741614
0.06970942
0.07112237
0.06436021
0.06375205
0.06077862
0.0563509
0.0513022
0.04817863
0.0479164
0.04733721
0.04618047
0.04499206
0.04403556
0.04419307
0.05015156
0.064077
0.07501352
0.08176755
0.08551628
0.08655191
0.08490885
0.07967828
0.08089893
0.07038986
0.05973775
0.06077611
0.06159188
0.06020279
0.06029194
0.0543986
0.05230532
0.04747442
0.0426498
0.04063462
0.03964493
0.03809852
0.03647822
0.03666657
0.04386437
0.05792358
0.0721313
0.08126963
0.08667223
0.08940833
0.08699829
0.08586214
0.08733871
0.07812106
0.06910676
0.0519543
0.05049054
0.05456619
0.0514582
0.04537203
0.04208879
0.03700618
0.03400648
0.03230608
0.03085011
0.03075924
0.03742785
0.05003228
0.06624318
0.07893371
0.08650659
0.0904083
0.08988438
0.09648598
0.09540899
0.07719293
0.0753504
0.0438138
0.04010971
0.04477688
0.03984461
0.03573141
0.03187869
0.02690609
0.02558754
0.02489448
0.03065376
0.04243573
0.05822557
0.07323766
0.08235871
0.09016071
0.09343632
0.09872338
0.09586738
0.0805401
0.08563292
0.0371896
0.03349814
0.03125857
0.03004423
0.02810273
0.02362402
0.02073069
0.02542537
0.03723241
0.05168958
0.06700264
0.08011694
0.09468718
0.1010893
0.09513938
0.08491734
0.08288075
0.1050678
0.02681265
0.02456146
0.02009091
0.01997353
0.02287703
0.0308862
0.04326854
0.05818649
0.07303754
0.07840297
0.08426112
0.09191405
0.1011101
0.114231
0.03067187
0.03843766
0.05190385
0.06786221
0.0839594
0.1043615
0.01395704
0.01982715
0.02486181
0.01800601
0.01243305
0.02708885
0.0354214
0.03877238
0.04099021
0.04678139
0.03385398
0.02605602
0.0150234
0.01818484
0.0225768
0.02596668
0.02191375
0.01433241
0.0259229
0.0365928
0.04459237
0.04932556
0.04379535
0.04530336
0.04808917
0.04794582
0.04069111
0.0352569
0.02731752
0.01908859
0.02680194
0.03110534
0.029155
0.02487475
0.01932584
0.02514615
0.03729057
0.04470803
0.05048993
0.05202316
0.05328536
0.05554607
0.05421235
0.04966228
0.05780347
0.05205716
0.04127991
0.03871731
0.02898955
0.02368052
0.03104837
0.03454622
0.03343383
0.0273241
0.0226642
0.02894977
0.03613885
0.0460442
0.0523907
0.0563141
0.05865752
0.05920319
0.06209078
0.05728255
0.06244095
0.0592182
0.05704291
0.05460382
0.05373751
0.04354503
0.03840764
0.03069458
0.03051293
0.0376243
0.03922386
0.03654037
0.02947961
0.0294802
0.03352381
0.03763754
0.04558677
0.0530652
0.05827589
0.06201521
0.06516087
0.06716626
0.06647285
0.07119431
0.06510187
0.0609715
0.05843369
0.0588461
0.05977538
0.04952922
0.0443732
0.03738487
0.03078083
0.03728935
0.0427408
0.0422622
0.03686779
0.03094742
0.03437038
0.03751351
0.04174516
0.04550097
0.053077
0.05897696
0.06378528
0.0679371
0.07144668
0.07323471
0.07231172
0.0774108
0.07033849
0.06718812
0.05595519
0.06050805
0.06438245
0.05528333
0.04971809
0.04217219
0.0346887
0.03699733
0.04562147
0.0481736
0.04437865
0.03681319
0.03477216
0.03887357
0.04221514
0.04593338
0.04783046
0.05249634
0.05868137
0.06413363
0.06906633
0.07341885
0.07648169
0.07831388
0.07742896
0.08250539
0.07439001
0.07149837
0.05577188
0.05890065
0.0657764
0.05940784
0.05516597
0.04714479
0.03806308
0.03612403
0.04690929
0.05329337
0.05140886
0.04243636
0.03641341
0.03575777
0.04285002
0.04922868
0.05102331
0.05084
0.05200729
0.05696094
0.06254312
0.06804827
0.07317311
0.07732538
0.08030609
0.08215666
0.0805509
0.08539816
0.07650932
0.07829641
0.05700647
0.06337622
0.0603985
0.05912217
0.05228954
0.0424313
0.03497494
0.04422687
0.0553934
0.05638614
0.04809958
0.03549566
0.03207003
0.04097623
0.05437539
0.0571005
0.05647849
0.0551778
0.05344801
0.05390171
0.05863007
0.06426914
0.07004752
0.0753159
0.0795697
0.08247231
0.08360774
0.08084182
0.08529013
0.0813968
0.04620469
0.05215213
0.05839627
0.06063824
0.05700446
0.04847339
0.03624225
0.03755686
0.05181075
0.0573164
0.04991835
0.03268141
0.03087389
0.04560863
0.06048909
0.06588349
0.06453171
0.06187613
0.05952016
0.05737788
0.05521104
0.05391415
0.05721983
0.0633135
0.06950982
0.07517202
0.07954266
0.0821341
0.08231478
0.07850445
0.07198603
0.07151299
0.04233251
0.04934726
0.0561267
0.05921624
0.05942526
0.05459006
0.04414371
0.03692457
0.04097174
0.05229246
0.04688365
0.0319833
0.03696295
0.0570389
0.06901216
0.07527217
0.07525035
0.07144572
0.06731147
0.06392071
0.06113831
0.05879849
0.05655997
0.05408915
0.05303783
0.05899291
0.06598202
0.07211968
0.07660749
0.07879168
0.07809177
0.07809954
0.07422925
0.07495944
0.04355858
0.05103927
0.05422582
0.05881606
0.05809137
0.05223608
0.03983772
0.037588
0.04054024
0.04028402
0.03640954
0.04719638
0.06601101
0.07751669
0.08434306
0.08586031
0.08282845
0.0775632
0.07212417
0.0674506
0.06480926
0.06153904
0.05863671
0.0567532
0.05473685
0.05213501
0.05090905
0.05894516
0.06558082
0.07010881
0.0720275
0.06933732
0.06753736
0.06727583
0.04172534
0.04971901
0.05538385
0.05851014
0.05740995
0.05099087
0.04090524
0.0387273
0.03299305
0.03819988
0.05396095
0.07137475
0.08356509
0.09132384
0.09411654
0.09202955
0.08600146
0.07931787
0.0770267
0.07380866
0.07119633
0.06701606
0.06238258
0.05780909
0.05421231
0.05364807
0.05196928
0.04907165
0.04852803
0.05583585
0.06083058
0.06331653
0.06138817
0.06273972
0.04251933
0.04149439
0.05014852
0.0558849
0.05871491
0.05764029
0.05146397
0.04443892
0.0423613
0.04115559
0.05218727
0.06962561
0.08299765
0.09194722
0.09575592
0.09406166
0.08707078
0.08254287
0.07930754
0.07944424