/*--------------------------------*- C++ -*----------------------------------*\
  =========                 |
  \\      /  F ield         | OpenFOAM: The Open Source CFD Toolbox
   \\    /   O peration     | Website:  https://openfoam.org
    \\  /    A nd           | Version:  6
     \\/     M anipulation  |
\*---------------------------------------------------------------------------*/
FoamFile
{
    version     2.0;
    format      ascii;
    class       volScalarField;
    location    "50";
    object      Co;
}
// * * * * * * * * * * * * * * * * * * * * * * * * * * * * * * * * * * * * * //

dimensions      [0 0 0 0 0 0 0];

internalField   nonuniform List<scalar> 
203709
(
0.07887826
0.07010179
0.07029428
0.07561789
0.09368435
0.0714925
0.07220182
0.06556819
0.0630898
0.06112521
0.06259374
0.07622379
0.09914536
0.0685704
0.07852221
0.07059237
0.067807
0.06355405
0.05853572
0.05358029
0.05106182
0.05213544
0.0506826
0.0684563
0.0973932
0.08219881
0.07242513
0.07161422
0.0684597
0.06359656
0.05946247
0.05579347
0.05212953
0.04853181
0.0449404
0.04164812
0.0447983
0.05621815
0.08991834
0.07175273
0.06849425
0.06502811
0.06286625
0.0602535
0.05807711
0.05582206
0.0527221
0.04900045
0.04482067
0.04009887
0.03435096
0.03476372
0.06488384
0.06501169
0.05885956
0.05577397
0.05432529
0.05781971
0.06071892
0.06154506
0.06033563
0.05739632
0.05345638
0.04895214
0.04378685
0.03792125
0.03299016
0.03705043
0.03537084
0.03645099
0.03749499
0.03439492
0.04127254
0.0503847
0.05754366
0.06190194
0.06316923
0.06162903
0.05837123
0.05438827
0.04972254
0.04428595
0.03836614
0.03210501
0.0831708
0.05509089
0.03988936
0.02730178
0.01040298
0.01770444
0.03232057
0.04542542
0.05567242
0.06166769
0.0629927
0.06127899
0.05843327
0.05471685
0.05007525
0.04483126
0.04483184
0.05576724
0.08671078
0.07338927
0.06007147
0.05098373
0.03787286
0.03970068
0.0401153
0.03763676
0.0429173
0.0546018
0.06058116
0.06155532
0.06049896
0.05814574
0.0544861
0.04963899
0.04483323
0.04036456
0.09233954
0.07928392
0.06904457
0.06059679
0.04998531
0.05204065
0.05302362
0.05104259
0.04900644
0.04952757
0.05435058
0.05919052
0.06054034
0.05998144
0.05749702
0.05289199
0.04758206
0.0422171
0.1024829
0.08612005
0.07185883
0.0629814
0.05476093
0.05623843
0.05684935
0.0553422
0.05447051
0.05520261
0.05530883
0.05599324
0.05867163
0.06029448
0.05920172
0.05660008
0.06287176
0.07559501
0.09641917
0.07165833
0.06219043
0.05498391
0.05613635
0.05632839
0.05574801
0.05620851
0.05829486
0.05991986
0.05942014
0.05844407
0.05924804
0.05994283
0.06063264
0.06121654
0.1003784
0.07752634
0.06118392
0.05398769
0.05485841
0.05458541
0.05448644
0.05601369
0.05900872
0.06160459
0.06206131
0.06138224
0.06025509
0.06215326
0.07362273
0.09554238
0.08559049
0.05995722
0.05288321
0.05260978
0.05216816
0.0526267
0.05498919
0.05846546
0.06137009
0.06235925
0.06219396
0.06169832
0.06551452
0.06961461
0.08935492
0.06604506
0.05378549
0.05007083
0.04971842
0.05076917
0.05345146
0.05692387
0.05974012
0.06055769
0.0632332
0.06658613
0.08037317
0.1047823
0.08286624
0.05587714
0.05410039
0.04816567
0.04794731
0.05110622
0.0543618
0.05778087
0.06142219
0.07328461
0.0890157
0.1026011
0.0648236
0.04906769
0.0474551
0.05060244
0.05377345
0.06077525
0.07488716
0.09057345
0.05113709
0.05201967
0.05686021
0.06801708
0.03214844
0.02398664
0.02586462
0.04021403
0.0543639
0.05968104
0.06356933
0.06749792
0.07214999
0.07976969
0.03396942
0.03097503
0.01435287
0.02117522
0.03614204
0.05144407
0.0586482
0.0613377
0.0633873
0.06556828
0.06878076
0.07008769
0.07835211
0.09039691
0.03880192
0.02832187
0.0139154
0.01985611
0.04065758
0.05505402
0.05863828
0.06410099
0.06483579
0.06565787
0.06358983
0.06749462
0.06946276
0.07294112
0.07535166
0.08552598
0.03277962
0.0280702
0.02342444
0.02521402
0.04439529
0.05505928
0.06777143
0.06620277
0.06731839
0.06764903
0.06818038
0.07050837
0.06786139
0.06440352
0.06812223
0.07119573
0.07340815
0.08405746
0.02086655
0.02704229
0.03318001
0.03502481
0.04182697
0.06145976
0.06929152
0.07535922
0.0750152
0.06969337
0.0658934
0.06160248
0.06610682
0.06434373
0.06626201
0.0640015
0.06134423
0.06655278
0.06856143
0.07970966
0.02031294
0.0249056
0.03302299
0.04036857
0.05026715
0.06248567
0.07225496
0.07947279
0.07811746
0.07606409
0.07167699
0.06636474
0.0606642
0.05719003
0.05252874
0.05670011
0.05599558
0.05817529
0.05316583
0.05760589
0.06058092
0.07831509
0.02869339
0.03149991
0.03969684
0.05080237
0.06698008
0.07575717
0.07824454
0.07998096
0.07819536
0.07376765
0.06800513
0.06217905
0.05862735
0.05494514
0.05051508
0.04603687
0.04115948
0.04473103
0.04038528
0.04181456
0.04537319
0.05179636
0.04925951
0.02325437
0.03010001
0.04267074
0.05610837
0.07279849
0.07550881
0.07645009
0.07467518
0.07078895
0.0684038
0.06459103
0.0602768
0.05750327
0.05393671
0.04969474
0.04442245
0.03715573
0.03146882
0.02821262
0.02596002
0.02461795
0.02086104
0.009985083
0.05539642
0.03949005
0.03182105
0.0340969
0.04506195
0.06050801
0.06283364
0.06209388
0.06101621
0.06210228
0.06481272
0.06589343
0.06532589
0.06301103
0.05933349
0.0547506
0.04916311
0.04217847
0.03186353
0.02226911
0.01486171
0.01299493
0.01563581
0.01687152
0.0650714
0.05561853
0.04653575
0.04182382
0.03506156
0.03846037
0.04163528
0.04006728
0.045943
0.05478359
0.06142372
0.06573501
0.06774292
0.06727561
0.06466293
0.06083132
0.05606856
0.05016559
0.04308372
0.03418296
0.02668435
0.02251492
0.02394665
0.02442431
0.0727128
0.06673879
0.06504344
0.06432661
0.05100715
0.04301654
0.03169343
0.01581776
0.02162491
0.03692598
0.04888762
0.0582314
0.0647057
0.06772485
0.06731275
0.06491939
0.06129412
0.05656038
0.05112803
0.0449419
0.03988566
0.03341709
0.03241124
0.03189644
0.07744276
0.07316866
0.07434779
0.07641059
0.06923398
0.06139048
0.05412203
0.04203884
0.04011213
0.04291532
0.0429055
0.04602796
0.05515752
0.0635982
0.06678052
0.06664815
0.06452233
0.06072459
0.05583699
0.05009054
0.04447947
0.04025195
0.03967095
0.03916065
0.07913908
0.07484812
0.07756996
0.08049861
0.07665503
0.06975499
0.06417831
0.05499357
0.05345346
0.05614993
0.05606969
0.05518856
0.05433298
0.05736501
0.06303634
0.0660784
0.0658952
0.06295663
0.05812298
0.05228208
0.04733055
0.04497515
0.04486808
0.04469032
0.0785013
0.07310665
0.07335912
0.0749372
0.0801161
0.07270224
0.06626741
0.06000297
0.0593543
0.06118765
0.06104622
0.06068639
0.06119544
0.06182284
0.0615623
0.06338968
0.06560319
0.06349478
0.0595259
0.05915863
0.05353495
0.04876404
0.04823397
0.04807702
0.07666489
0.06996186
0.06950335
0.07260224
0.08075446
0.07238611
0.06438054
0.05992136
0.06051089
0.06175783
0.06185323
0.06226451
0.06387033
0.06567174
0.06576783
0.06408766
0.06389921
0.06299738
0.06254965
0.06411586
0.05987744
0.05201997
0.05030202
0.04933514
0.07515383
0.06647725
0.06523965
0.06793805
0.07349864
0.07265031
0.06278731
0.05772356
0.05974307
0.06062575
0.06090255
0.06194727
0.06425575
0.06674284
0.06751646
0.06624682
0.06395026
0.06375166
0.06853008
0.06782373
0.06211633
0.05568463
0.05354081
0.04992711
0.08659095
0.06974636
0.06080899
0.06137955
0.06770952
0.06979817
0.0603594
0.05570017
0.05786711
0.0586825
0.05921894
0.0607166
0.06332006
0.06586187
0.06666514
0.06541162
0.06301625
0.06623824
0.07255675
0.06865648
0.0602218
0.06005796
0.06705638
0.08538403
0.07660241
0.0612307
0.05895243
0.05945956
0.06801256
0.05917878
0.05514776
0.05479136
0.05601642
0.05690528
0.05865724
0.06106733
0.06308545
0.0630203
0.063152
0.06605209
0.07169979
0.07419768
0.07057093
0.06562855
0.06477669
0.06724734
0.08757576
0.06858271
0.06173493
0.05765663
0.06347745
0.05982417
0.0581279
0.05074661
0.05213853
0.052202
0.05465196
0.05677503
0.05875945
0.05970974
0.06602803
0.07169136
0.07845947
0.07599782
0.06699803
0.06942283
0.07595529
0.09480377
0.08229886
0.06628448
0.06117149
0.05561762
0.05739527
0.05466787
0.04946983
0.05060797
0.04650635
0.04980376
0.05195848
0.05508717
0.06045064
0.06678916
0.07194248
0.06848995
0.06906668
0.07266141
0.07813184
0.09336929
0.07616007
0.0623575
0.05741601
0.05286511
0.04726249
0.04784366
0.04687512
0.04482218
0.04626929
0.04797609
0.04757783
0.05194819
0.05659435
0.06255128
0.07046775
0.07411516
0.08001317
0.09435597
0.0683253
0.05684344
0.05130341
0.04623899
0.04252545
0.03879174
0.04056911
0.04106312
0.04369659
0.04477596
0.04757514
0.05600177
0.06631174
0.07461969
0.0818159
0.09508446
0.06184651
0.05131065
0.04317273
0.03990205
0.03686491
0.03643755
0.03788967
0.04031135
0.04278578
0.04938434
0.06285799
0.07459628
0.08466745
0.105137
0.04240826
0.03830283
0.03583967
0.03581138
0.037797
0.04095576
0.04641863
0.05978293
0.07743664
0.1014327
0.04028136
0.03143594
0.01884275
0.01300822
0.03070369
0.04487794
0.054471
0.06362689
0.06423836
0.06039919
0.05562941
0.03890844
0.02932488
0.017779
0.02257631
0.03465666
0.04692088
0.05554512
0.05925568
0.06658866
0.07197681
0.07823909
0.06856955
0.05809504
0.0558965
0.04560984
0.0355545
0.0240753
0.01919443
0.0297566
0.0430777
0.05231391
0.05909137
0.06472673
0.06852543
0.06855353
0.07207152
0.0770056
0.05357605
0.05028707
0.05549754
0.05562377
0.05404319
0.03946737
0.02597089
0.01996936
0.02773611
0.04265153
0.05173818
0.0582863
0.06372164
0.06876923
0.07414484
0.07954294
0.07771976
0.07146778
0.08105347
0.0921609
0.04689393
0.04155738
0.0482571
0.05427757
0.05005986
0.04724018
0.03228878
0.01831099
0.0253572
0.04222013
0.05347342
0.05754883
0.06167639
0.06558018
0.06940282
0.07117286
0.0790826
0.08212877
0.08553519
0.07892067
0.08006951
0.08954572
0.05673175
0.03373115
0.03731814
0.04753176
0.04996605
0.04579628
0.03069519
0.01613756
0.02795552
0.046943
0.05743795
0.06232664
0.06359278
0.0643892
0.06674301
0.06886624
0.0716998
0.07490848
0.07677238
0.08628459
0.08711547
0.07975346
0.08148401
0.100828
0.04045557
0.02649339
0.03477201
0.04276175
0.04089513
0.02790976
0.02030207
0.03562803
0.05388773
0.06426129
0.06946968
0.06821318
0.06698995
0.06625891
0.06619989
0.06714908
0.06901135
0.07095303
0.07435796
0.07610386
0.085626
0.08615719
0.07953707
0.0836983
0.05297595
0.03473311
0.02183929
0.03026406
0.03188461
0.02907933
0.03420193
0.0413409
0.05815361
0.06957976
0.07479531
0.07667907
0.07394395
0.0695201
0.06567012
0.06445328
0.06362331
0.06353734
0.06496804
0.06759105
0.07061904
0.07219222
0.08153579
0.08187137
0.07086756
0.08283794
0.06489854
0.04809326
0.03588265
0.02200572
0.01899167
0.02457089
0.03676467
0.04836819
0.0609914
0.07179419
0.07935381
0.08174504
0.08065397
0.0767377
0.07178368
0.06693993
0.06312072
0.05934662
0.05788535
0.05746523
0.05773862
0.05950282
0.06234793
0.06439249
0.07208244
0.06944715
0.0682103
0.07937495
0.0590666
0.0488612
0.04366495
0.0259192
0.02042537
0.03205531
0.04829109
0.06278602
0.07405842
0.08094653
0.08455302
0.08421076
0.08069573
0.07530067
0.0694323
0.06524876
0.06202525
0.0582571
0.0542118
0.05016705
0.04881656
0.04868911
0.04866301
0.04943823
0.05411423
0.05794441
0.05391456
0.06172799
0.05690386
0.05310862
0.05006481
0.03346193
0.03110657
0.03602434
0.05448334
0.06922241
0.07804066
0.0822649
0.08242171
0.07884534
0.07597436
0.07258092
0.06840613
0.06509576
0.06189203
0.05778428
0.05263953
0.04711331
0.0423883
0.03906958
0.03782676
0.03746064
0.03376756
0.03501864
0.03606519
0.04266792
0.06986366
0.05801364
0.05850033
0.05652642
0.04796379
0.04519037
0.03963817
0.04721699
0.06123361
0.06764768
0.06954488
0.06813868
0.06889266
0.07058052
0.07181134
0.0716413
0.06984109
0.06643565
0.06178482
0.05592667
0.04863582
0.04006388
0.03149509
0.02551604
0.02160624
0.01896132
0.02090667
0.02342138
0.02593384
0.03160257
0.06427184
0.061983
0.06228854
0.06333705
0.05914968
0.0576497
0.05396749
0.04395079
0.04124804
0.04694477
0.04812774
0.05081858
0.0597387
0.06632645
0.07064315
0.07298159
0.07308286
0.07085076
0.06692852
0.06169035
0.05517327
0.04765835
0.03950404
0.03097583
0.02435308
0.02313933
0.02527404
0.0276879
0.03448846
0.04247695
0.06409547
0.06254882
0.06519165
0.06847411
0.06747277
0.06681898
0.06748508
0.06350164
0.05633504
0.04252888
0.02549427
0.02554628
0.04123129
0.05292235
0.06184736
0.0684606
0.07223621
0.07256648
0.07027663
0.06610911
0.06040066
0.0541388
0.04757914
0.0403664
0.03431331
0.03197974
0.02995042
0.02786473
0.03103004
0.03689957
0.06443063
0.06290319
0.06659755
0.07131972
0.07208983
0.07364455
0.07398905
0.0743051
0.07162269
0.06387047
0.05140594
0.042458
0.04655274
0.04802111
0.04971216
0.05697236
0.06629722
0.07076733
0.07118733
0.06863937
0.06362428
0.05792419
0.05220693
0.0465732
0.04133774
0.03917295
0.03800728
0.0356451
0.03401038
0.03433763
0.06401946
0.06238731
0.06647659
0.0718803
0.07328022
0.07568429
0.07717696
0.0768701
0.07585738
0.07236741
0.06369413
0.05622641
0.06021883
0.06151266
0.06132844
0.06090254
0.06135098
0.06522684
0.06952856
0.06926439
0.06499088
0.05952072
0.05424157
0.05002169
0.04619277
0.04431732
0.04381841
0.04157416
0.04012262
0.03941864
0.06289311
0.06101472
0.06500467
0.07052665
0.07170138
0.07398891
0.07550871
0.07592501
0.07428622
0.07218456
0.06693137
0.06249648
0.06563827
0.06674935
0.06703189
0.06770302
0.06863657
0.06832009
0.06798083
0.068143
0.06479664
0.05947338
0.05527194
0.05193185
0.04995639
0.04816893
0.04725997
0.04517942
0.04375338
0.04228198
0.06201705
0.05930541
0.06248853
0.06771036
0.06824398
0.06977811
0.07195879
0.07324533
0.07026559
0.06763656
0.06512158
0.06415117
0.06663348
0.0677207
0.06858523
0.07025544
0.07228651
0.07292526
0.07112755
0.068126
0.06347732
0.06046645
0.05819021
0.05629319
0.0537263
0.05133608
0.04912895
0.04606044
0.04405105
0.04163207
0.0759692
0.06311826
0.06011941
0.06384365
0.06405157
0.06464352
0.06704316
0.06769191
0.06631629
0.06319154
0.06197851
0.06405359
0.06600658
0.06705047
0.06836066
0.07067123
0.0732695
0.07439359
0.07285493
0.06839612
0.06277804
0.06307668
0.06258753
0.06056059
0.05788398
0.05554517
0.05123996
0.0483743
0.05098407
0.06046988
0.0705173
0.06005234
0.06942731
0.06244972
0.06104855
0.06168147
0.0623538
0.06181758
0.06008011
0.06043691
0.06334496
0.06486595
0.06585252
0.06738983
0.06987568
0.07237852
0.07331237
0.07156519
0.0666226
0.06410275
0.06619051
0.06682005
0.06532103
0.06343368
0.06130225
0.0594087
0.05755518
0.05643369
0.07695682
0.06664457
0.07438626
0.06576114
0.06245549
0.06083908
0.0609866
0.05976716
0.05958132
0.05986248
0.06170081
0.06309219
0.06407039
0.06565423
0.067855
0.06964448
0.06972534
0.06718927
0.06487634
0.06701366
0.06936807
0.06969524
0.06876304
0.06796789
0.0704748
0.0668273
0.05904342
0.06249441
0.09468716
0.07237698
0.07006686
0.07595548
0.06610667
0.06476738
0.06308144
0.06119362
0.05960716
0.05896139
0.05824101
0.05968078
0.06054208
0.06220049
0.06391583
0.06464722
0.06359378
0.06342871
0.06456147
0.06901474
0.07251809
0.07296864
0.07255108
0.07014161
0.07054324
0.06937857
0.06693684
0.07767101
0.08052635
0.06772963
0.07671303
0.07432751
0.0658355
0.06438445
0.06132396
0.05835848
0.05737278
0.05549333
0.05526364
0.05498814
0.0565606
0.05768051
0.05765325
0.05814401
0.05913623
0.06498023
0.07159945
0.07485222
0.07586583
0.07399148
0.07861087
0.07574164
0.06567421
0.07675369
0.07213586
0.0694919
0.0739257
0.07136074
0.0629409
0.06046436
0.05611862
0.05429429
0.05237307
0.05121467
0.05005256
0.05016023
0.05048314
0.0511357
0.05283721
0.05651806
0.06635532
0.07319906
0.07727937
0.07697586
0.08266917
0.07999974
0.06967853
0.0713108
0.08939009
0.06855657
0.06490194
0.06935306
0.06592951
0.05741816
0.05394065
0.04997324
0.04803406
0.04648874
0.04504592
0.04417091
0.04466792
0.04576144
0.04802683
0.05768055
0.06989973
0.07700881
0.07923156
0.0865005
0.08405006
0.07350625
0.07445233
0.08500409
0.06983304
0.06261653
0.05902023
0.06225563
0.05596153
0.0528417
0.04438145
0.0427607
0.04052152
0.03889897
0.0383023
0.03869703
0.04011016
0.04926761
0.06463666
0.07404406
0.08090176
0.09088787
0.08848382
0.07853219
0.07861209
0.08468288
0.06552123
0.05789326
0.04902183
0.0516886
0.04842329
0.04137285
0.03698286
0.03446663
0.03306885
0.03281241
0.03387285
0.04301582
0.05906694
0.073228
0.08843266
0.09329297
0.08455257
0.07827957
0.0811511
0.09994771
0.04695905
0.04357392
0.03859882
0.03611855
0.03175605
0.02897407
0.02785581
0.02785627
0.03467845
0.04904583
0.06408099
0.07559886
0.0809068
0.08464084
0.08729655
0.09311796
0.04143981
0.03709173
0.03174671
0.02712601
0.02556335
0.02417151
0.0286801
0.04085127
0.05643818
0.07180599
0.07875952
0.08645404
0.0978236
0.1136051
0.02601019
0.02376996
0.02683945
0.03703903
0.05190005
0.06862733
0.08451311
0.1078842
0.03668171
0.02856444
0.007375136
0.02330355
0.03818923
0.04915536
0.04825595
0.03881653
0.04381274
0.04260393
0.03603101
0.02755905
0.01034793
0.02316349
0.03794013
0.04426927
0.05069548
0.05416649
0.05931799
0.06253116
0.0433663
0.03552195
0.03775144
0.04362671
0.04709288
0.04089551
0.03668536
0.02547206
0.01448728
0.02693689
0.04053725
0.05061628
0.05890419
0.06490433
0.06289253
0.05861178
0.05963364
0.06846247
0.04775996
0.03465837
0.03422457
0.04077745
0.05048369
0.05350308
0.04450639
0.03697093
0.02514786
0.02462151
0.03208374
0.04301608
0.05326259
0.05871633
0.06574817
0.06752961
0.07083107
0.07349426
0.06385313
0.07053703
0.04831338
0.04042328
0.03612637
0.04178825
0.04684773
0.0522235
0.05074108
0.04355858
0.03193411
0.02519612
0.03023229
0.03854955
0.04756338
0.05574153
0.06242203
0.06741539
0.07120986
0.07233477
0.07949295
0.08093945
0.07119582
0.0704543
0.05333279
0.04753799
0.03995511
0.03743817
0.04362475
0.05224074
0.05434505
0.0489392
0.03849753
0.02874552
0.0267181
0.03448143
0.04541049
0.05202886
0.05754173
0.06351664
0.06876392
0.07336558
0.07695855
0.07746398
0.08234508
0.08312476
0.07930172
0.07644075
0.05507843
0.05300268
0.04891024
0.03497434
0.03641149
0.04981794
0.05589332
0.05344874
0.04376311
0.03022755
0.0270961
0.03339312
0.0464918
0.05262464
0.05620518
0.05850482
0.06338714
0.06828323
0.07296524
0.07736344
0.08103251
0.08303191
0.08210608
0.08940103
0.0823523
0.07850642
0.05919633
0.05288645
0.05437105
0.04128272
0.03015045
0.04277146
0.05354017
0.05428557
0.04566242
0.02750754
0.02183737
0.03462684
0.05077616
0.05891207
0.06020384
0.05979221
0.06052435
0.06206631
0.06604924
0.07035247
0.07506631
0.0795952
0.08300751
0.08504565
0.0839379
0.08901289
0.07858518
0.08533724
0.06046174
0.05187977
0.05972347
0.04980641
0.03755608
0.0294873
0.04505943
0.05017727
0.04249222
0.02683765
0.02478159
0.04450741
0.05858176
0.06622815
0.06803642
0.06595272
0.06343118
0.06157399
0.06124023
0.06223127
0.06583742
0.07018604
0.07500106
0.07950432
0.08292829
0.08484869
0.08674855
0.08955737
0.07424952
0.08618964
0.0507871
0.05933364
0.05792256
0.04596904
0.03303573
0.03000453
0.04044675
0.03607694
0.03105347
0.03742323
0.05291832
0.06554375
0.07340668
0.07634877
0.07469618
0.07064887
0.06657873
0.06363077
0.06126309
0.05950871
0.05957822
0.06244944
0.06699076
0.0719268
0.07655654
0.0800983
0.07958432
0.08627852
0.08284139
0.07348753
0.05726719
0.05030341
0.05866468
0.05297045
0.0459067
0.03390631
0.02771875
0.02835444
0.03241914
0.04499738
0.05778693
0.07060805
0.07901658
0.08291477
0.08261754
0.07904734
0.07410556
0.06936344
0.06546723
0.06220238
0.05988844
0.05784559
0.05608657
0.05607598
0.05976054
0.06510349
0.06982705
0.07319025
0.07244797
0.07493661
0.0663568
0.07149183
0.05434525
0.05583075
0.05750783
0.05530287
0.04729507
0.03775276
0.02783869
0.03098188
0.04685823
0.06157489
0.07399606
0.08253901
0.08736148
0.08813228
0.08536356
0.08024902
0.07435296
0.07026092
0.06729512
0.06380241
0.05979034
0.05564213
0.05412787
0.05321508
0.05206686
0.05058746
0.05380423
0.0583652
0.06135576
0.06254285
0.06293717
0.06235894
0.05122758
0.0611441
0.05920385
0.05779499
0.05164598
0.04402797
0.03940495
0.04024173
0.05522587
0.07027595
0.08071669
0.08668578
0.08831499
0.08586656
0.08223644
0.07929979
0.07545416
0.07256105
0.06984974
0.06603134
0.06106817
0.05534574
0.05121458
0.04726585
0.04677474
0.04650933
0.0448114
0.04357617
0.04252736
0.04838539
0.04976941
0.04567932
0.0499237
0.06068984
0.0588872
0.06097555
0.05760654
0.0511098
0.05358113
0.04756612
0.05082176
0.06445612
0.07261149
0.07615625
0.07477707
0.07566211
0.07616434
0.07762427
0.07789116
0.07662264
0.07361342
0.06907349
0.06315529
0.05596998
0.04802114
0.04020574
0.03628626
0.03332239
0.03470995
0.03516747
0.03489429
0.0307312
0.03236662
0.03998166
0.0566314
0.05047445
0.0584051
0.06155822
0.06375907
0.06319601
0.05874681
0.06245708
0.06323374
0.0547136
0.04925228
0.05274713
0.05551953
0.05560606
0.06425794
0.07097084
0.07540884
0.07807839
0.07869967
0.07692127
0.07302037
0.06737306
0.06035199
0.05271512
0.04479527
0.03646242
0.02920696
0.0296531
0.029993
0.03634133
0.04187261
0.04762177
0.05006727
0.05772656
0.05213269
0.05320445
0.05806365
0.06195177
0.06561284
0.0672623
0.06599044
0.06658708
0.07209754
0.07262883
0.06559184
0.05161213
0.03448314
0.02934063
0.04496251
0.05663958
0.06541719
0.07219279
0.07648946
0.07752526
0.0754205
0.07073727
0.06414895
0.05724042
0.05052959
0.04385784
0.03743325
0.03339698
0.0306067
0.0337383
0.03696095
0.04648218
0.05630507
0.06605287
0.0512454
0.0523268
0.05764442
0.06166746
0.06616047
0.06922385
0.06997276
0.06992581
0.07396257
0.07936196
0.07882783
0.07157698
0.0598531
0.04605376
0.05076204
0.05319154
0.05379582
0.05934476
0.06884699
0.07435261
0.07533192
0.07239544
0.06637949
0.06001864
0.05428387
0.04911729
0.04388983
0.04001929
0.03741412
0.03377146
0.03122824
0.03608158
0.04520098
0.0602146
0.05072768
0.0513661
0.05664529
0.06050147
0.06526433
0.06899199
0.07073833
0.07196921
0.07410063
0.07818275
0.08118087
0.07855207
0.07087134
0.0602736
0.06502483
0.06717417
0.06756972
0.06758313
0.06763299
0.06943815
0.072433
0.07211748
0.06694416
0.06109377
0.0561451
0.05227903
0.04880599
0.04503836
0.04202054
0.03883816
0.03667783
0.03383159
0.03260884
0.04301872
0.05282431
0.0502762
0.05494017
0.05848483
0.06304387
0.06682201
0.06877299
0.07042893
0.07144257
0.07426695
0.07685864
0.07685845
0.0724881
0.06681257
0.07078453
0.0727127
0.07352437
0.07441762
0.07555748
0.07572564
0.07383057
0.07095744
0.06605269
0.06084996
0.05668165
0.05397785
0.05206845
0.04975789
0.04619761
0.04172378
0.03951829
0.03683093
0.02931482
0.03127865
0.06820125
0.05420795
0.05523354
0.05617645
0.05996108
0.06326681
0.06489506
0.06638995
0.06771782
0.06959485
0.07013603
0.07130957
0.06925051
0.06876888
0.07205465
0.07386212
0.07515121
0.07694936
0.07912906
0.08013561
0.07860883
0.07334643
0.06519641
0.05991172
0.05694525
0.05519731
0.05406454
0.05264162
0.0503254
0.04645679
0.04162746
0.03588066
0.0248949
0.02942056
0.06053351
0.06613541
0.05795312
0.05990644
0.06015813
0.06016524
0.06104587
0.06218323
0.06409887
0.06450612
0.06518151
0.06643016
0.06926341
0.07185725
0.07345708
0.07503869
0.07738751
0.08006285
0.08142895
0.08005815
0.0743069
0.06438259
0.05953889
0.05856937
0.05730973
0.05583282
0.05428753
0.052307
0.05016859
0.04585121
0.04039274
0.03531544
0.06749696
0.07483524
0.06540811
0.06488507
0.06250531
0.06047051
0.059156
0.05916307
0.06061098
0.06128373
0.06288764
0.06642234
0.06940853
0.07128482
0.07259622
0.07422802
0.07664919
0.07916363
0.08025247
0.07859567
0.07214192
0.0627932
0.06088335
0.06216895
0.06206537
0.06150959
0.06112475
0.06009068
0.05859218
0.05904309
0.05531451
0.04459574
0.07983264
0.07454332
0.07315284
0.07139533
0.06915369
0.06615533
0.06286156
0.06035175
0.06068664
0.06135948
0.06365684
0.06652484
0.06848522
0.06988384
0.07099867
0.07254599
0.07464641
0.07648422
0.0768361
0.07451816
0.06718338
0.06205772
0.06431278
0.06619764
0.06688875
0.06723876
0.06729951
0.06683411
0.06492174
0.0624904
0.05985614
0.05584733
0.09504987
0.06992221
0.08228513
0.07470429
0.07463604
0.07167212
0.06818047
0.0648277
0.06197866
0.06198995
0.0630593
0.06477025
0.06579478
0.06686437
0.06781692
0.06924415
0.07084707
0.07183831
0.07141994
0.06848517
0.06223178
0.06312877
0.06763136
0.06993594
0.07110998
0.0718256
0.07163205
0.07033686
0.06607396
0.06506875
0.05742561
0.06043933
0.07092319
0.08263056
0.08329599
0.07513633
0.07467075
0.07134666
0.06782756
0.06410144
0.06094836
0.06082318
0.06192598
0.06231469
0.06267823
0.06311681
0.06420697
0.06522848
0.06558819
0.06489729
0.06189084
0.05996949
0.06601282
0.07091825
0.073517
0.07493075
0.07526323
0.07421587
0.06933557
0.07102103
0.06752262
0.05689511
0.09165086
0.07066334
0.08413281
0.07540185
0.07446415
0.07184953
0.06855036
0.06469738
0.06019957
0.05771789
0.05823366
0.05846158
0.05821604
0.05800041
0.05827799
0.05864042
0.05879065
0.05826813
0.05564562
0.06119299
0.06965233
0.07459427
0.07738372
0.07837557
0.07760206
0.07501169
0.07389182
0.07054432
0.05660228
0.0611338
0.07509728
0.06875764
0.07740944
0.07013584
0.0696869
0.0670951
0.063447
0.05894377
0.05420995
0.0533146
0.05367845
0.05315888
0.05244832
0.0519498
0.05166446
0.05155367
0.0510154
0.05437954
0.06679076
0.07449169
0.07924587
0.08150568
0.08138522
0.07913333
0.0734915
0.07084185
0.06235875
0.0591649
0.0667225
0.06871351
0.07018035
0.0637267
0.06325818
0.06038526
0.0560134
0.0509669
0.04779946
0.04745512
0.04684204
0.04568802
0.04458991
0.04383723
0.04390549
0.0493054
0.06252578
0.07357881
0.08046871
0.08434602
0.08546807
0.08389327
0.07873894
0.08006558
0.07170641
0.0649082
0.05955744
0.06031981
0.05925696
0.05944252
0.05378101
0.05175719
0.04697477
0.0422146
0.04017058
0.03916947
0.0376618
0.03618207
0.03656499
0.04376872
0.05725674
0.07120838
0.08034651
0.08582113
0.08865115
0.08630549
0.08508961
0.08675685
0.0788902
0.07214061
0.05030477
0.04948068
0.05365274
0.05065143
0.04472746
0.04148765
0.03642604
0.0335023
0.03183302
0.03044392
0.03098041
0.03806477
0.05040157
0.06607864
0.07849042
0.08599736
0.08990451
0.08942974
0.09601008
0.09497956
0.07758167
0.07731268
0.04282859
0.03933288
0.04399121
0.03924031
0.0351148
0.03118614
0.02634774
0.02509748
0.02536938
0.03190447
0.04368837
0.05898657
0.0734494
0.08226349
0.08989042
0.0931766
0.0985172
0.0955457
0.0802706
0.08534127
0.03662649
0.03275443
0.03061995
0.0294436
0.02759988
0.02321476
0.02144162
0.02737061
0.03917513
0.05335374
0.06808186
0.08060562
0.09489653
0.101138
0.09504722
0.08475377
0.08260428
0.1050149
0.02667908
0.02417879
0.01968122
0.02082563
0.02499364
0.03324458
0.04561412
0.06010908
0.07428187
0.07902291
0.08438134
0.09205165
0.1011791
0.1144604
0.0333902
0.041426
0.0548014
0.07013408
0.08540715
0.105484
0.01912418
0.02329451
0.02389531
0.01796345
0.005558722
0.02330168
0.03354246
0.03787986
0.04101273
0.04808011
0.03589271
0.02987773
0.0209024
0.0221344
0.02694737
0.02649798
0.02286135
0.009565724
0.0218374
0.03457144
0.04410096
0.04908185
0.0434943
0.04453819
0.0477185
0.04861249
0.04115875
0.03643642
0.02962926
0.02397101
0.03123588
0.03523991
0.03194845
0.02831937
0.01700044
0.02182909
0.03518389
0.04385208
0.04980985
0.05176995
0.05309424
0.05564851
0.05405898
0.04924837
0.0568112
0.05139672
0.04059279
0.03897122
0.03030702
0.0276997
0.03466965
0.03706203
0.03549625
0.03018026
0.02335575
0.02611797
0.0344353
0.04537229
0.05222039
0.05631136
0.0586606
0.0591294
0.06163603
0.05702265
0.06146187
0.05854523
0.05504286
0.05268348
0.05180588
0.04183499
0.0374291
0.03130723
0.03497231
0.04081268
0.04109009
0.0376056
0.03232391
0.02954993
0.03112724
0.03686562
0.04540349
0.05332983
0.05871522
0.0624465
0.06544239
0.06724328
0.06630539
0.07069612
0.06453165
0.05993224
0.05561154
0.05603871
0.05673937
0.04647754
0.04131284
0.03498441
0.03370611
0.0422505
0.04566098
0.04337679
0.03726182
0.03497994
0.03424637
0.03610329
0.04145578
0.04600194
0.0539498
0.05999224
0.06477581
0.0687671
0.07203828
0.07354107
0.07234021
0.07708221
0.0699213
0.06630456
0.05296266
0.05731036
0.06071161
0.05146685
0.04535238
0.03757045
0.03245938
0.0427848
0.04981176
0.04965843
0.04361726
0.03748537
0.03742631
0.03907248
0.04206206
0.04629063
0.04894225
0.05410091
0.06041477
0.06586897
0.07066683
0.07475248
0.07748532
0.07897527
0.07775175
0.08247342
0.07424349
0.07099397
0.05290822
0.05586916
0.06209721
0.05544937
0.05037556
0.04142507
0.0315983
0.04052878
0.0520328
0.05494096
0.04990974
0.03856412
0.03656959
0.03623803
0.04315018
0.05012241
0.05183533
0.05165463
0.05368028
0.05962784
0.06529719
0.07073367
0.07561118
0.07937471
0.08188292
0.08326925
0.08124413
0.0857259
0.07665135
0.07855563
0.05439746
0.06022904
0.05691747
0.05471279
0.04661143
0.03495833
0.03507669
0.04978603
0.05669417
0.05343065
0.04085723
0.02952304
0.03142741
0.04314835
0.05575516
0.05820164
0.05725737
0.05578576
0.05489224
0.05728548
0.06277509
0.06845194
0.07402018
0.07884753
0.08248514
0.08469436
0.08520003
0.08187775
0.08591381
0.08132174
0.04451331
0.05007489
0.05578402
0.05725792
0.05245148
0.04200965
0.03353443
0.040387
0.05275539
0.05220217
0.03960275
0.02556823
0.03445099
0.0511954
0.06253828
0.06663872
0.06500967
0.06206241
0.05953541
0.05730619
0.05590939
0.05798988
0.0635496
0.0694046
0.07508251
0.07994535
0.08333947
0.08494797
0.08423761
0.07972009
0.07283625
0.07194568
0.04130148
0.04800466
0.05444218
0.05703492
0.05646867
0.05032627
0.03746928
0.03410363
0.04158548
0.04584384
0.03675571
0.03302037
0.04658663
0.06157794
0.07058054
0.07529892
0.07463963
0.07069606
0.06649351
0.0631475
0.06048397
0.0582629
0.05609913
0.05611287
0.0612308
0.06739941
0.0732585
0.07798997
0.08097916
0.08185625
0.08005719
0.0790946
0.07351655
0.07125956
0.04279665
0.05005886
0.05310058
0.05732603
0.05598795
0.04886482
0.03823812
0.0351216
0.03390164
0.03630028
0.04341522
0.05530956
0.06898244
0.07821425
0.08310772
0.08368327
0.08046002
0.07543598
0.07055489
0.06652325
0.06330529
0.06080428
0.0586949
0.05668354
0.05447034
0.05489439
0.06155468
0.06750801
0.07195543
0.07449604
0.07485062
0.07093611
0.0684473
0.06697723
0.04131368
0.04930726
0.05492336
0.05797195
0.05664692
0.04952853
0.04178895
0.03675064
0.03650338
0.04806248
0.06200924
0.07468388
0.08380039
0.08935911
0.09093761
0.08879232
0.08389871
0.07791981
0.07432716
0.07163897
0.06836932
0.06442511
0.05973021
0.05758331
0.05631412
0.05460733
0.05198056
0.05107716
0.05715673
0.06170564
0.06444972
0.06493126
0.06179034
0.06178318
0.04260013
0.04149827
0.05023642
0.0561344
0.0592197
0.05851537
0.05275848
0.04746692
0.04650224
0.04768544
0.05855178
0.07307489
0.08375772
0.09050487
0.09307186
0.09153379
0.08742979
0.08491803