/*--------------------------------*- C++ -*----------------------------------*\
  =========                 |
  \\      /  F ield         | OpenFOAM: The Open Source CFD Toolbox
   \\    /   O peration     | Website:  https://openfoam.org
    \\  /    A nd           | Version:  6
     \\/     M anipulation  |
\*---------------------------------------------------------------------------*/
FoamFile
{
    version     2.0;
    format      ascii;
    class       volScalarField;
    location    "50";
    object      epsilon;
}
// * * * * * * * * * * * * * * * * * * * * * * * * * * * * * * * * * * * * * //

dimensions      [0 2 -3 0 0 0 0];

internalField   nonuniform List<scalar> 
203709
(
0.01726868
0.01169097
0.0125073
0.02138284
0.01449059
0.009092926
0.007112612
0.006085498
0.006432891
0.008437484
0.01153481
0.01996662
0.01341611
0.008172438
0.006105296
0.004912794
0.004724505
0.004675055
0.004774348
0.00506875
0.005605156
0.007520546
0.01024028
0.01822811
0.01228425
0.005751547
0.004299139
0.003964549
0.003753526
0.003609318
0.003478961
0.003390151
0.003381387
0.003483338
0.003783897
0.004411963
0.006751396
0.01492046
0.006394686
0.00359654
0.003125178
0.002877464
0.002684986
0.002550076
0.002476102
0.002449387
0.002457838
0.002502696
0.002607757
0.00283964
0.00348379
0.007762756
0.007673329
0.003645669
0.002500479
0.002212724
0.002052012
0.002010493
0.002034207
0.00209451
0.002174635
0.002269984
0.002384166
0.002519625
0.002679956
0.002918594
0.003800447
0.007093857
0.003789061
0.002093935
0.001662199
0.001486541
0.001467415
0.00154477
0.001662408
0.00182168
0.001998774
0.002189152
0.002407235
0.002660428
0.00293035
0.003217952
0.003652907
0.005643156
0.01174577
0.005210283
0.002553088
0.001736818
0.00115567
0.001249377
0.001316505
0.001400766
0.001585818
0.001820284
0.002073627
0.002378316
0.002760041
0.003175007
0.003558331
0.003994789
0.005313713
0.01054743
0.006917798
0.003919808
0.002871468
0.002260213
0.00191559
0.001682393
0.001477651
0.001326504
0.001403347
0.001634652
0.001911476
0.002263092
0.002760821
0.003342725
0.003854099
0.004308339
0.005093497
0.00795181
0.006764451
0.003727691
0.00300849
0.002594665
0.002337927
0.002108309
0.001841007
0.001533334
0.001355868
0.001476815
0.00174479
0.002103795
0.002685343
0.0034564
0.004139079
0.00469188
0.005643861
0.00942667
0.01124791
0.004622758
0.003181881
0.002774805
0.002539638
0.002316881
0.002038362
0.001696461
0.001432354
0.001412496
0.001605818
0.001941513
0.002567609
0.003540774
0.00445309
0.005239907
0.007665027
0.01771695
0.006325673
0.003467191
0.002920868
0.002641112
0.002399605
0.002108228
0.001763915
0.001489848
0.001419785
0.001543294
0.001816808
0.002448394
0.003619541
0.004841235
0.006002461
0.0109617
0.01059988
0.004448735
0.003088025
0.002705127
0.002426673
0.002116667
0.001778781
0.001523085
0.001439668
0.00152296
0.001769346
0.002414369
0.003738615
0.005418696
0.008199831
0.019492
0.006107423
0.0033394
0.002789007
0.002434259
0.002095901
0.001774899
0.001551583
0.001468819
0.001533082
0.001781226
0.002527098
0.004048469
0.006329154
0.01208374
0.009986452
0.004335493
0.003011218
0.002516042
0.002116505
0.00180388
0.001598828
0.001516872
0.001588807
0.001889702
0.002903313
0.004878892
0.009183054
0.02150294
0.00893683
0.004974316
0.003293836
0.002311242
0.001933367
0.001697769
0.001617347
0.001758687
0.00224223
0.004448158
0.009313182
0.02129527
0.006967156
0.003855473
0.002692149
0.00196269
0.001889235
0.002522518
0.004199567
0.01103037
0.005545869
0.003329481
0.003375261
0.00589939
0.006920162
0.003999143
0.005084205
0.008995922
0.01017174
0.01127911
0.0123297
0.01348814
0.0152163
0.02577651
0.004827923
0.002515998
0.001606779
0.001632851
0.003182712
0.004676412
0.005459228
0.006076678
0.006674586
0.007354794
0.008249467
0.01096445
0.01524742
0.02604074
0.005379382
0.00240251
0.001509685
0.001385626
0.002020558
0.003013382
0.003785846
0.004310876
0.00475087
0.005275
0.005869554
0.006485663
0.007293994
0.008331957
0.01149591
0.02461372
0.005634333
0.002702178
0.00186334
0.001665898
0.001833374
0.002212561
0.002627447
0.004112667
0.003985461
0.00424146
0.004457025
0.00458437
0.005241298
0.005888705
0.006574498
0.007682875
0.01087302
0.0237713
0.004921903
0.003083861
0.00225042
0.002062283
0.002014939
0.001980878
0.003712336
0.003260972
0.003836727
0.003726038
0.003846469
0.003989575
0.004194314
0.004423079
0.004496788
0.005196428
0.006040734
0.007210471
0.01050557
0.02344318
0.004249709
0.00329574
0.002621222
0.002218054
0.001980977
0.004021295
0.003073611
0.003471499
0.003335491
0.003549938
0.003593436
0.003655533
0.003739434
0.00388008
0.004045681
0.004249902
0.004465058
0.004489273
0.005486319
0.00676633
0.01019602
0.02295585
0.004221617
0.003219097
0.002703035
0.00228521
0.004331402
0.003407607
0.003113899
0.003332776
0.003536778
0.003733586
0.003854619
0.003950493
0.004052624
0.004137605
0.004185376
0.004167066
0.004054401
0.003960472
0.003777753
0.004673651
0.006146413
0.01198991
0.007251374
0.003233279
0.003341775
0.003338595
0.002754034
0.004150298
0.003529766
0.003781249
0.004195331
0.004585762
0.004845033
0.005010809
0.005125911
0.005223052
0.005358074
0.00553977
0.005680505
0.005560815
0.004764508
0.002561188
0.002958639
0.003876705
0.006872959
0.006860953
0.004737981
0.002393761
0.00242485
0.003428675
0.004810045
0.003840016
0.003268132
0.003241366
0.003290918
0.003296896
0.00330164
0.003329258
0.00340491
0.003540428
0.003750694
0.004064789
0.004506916
0.005066948
0.00564717
0.005609518
0.002753487
0.002857306
0.003287116
0.004455377
0.004804153
0.002394918
0.002002485
0.002362946
0.0056085
0.004511378
0.003479934
0.002852309
0.002583079
0.002392496
0.002221863
0.002156778
0.002191906
0.002295592
0.002464104
0.002695241
0.002981692
0.003285274
0.003555159
0.003671517
0.002673835
0.003101167
0.003407344
0.004612024
0.005109139
0.002525904
0.001956387
0.002358759
0.004242741
0.004510205
0.004122708
0.003586464
0.002868404
0.00252951
0.002144815
0.001883151
0.001795289
0.001815627
0.001956357
0.0021941
0.002481793
0.002758396
0.003050209
0.003481593
0.003971863
0.003328828
0.003767546
0.005296377
0.005516754
0.002718859
0.002019486
0.002158249
0.002936282
0.003314249
0.003248974
0.002965154
0.002771903
0.002620398
0.002370753
0.001981955
0.001738588
0.001614903
0.001680582
0.001929117
0.002257499
0.002546482
0.002812362
0.003111435
0.003416981
0.003537028
0.004127331
0.006111286
0.00595174
0.0029565
0.002174616
0.002076462
0.002270833
0.00241042
0.00238559
0.002220987
0.002083913
0.002087038
0.002147369
0.002076204
0.001863961
0.001601237
0.001539525
0.00177582
0.002162679
0.002493508
0.002769077
0.003061195
0.003399996
0.003796125
0.004478051
0.006893447
0.006338847
0.003209555
0.00241376
0.00215574
0.002054948
0.002006971
0.001931722
0.001844977
0.001804867
0.00184984
0.001928824
0.001947818
0.001880646
0.001680811
0.001506166
0.001698879
0.002151784
0.002556224
0.002888853
0.00326357
0.003615355
0.00420553
0.004880542
0.007689004
0.006623589
0.003428853
0.002656256
0.002061465
0.001943097
0.001842392
0.001748623
0.001692378
0.001689418
0.001740595
0.001807759
0.00184583
0.0018389
0.001710747
0.001534535
0.001686658
0.002208188
0.002727957
0.003136699
0.003551805
0.003996325
0.004727873
0.005386629
0.008637409
0.007080703
0.003638397
0.002823429
0.002301046
0.002058297
0.001892495
0.001757078
0.001675622
0.001655545
0.00167723
0.001712393
0.001748725
0.001774371
0.001698747
0.001559944
0.001745126
0.002322383
0.003013215
0.00348809
0.003930157
0.004664424
0.005296308
0.006079444
0.01012353
0.01227399
0.004738641
0.003091086
0.002500813
0.001969277
0.001826177
0.00170787
0.001623363
0.001598355
0.001601734
0.001616997
0.001652783
0.001694227
0.001650481
0.00156074
0.001859
0.002524554
0.003396581
0.003927667
0.004458751
0.005387025
0.006089663
0.008158001
0.01804456
0.007118958
0.003630925
0.002775316
0.002230346
0.001973349
0.001800555
0.001670446
0.001580005
0.001539235
0.001529904
0.001557009
0.001595877
0.001567509
0.001535967
0.002039
0.002844239
0.003902581
0.004446516
0.005316795
0.006214569
0.007215729
0.01188945
0.01396465
0.005375379
0.00332053
0.002530732
0.0019519
0.001744965
0.001587982
0.001488769
0.001424547
0.001403617
0.001427043
0.001459133
0.001452539
0.001503244
0.002322637
0.003268258
0.004540552
0.005145312
0.006380697
0.007518147
0.01035122
0.02153377
0.0136978
0.005391091
0.003319953
0.002496232
0.001953319
0.001547209
0.001400863
0.001291015
0.001259082
0.001261078
0.001282756
0.001338323
0.001501695
0.002686678
0.003889637
0.005321622
0.006498338
0.007886573
0.01109968
0.02331345
0.01310386
0.005173412
0.003174323
0.002368128
0.001851946
0.001464022
0.001150067
0.001116817
0.001094068
0.00112104
0.001295835
0.001524257
0.003082906
0.005223756
0.006762091
0.008235058
0.01193613
0.02557445
0.01187719
0.004738915
0.002903573
0.002143507
0.001637096
0.001298983
0.001071702
0.000959304
0.001005482
0.001286174
0.002177715
0.004536459
0.006926012
0.008976447
0.01280214
0.02813174
0.01021021
0.005065015
0.003014946
0.001917017
0.001494759
0.001270204
0.001214124
0.001355506
0.001886085
0.00363291
0.006806315
0.01129735
0.01771197
0.03106718
0.006245051
0.003218128
0.002586477
0.002321758
0.002361101
0.002831801
0.004500492
0.009027442
0.01494897
0.03016508
0.006981366
0.003443459
0.002326372
0.004649944
0.008092565
0.009977756
0.01198445
0.02077066
0.009509859
0.005471657
0.00457884
0.003238774
0.002292945
0.001819457
0.003011965
0.004842279
0.005859613
0.00685558
0.009269505
0.01212017
0.01368907
0.02292192
0.007996991
0.004013955
0.003041887
0.002665975
0.002339587
0.001998827
0.001729043
0.002965158
0.004237795
0.004955019
0.005546414
0.006130079
0.00679636
0.007673622
0.01033474
0.02087523
0.005607397
0.003931325
0.003483669
0.002838925
0.002380081
0.002475159
0.002626223
0.003336601
0.004663371
0.004229311
0.004450734
0.004737803
0.005032924
0.005340395
0.005648403
0.005846831
0.006885853
0.009349642
0.01327955
0.02242422
0.004984357
0.002531713
0.002634329
0.002839109
0.003092739
0.002833119
0.002695161
0.003419372
0.004864675
0.004826512
0.00437563
0.004338458
0.004431739
0.004576076
0.004761917
0.004999645
0.005317229
0.005797057
0.006173025
0.007437976
0.01041527
0.02233961
0.005731195
0.002330836
0.001972809
0.002769978
0.003974567
0.00364339
0.00325859
0.003915125
0.004291642
0.004297537
0.004360214
0.004187288
0.004118397
0.004133243
0.004221264
0.004362126
0.004546635
0.004786804
0.005107302
0.005475418
0.005869773
0.007240425
0.01051919
0.02329364
0.003393896
0.00172528
0.002114759
0.005158119
0.004888059
0.004070209
0.003493627
0.003108224
0.003296749
0.003661589
0.003942486
0.003949263
0.003905256
0.003899925
0.003965814
0.00408942
0.004249401
0.004447925
0.004690285
0.005003417
0.00539648
0.005856484
0.007495001
0.01374976
0.006255295
0.002368771
0.00148302
0.004906108
0.006920295
0.005143143
0.003241456
0.002550685
0.00262192
0.003081014
0.003397733
0.003704761
0.00378569
0.003782983
0.003792612
0.00386491
0.003974774
0.00411433
0.004287867
0.004488413
0.004731999
0.005062128
0.005501234
0.006099622
0.009363706
0.02123515
0.0084789
0.002982598
0.001719004
0.004193454
0.007127097
0.008673534
0.003974841
0.002810508
0.002779306
0.002757087
0.003092827
0.003404026
0.003677311
0.003792695
0.003843855
0.003912284
0.004023031
0.004147949
0.004280146
0.004407932
0.004540195
0.004705288
0.004921099
0.005232998
0.005708445
0.006490997
0.009926454
0.02225632
0.004962041
0.002254158
0.001515977
0.005585784
0.01220046
0.008468906
0.003702832
0.003222482
0.002991361
0.003137536
0.003495378
0.003880575
0.004206882
0.004426219
0.00458909
0.004752785
0.004916026
0.005037826
0.005102628
0.005128859
0.00511684
0.005088337
0.005119303
0.005136234
0.005167768
0.004922639
0.006460287
0.01170348
0.004528479
0.00211742
0.001778775
0.00346993
0.01059377
0.01235693
0.005264551
0.00420379
0.004017982
0.004379821
0.004961064
0.005562823
0.006007763
0.00631036
0.006549239
0.006786636
0.007071205
0.007435089
0.007786664
0.007913476
0.007646536
0.007137138
0.006988268
0.006816073
0.006685819
0.006625406
0.004516301
0.008239734
0.01047941
0.003718501
0.002089043
0.001845757
0.002487
0.006336683
0.01308769
0.008783139
0.005210538
0.004165708
0.004004733
0.004088639
0.004099707
0.004080062
0.00408856
0.00418372
0.00439572
0.004745583
0.005265757
0.005984468
0.006856635
0.007651532
0.008077582
0.007675315
0.00827353
0.008558154
0.007714786
0.004065102
0.004867157
0.009588185
0.006626096
0.003107494
0.002121349
0.001877384
0.002067821
0.003907963
0.008677216
0.01037991
0.008000055
0.005280089
0.003866081
0.003280035
0.002920293
0.002592059
0.002408801
0.00239688
0.00251597
0.002741527
0.003062855
0.003468936
0.003905912
0.004314541
0.004536106
0.004564082
0.004996488
0.005234812
0.005164418
0.003424028
0.003761262
0.005951137
0.006371365
0.003116076
0.002216574
0.001942893
0.001907921
0.00265961
0.005204105
0.007493323
0.007764501
0.006883809
0.005961862
0.004139901
0.003357606
0.002650665
0.002132672
0.001903883
0.001872567
0.002004416
0.002266628
0.002602086
0.002920584
0.003225378
0.003479263
0.003675689
0.003761935
0.003863191
0.003905659
0.002758627
0.003221821
0.005057711
0.006411197
0.003206534
0.002337106
0.002043717
0.001894652
0.002106368
0.003195742
0.004683466
0.005427248
0.005339158
0.004839805
0.004370038
0.003770997
0.003129192
0.002401981
0.001931735
0.001705301
0.001705634
0.001923696
0.002251055
0.002520748
0.002756551
0.00295183
0.003083331
0.003237739
0.003377233
0.003657707
0.002785119
0.00317428
0.00473044
0.006507442
0.003295371
0.0024462
0.0021539
0.001957673
0.001932259
0.002274438
0.0029409
0.003470268
0.003572273
0.003321008
0.002961824
0.002778755
0.002719745
0.002534242
0.002170999
0.001808555
0.001644133
0.001797241
0.002139867
0.00239267
0.002594013
0.002736291
0.002842769
0.002962512
0.003096919
0.003486445
0.002898528
0.00320943
0.004744378
0.006625601
0.003358693
0.002518303
0.002245216
0.002042284
0.001929152
0.001959181
0.002139398
0.002349484
0.002419612
0.002325293
0.002188034
0.002157422
0.002218345
0.002244779
0.002160875
0.001962109
0.001739245
0.001806372
0.002167862
0.00241948
0.00260894
0.002727639
0.002812737
0.002887181
0.0029916
0.003339301
0.003026312
0.003240773
0.004869919
0.007109615
0.003463135
0.002550569
0.002302979
0.002111573
0.001973916
0.001893574
0.001875522
0.001885659
0.001876749
0.001828207
0.001790888
0.001824671
0.001917071
0.002007119
0.002057452
0.002016334
0.001868478
0.001913514
0.00228862
0.002553194
0.002743412
0.002861375
0.002937709
0.002978727
0.003043474
0.003240099
0.003178299
0.003335701
0.005295011
0.01297527
0.004570901
0.002724931
0.002418586
0.002198513
0.002037029
0.001916192
0.001830257
0.001759182
0.001697644
0.001646499
0.001625751
0.00165506
0.001727326
0.001828068
0.00195161
0.002022407
0.001969906
0.002077607
0.002480655
0.002767303
0.002964098
0.003086202
0.003153103
0.003200027
0.003257682
0.003274741
0.003410585
0.004082235
0.00896984
0.007076659
0.003385795
0.002799466
0.002430063
0.002174247
0.001993498
0.001860333
0.001754404
0.001667766
0.001600291
0.001563097
0.001564265
0.001607999
0.001710478
0.001876068
0.002011127
0.002040486
0.00226551
0.002738452
0.003044231
0.003245377
0.00337568
0.003449531
0.003508678
0.00359277
0.003575896
0.003838135
0.005519782
0.00967216
0.004459749
0.002959138
0.002565758
0.002272318
0.002049715
0.001881147
0.001755423
0.001658222
0.001584724
0.001531423
0.001508276
0.001534815
0.001642483
0.001827863
0.001986131
0.002087394
0.002477277
0.003048478
0.003370319
0.003579232
0.003722158
0.003821299
0.003905403
0.004011479
0.003992953
0.004529083
0.006604439
0.01910417
0.007030322
0.004127608
0.003381259
0.00279393
0.002375206
0.002063759
0.001830198
0.001663357
0.001547004
0.001469554
0.001438664
0.001469439
0.001590772
0.001777429
0.001930786
0.002122062
0.002725957
0.003419567
0.003733027
0.003974278
0.004150116
0.004289866
0.004422978
0.004574071
0.004926012
0.00643437
0.01193546
0.01782552
0.006927389
0.004121951
0.003375974
0.002801648
0.002364502
0.002022017
0.00175833
0.001570247
0.001451984
0.001395258
0.001419399
0.001536268
0.001691635
0.00183146
0.002173175
0.003076619
0.003857257
0.004145575
0.004458783
0.004698635
0.004908067
0.005069146
0.005354269
0.007118826
0.0140166
0.01159081
0.005609994
0.003900428
0.003207867
0.002665618
0.002229768
0.001882076
0.001620102
0.001440343
0.001344388
0.001349744
0.001431737
0.001545582
0.001731622
0.002354809
0.003568682
0.004361078
0.004653029
0.005097479
0.005448197
0.005697065
0.005952387
0.006889643
0.01085549
0.02041818
0.008231321
0.005010198
0.003557402
0.002925344
0.002414001
0.00199209
0.001663192
0.001432503
0.001296612
0.001254726
0.001289897
0.001393792
0.00171662
0.002755402
0.004189743
0.004995447
0.005312825
0.005991769
0.006434274
0.006822095
0.007829066
0.01048511
0.02034087
0.0177316
0.007325377
0.004498204
0.003178925
0.00255408
0.002034783
0.001658668
0.001389446
0.001224073
0.001147096
0.001158177
0.001303012
0.001881757
0.003393789
0.004893826
0.005876981
0.00619449
0.007209922
0.007864719
0.009372439
0.01227957
0.0244762
0.01502106
0.007622251
0.004525927
0.002762814
0.001908371
0.001560991
0.001275983
0.001083636
0.0009914475
0.001020215
0.001280033
0.002296374
0.004101971
0.00582514
0.007101925
0.007328995
0.008945158
0.01275683
0.01877878
0.02976568
0.008983642
0.003755872
0.002241116
0.001594085
0.001164844
0.0009191431
0.0008243129
0.0008996186
0.001368614
0.002740871
0.004866164
0.00702053
0.008998318
0.0105953
0.01464859
0.03138069
0.00687926
0.003455119
0.002561216
0.001649714
0.001155125
0.001105779
0.001380938
0.002451045
0.004719542
0.007743894
0.01236215
0.01851514
0.02191639
0.03769853
0.003525704
0.002226378
0.002372077
0.00347733
0.006454117
0.01157019
0.01784918
0.03539679
0.00454345
0.003294568
0.003594356
0.005574304
0.007335598
0.01310336
0.003986103
0.002736226
0.002617984
0.002412719
0.001947182
0.0023151
0.002925167
0.00355539
0.004445656
0.006326645
0.008879236
0.00991379
0.01098758
0.01736918
0.002970201
0.00188524
0.001680112
0.001576174
0.001524543
0.001702233
0.00202045
0.003507767
0.005604708
0.003982088
0.004429583
0.005239844
0.005892942
0.005505215
0.006108424
0.007947324
0.01076272
0.01789355
0.003206938
0.001492802
0.001261265
0.001801818
0.002211021
0.002241081
0.002057368
0.002153211
0.003563583
0.006752629
0.004666912
0.00443635
0.004720708
0.004973004
0.005085827
0.005434755
0.005915596
0.005981214
0.008149874
0.0158427
0.00393262
0.001564622
0.001155732
0.001952558
0.00212138
0.002147805
0.002107539
0.002123718
0.002408108
0.004190527
0.007705279
0.005228693
0.004476742
0.004485274
0.004580322
0.004686394
0.004852083
0.005056167
0.005233048
0.005484712
0.007590192
0.01507967
0.005117935
0.001787932
0.001688235
0.00212639
0.002449006
0.002656488
0.002643824
0.002566294
0.00258968
0.003136071
0.005696568
0.008542094
0.005469281
0.004502339
0.004343276
0.004352813
0.004412485
0.004508525
0.004653399
0.00489825
0.005309601
0.00618705
0.007306668
0.01511547
0.006474145
0.00221624
0.001696502
0.001763793
0.002369937
0.003113218
0.003464893
0.003418785
0.00328558
0.0034456
0.004825649
0.007347128
0.007701276
0.005358005
0.004450563
0.004210928
0.0041792
0.004214839
0.004288401
0.004405727
0.004598147
0.004917315
0.005449293
0.006174437
0.00746434
0.01591585
0.008095381
0.002838805
0.001982567
0.001703173
0.002089832
0.00318039
0.004344281
0.004631034
0.004437442
0.004698345
0.005676083
0.00565153
0.006532903
0.00638223
0.004996838
0.004308351
0.004071591
0.004029053
0.004067428
0.004144391
0.004255115
0.004416534
0.004652522
0.005008053
0.005553314
0.006427285
0.008064267
0.0176826
0.009999652
0.003600078
0.00190874
0.00170345
0.001774279
0.002568345
0.004627199
0.006184901
0.005957738
0.005456806
0.00485269
0.004398743
0.004803676
0.005404152
0.005314147
0.004596636
0.004146881
0.003968267
0.003935078
0.00398148
0.004073885
0.004192117
0.004338013
0.004521638
0.00475718
0.005073176
0.005499861
0.005796583
0.008864702
0.02082409
0.005335141
0.002450788
0.001889353
0.001671626
0.001951936
0.003461716
0.007105803
0.008544283
0.005690003
0.003732196
0.003288663
0.003631464
0.004173452
0.004633212
0.004642812
0.004314335
0.004070354
0.003979245
0.003981942
0.004037384
0.00412425
0.004241989
0.00437852
0.004528846
0.004694768
0.004882272
0.005141788
0.005489065
0.006286569
0.01152746
0.009246901
0.003582224
0.002454418
0.001883191
0.001688222
0.002294446
0.004769975
0.0118042
0.00776839
0.003904728
0.003051579
0.003066854
0.00346835
0.003949455
0.004313686
0.004393379
0.004288344
0.004212287
0.004224445
0.00429031
0.004381189
0.004472214
0.004554537
0.004626154
0.004716767
0.004816138
0.004910258
0.005009043
0.00523166
0.005905949
0.008044347
0.01849633
0.005550474
0.00266802
0.002191472
0.001811596
0.001661909
0.002406732
0.007999193
0.01435332
0.005645825
0.003653387
0.00328532
0.003467327
0.003888936
0.004369749
0.004762437
0.004985149
0.00509946
0.005219562
0.005358785
0.005449449
0.005468478
0.005445439
0.005439184
0.005433935
0.00543297
0.005368629
0.005266998
0.005190439
0.005109517
0.005248615
0.005662422
0.009904263
0.005029657
0.002446557
0.002078455
0.001786238
0.001650695
0.002085352
0.006972226
0.0169355
0.007777568
0.004978341
0.00454782
0.004855896
0.005475294
0.006163825
0.006711176
0.007061454
0.007323687
0.007583005
0.007896692
0.008302453
0.008686163
0.008815567
0.008569306
0.00815245
0.007812566
0.007400519
0.006936846
0.00641708
0.005695219
0.005088575
0.004556544
0.007219004
0.004757415
0.002954613
0.002256217
0.001883034
0.001697071
0.001887564
0.004663643
0.01434801
0.01233993
0.006797019
0.00498304
0.00459764
0.004668414
0.004699054
0.0046649
0.00466376
0.004769993
0.005038229
0.005496046
0.006165124
0.007050558
0.008069533
0.009027272
0.009749744
0.009969578
0.01026386
0.009724094
0.008509728
0.006921828
0.006217343
0.005957915
0.00589519
0.009418953
0.003748562
0.002826482
0.002303325
0.001981032
0.0017784
0.001809484
0.003166154
0.008778275
0.01225911
0.01047748
0.00689379
0.004776414
0.003849035
0.003378837
0.002953255
0.002698229
0.002666288
0.002821861
0.003132776
0.003584509
0.004153002
0.004735846
0.005245671
0.005629537
0.006011658
0.006615241
0.007219637
0.007290922
0.006580154
0.006345443
0.005971954
0.005132845
0.01317643
0.005872594
0.002975703
0.002566993
0.002268895
0.002048009
0.001873828
0.001816784
0.002384224
0.005121765
0.008212648
0.009271955
0.008654482
0.007740396
0.005269525
0.004096154
0.003139161
0.002429881
0.002099317
0.002051674
0.00221644
0.002562032
0.003033944
0.003473659
0.003812747
0.004049388
0.004242113
0.004427415
0.00455462
0.004605515
0.004863111
0.005526558
0.005488093
0.004280986
0.007949415
0.005568661
0.002847577
0.002493726
0.002269881
0.00211423
0.00197987
0.001888178
0.002057412
0.003195875
0.004985101
0.006210639
0.00648157
0.006144016
0.00569557
0.004817727
0.003837035
0.002841749
0.002179679
0.001894206
0.001881328
0.002132426
0.002574625
0.002956067
0.003198801
0.003340615
0.003426206
0.003534417
0.003589206
0.003611728
0.003621712
0.003887346
0.004163198
0.003071403
0.005867095
0.005630752
0.002837676
0.002501707
0.002304296
0.002185046
0.002087189
0.001996282
0.001993749
0.002359008
0.003142452
0.003881619
0.004199362
0.004060564
0.003649827
0.00337928
0.003223679
0.00293826
0.00247015
0.002053071
0.001857435
0.001997081
0.002432922
0.002796719
0.002979399
0.003052527
0.003068356
0.003078042
0.003065406
0.003062509
0.002985091
0.00288469
0.002968149
0.001947658
0.003766733
0.006048107
0.002915902
0.002562351
0.002364632
0.002257083
0.00218177
0.002105523
0.002046282
0.002095377
0.002329153
0.00261921
0.002773516
0.002720733
0.00254401
0.002461256
0.002481727
0.002486761
0.002382116
0.002193758
0.002002989
0.002043442
0.002470172
0.002833532
0.002967863
0.002997167
0.002969962
0.002914068
0.002830827
0.0027398
0.002584974
0.002345436
0.002416791
0.001698362
0.002943822
0.01108551
0.003885044
0.003038936
0.002617056
0.002410169
0.002291372
0.002201163
0.002120685
0.002066727
0.002073529
0.002120703
0.002133896
0.002084992
0.002013876
0.002004992
0.00206547
0.002144794
0.002200588
0.002206789
0.002144326
0.002207568
0.002622374
0.002990202
0.003078512
0.00307701
0.003025397
0.002933482
0.002795988
0.002614756
0.002381375
0.002075003
0.002031799
0.001952825
0.004641954
0.006206292
0.004062082
0.003211288
0.002745682
0.002483218
0.002314341
0.002190664
0.002092458
0.002026052
0.001979187
0.001926122
0.00185997
0.001806254
0.001794666
0.001833979
0.001918719
0.002048178
0.002178475
0.002244833
0.002409018
0.002868371
0.003215105
0.003264909
0.003246701
0.003183922
0.003079568
0.002907902
0.002668151
0.002367516
0.002052085
0.001864525
0.002607356
0.008288541
0.003824879
0.003277982
0.002905785
0.002639148
0.002426368
0.002257626
0.002127355
0.002035275
0.001963728
0.001890297
0.001809905
0.001739482
0.001699019
0.001706496
0.001785441
0.001951376
0.00215013
0.002320614
0.002626498
0.003166093
0.003473502
0.003502361
0.003486985
0.003426112
0.003320488
0.003134165
0.002867256
0.002511524
0.002175291
0.001829431
0.003107864
0.01102553
0.005042188
0.004177496
0.003576289
0.003148875
0.002808027
0.002518938
0.002277559
0.002097012
0.001964622
0.001852715
0.001752532
0.001669164
0.001615349
0.001614161
0.001700746
0.001889151
0.002124161
0.002391261
0.002872702
0.003486702
0.003742171
0.003771866
0.003755196
0.003706037
0.003611262
0.003426354
0.003154616
0.002758536
0.002421797
0.00214791
0.003711104
0.01985117
0.007428224
0.005458779
0.004401949
0.0037446
0.003283076
0.002900987
0.002564378
0.002271815
0.002043581
0.001859273
0.001708042
0.001591854
0.001523932
0.001525607
0.001627362
0.001829981
0.002093612
0.002486036
0.003174865
0.003806969
0.004026759
0.004044724
0.004032528
0.004001138
0.003931875
0.003766001
0.003514258
0.003073299
0.002750616
0.00298151
0.006216693
0.01218787
0.00601163
0.004931111
0.004206969
0.003692767
0.003280977
0.002908555
0.002557927
0.002239599
0.001975972
0.001755518
0.001585322
0.001481398
0.001466443
0.00156377
0.001766028
0.002077821
0.002659754
0.003554625
0.004131478
0.004306596
0.004335313
0.004334428
0.004328447
0.004309838
0.004183523
0.003983337
0.00341308
0.003034247
0.004393391
0.02180085
0.008877951
0.005493218
0.004731278
0.00412447
0.003638569
0.003213579
0.002814724
0.002432343
0.002096484
0.001813847
0.00159214
0.001451128
0.001415519
0.001499955
0.001712863
0.002133256
0.002979794
0.004003177
0.004474637
0.004627234
0.004682128
0.004703506
0.004741696
0.004825332
0.0047694
0.004602449
0.003934052
0.004599886
0.00792053
0.01908304
0.008188095
0.006093973
0.004870792
0.00405815
0.003470643
0.002987234
0.002551121
0.002158169
0.001834228
0.001579443
0.001415474
0.001366513
0.001452237
0.001712258
0.002323318
0.003478734
0.004483317
0.004844129
0.005026647
0.00513417
0.005198464
0.005312534
0.005598937
0.005694299
0.005736568
0.006141975
0.009963201
0.01646344
0.007231818
0.00540457
0.004339262
0.003584216
0.003017192
0.00254332
0.002127139
0.001786658
0.001529462
0.001366491
0.001325327
0.001436865
0.001790833
0.002705423
0.004115751
0.00499699
0.005300251
0.005540994
0.005756672
0.00589604
0.006126358
0.006837884
0.007120381
0.007733422
0.01366503
0.0140902
0.006247441
0.004610582
0.003583687
0.002936886
0.002422927
0.002005284
0.001668541
0.001426758
0.001287988
0.001278408
0.00144201
0.001985334
0.003291281
0.004765609
0.005637645
0.0058763
0.006235656
0.006662025
0.00692782
0.00731257
0.0087853
0.009803433
0.01788383
0.0116166
0.005207604
0.003219518
0.002631062
0.00218926
0.001803596
0.001486707
0.001279002
0.001198088
0.001233941
0.001495251
0.002383738
0.00395182
0.005560711
0.00651061
0.006658707
0.007240003
0.008091753
0.008365166
0.008903603
0.01231754
0.02328756
0.009164472
0.004061573
0.002492409
0.002038767
0.001604441
0.001294376
0.001172401
0.001151361
0.001223493
0.001695481
0.002915355
0.004768755
0.006639891
0.007959391
0.007847585
0.008785131
0.01034503
0.01065491
0.01482113
0.02997257
0.007270824
0.003670366
0.002268103
0.001426691
0.001075473
0.001209544
0.001178581
0.001282614
0.002010472
0.003594492
0.005800765
0.008373636
0.01059537
0.009557258
0.01097131
0.01468368
0.02184882
0.03758946
0.004007128
0.002228472
0.001824707
0.001646157
0.001309278
0.00140427
0.002383375
0.004361948
0.007062821
0.01135252
0.01711211
0.01991808
0.02314692
0.03855649
0.003567443
0.003650018
0.006260261
0.01067208
0.01629171
0.03249385
0.002087294
0.001446758
0.00199773
0.002887362
0.003044244
0.004141354
0.00503797
0.006000958
0.007273179
0.01238665
0.001425781
0.0007603238
0.0008163313
0.0008619619
0.0008561736
0.001719044
0.002780957
0.003038739
0.003289469
0.003770469
0.004260703
0.00428757
0.005891579
0.00797621
0.008562864
0.0132577
0.001697129
0.0007072117
0.0007866707
0.001086181
0.001312482
0.001443956
0.001600445
0.002909199
0.003796942
0.003442192
0.003595358
0.0039653
0.004335944
0.005067068
0.005671891
0.00578188
0.006136615
0.01139648
0.005361918
0.001884058
0.0009988195
0.0008345512
0.0009529848
0.001147795
0.001296405
0.001460105
0.001789862
0.003440206
0.005516553
0.004030031
0.003805889
0.004012451
0.004322439
0.004656839
0.004870257
0.004962599
0.005195548
0.005843441
0.007583778
0.01216604
0.007392409
0.002158404
0.001392445
0.001034734
0.001086153
0.001392338
0.00167047
0.001794423
0.00187099
0.002115879
0.00350856
0.006749544
0.005004509
0.004171978
0.004168066
0.004348047
0.0045003
0.004562833
0.004573679
0.004666095
0.004936871
0.005432223
0.005845315
0.0122866
0.008553875
0.002907818
0.001844387
0.001307338
0.001221152
0.001583172
0.002032962
0.002245218
0.002273065
0.002301126
0.002596922
0.004035815
0.007606282
0.006052618
0.004588167
0.004337005
0.004369877
0.004416001
0.004408273
0.004382282
0.004405127
0.004508041
0.00473962
0.005073127
0.005782485
0.01200602
0.009038866
0.00344618
0.002358631
0.001646109
0.001364272
0.001617342
0.002271561
0.002833239
0.003006639
0.0029419
0.002879549
0.003215962
0.004919922
0.008540258
0.006709155
0.004940535
0.004485984
0.004376276
0.004351636
0.004313998
0.004282545
0.004292344
0.004352254
0.004471566
0.004687719
0.005107954