/*--------------------------------*- C++ -*----------------------------------*\
  =========                 |
  \\      /  F ield         | OpenFOAM: The Open Source CFD Toolbox
   \\    /   O peration     | Website:  https://openfoam.org
    \\  /    A nd           | Version:  6
     \\/     M anipulation  |
\*---------------------------------------------------------------------------*/
FoamFile
{
    version     2.0;
    format      ascii;
    class       volScalarField;
    location    "50";
    object      epsilon;
}
// * * * * * * * * * * * * * * * * * * * * * * * * * * * * * * * * * * * * * //

dimensions      [0 2 -3 0 0 0 0];

internalField   nonuniform List<scalar> 
203709
(
0.01715498
0.01152087
0.01218516
0.02069483
0.01476882
0.009189265
0.007072073
0.005961456
0.006210427
0.008027385
0.01073673
0.01837837
0.01391181
0.008428219
0.006249788
0.004963144
0.004692299
0.004549872
0.00453994
0.004701529
0.005058734
0.006632954
0.008336725
0.0149016
0.01304453
0.006135393
0.004595423
0.004208349
0.003935122
0.003713296
0.003482405
0.003232714
0.003069653
0.003038208
0.003188785
0.0035782
0.005214251
0.01044485
0.007362077
0.004185018
0.003633861
0.003305875
0.003003794
0.002688308
0.002464227
0.00240373
0.002427158
0.002507599
0.002644887
0.002848242
0.003234741
0.005673477
0.009675958
0.004477237
0.003070003
0.002623059
0.002291517
0.00203022
0.001973502
0.002048852
0.002176592
0.00234274
0.002553205
0.002808203
0.003092584
0.003456525
0.00458846
0.009435502
0.004952791
0.002724738
0.002133675
0.001751274
0.001513081
0.001501148
0.001633494
0.001822485
0.00204628
0.002301374
0.002614147
0.002994863
0.003392167
0.003794255
0.004380446
0.007071068
0.01364963
0.00489877
0.002362911
0.001612734
0.001179114
0.001089663
0.001236206
0.00139154
0.001607047
0.001874537
0.002177342
0.00256686
0.003079544
0.003614077
0.004080761
0.004604275
0.006220697
0.01311968
0.00783966
0.004017452
0.002638882
0.001891971
0.00142813
0.001269655
0.001281527
0.001313234
0.001445272
0.001695847
0.002005609
0.002432032
0.003071289
0.003770064
0.004338557
0.004841306
0.005717447
0.009355203
0.007348908
0.003974459
0.002964287
0.002373987
0.002028266
0.001838527
0.001675227
0.001493629
0.001404261
0.00154876
0.001832361
0.002254777
0.002994999
0.0038882
0.004602358
0.005188087
0.006217176
0.01066485
0.01172893
0.004914778
0.003291344
0.002758936
0.002467624
0.00224759
0.002004645
0.001718047
0.001496779
0.001489617
0.001691031
0.002076078
0.00288019
0.003992326
0.004906814
0.005725673
0.008317755
0.01930731
0.006613911
0.00361634
0.003005958
0.002694678
0.00244688
0.002163578
0.001835009
0.001568822
0.001496643
0.001625998
0.00193823
0.002761881
0.004105386
0.005294196
0.006502499
0.0118918
0.0108719
0.004604456
0.003197109
0.002798684
0.00251364
0.002201029
0.001861271
0.001599255
0.001509502
0.001600157
0.00188721
0.002722162
0.004274155
0.00588748
0.008816106
0.02088297
0.006247942
0.00343028
0.002874762
0.00251538
0.002172472
0.001845496
0.00161471
0.001528658
0.001605169
0.001900442
0.002858258
0.004623588
0.006833242
0.01294775
0.01014161
0.004426654
0.003086898
0.002586186
0.002178766
0.001859625
0.001649502
0.001568879
0.001659984
0.002019199
0.003298955
0.005512901
0.009843918
0.02287366
0.009085165
0.005087154
0.003376328
0.002372728
0.001987876
0.001744651
0.001668021
0.001838905
0.002400496
0.005065097
0.01034158
0.02274546
0.007083179
0.003939478
0.002758108
0.002012411
0.001948767
0.002640248
0.004505339
0.01255586
0.005644487
0.003407724
0.003484299
0.006183552
0.007123241
0.003880681
0.004810923
0.009405881
0.01028548
0.01111816
0.01224599
0.01348037
0.01530808
0.02612123
0.005231773
0.002819698
0.002076169
0.001535904
0.00312186
0.004808881
0.005430967
0.005972042
0.006590105
0.007300344
0.008237242
0.01101702
0.01537224
0.02645871
0.005562028
0.002522969
0.001689108
0.001347346
0.002008633
0.002988557
0.00379445
0.004248462
0.004646466
0.005164154
0.00575927
0.006389917
0.007224458
0.008308593
0.01156662
0.02483989
0.005449478
0.002701284
0.001895461
0.001653749
0.001885826
0.002204467
0.002640233
0.004037878
0.003946624
0.00415562
0.004336264
0.004432574
0.005066745
0.005708403
0.006415888
0.007571309
0.01083469
0.02370208
0.004761936
0.002769121
0.002201086
0.002020524
0.001996881
0.002007901
0.003574431
0.003243192
0.003794298
0.003694601
0.003770522
0.003862824
0.00402649
0.004201874
0.004210488
0.004871613
0.005707784
0.006922019
0.01027016
0.02285993
0.004399135
0.002628503
0.00248789
0.002254945
0.002035834
0.003841692
0.002892676
0.003403535
0.003317919
0.003549674
0.003588065
0.003648447
0.003742821
0.003878656
0.004008884
0.004156359
0.004219607
0.003848496
0.004743959
0.006085321
0.009598676
0.02149087
0.004044339
0.0025763
0.002648014
0.002282329
0.004378748
0.003436463
0.003119877
0.003439443
0.003778932
0.004217696
0.004649058
0.005039158
0.005302751
0.00546184
0.005541697
0.005547167
0.005283841
0.004418999
0.002791018
0.00339923
0.004593351
0.0101296
0.007090589
0.003042688
0.003222914
0.003062765
0.002536023
0.004333642
0.003533312
0.003760239
0.004263455
0.004796773
0.00510218
0.005011902
0.004739845
0.004476372
0.004329008
0.004310787
0.004378448
0.00441978
0.00419849
0.002434922
0.002614458
0.002885725
0.003762186
0.005349347
0.004685541
0.002211984
0.00276513
0.003255969
0.004334911
0.003836568
0.003324129
0.003331398
0.003365472
0.00320798
0.002918495
0.002759672
0.002684256
0.002683769
0.002748974
0.002877959
0.003050297
0.003239868
0.003471999
0.003753532
0.002687663
0.003097093
0.003310121
0.004252498
0.00475399
0.002261091
0.00209137
0.002825619
0.004857105
0.003666831
0.00292471
0.002503646
0.002230252
0.002047402
0.001982079
0.001964231
0.001987484
0.002053939
0.002193093
0.002398031
0.002628758
0.002859748
0.003111035
0.00336862
0.002698155
0.003403495
0.003673391
0.004786757
0.005025797
0.002438894
0.001923442
0.002908513
0.005027654
0.004107688
0.00298451
0.00220085
0.001935909
0.001915166
0.001840697
0.001762588
0.00172557
0.00173655
0.001873547
0.002127492
0.002403611
0.002653504
0.002946004
0.003532031
0.004237995
0.003581066
0.004042011
0.005641067
0.005387865
0.002644613
0.001975067
0.002505274
0.003889828
0.003859599
0.003240079
0.002592975
0.002154363
0.002048518
0.001993763
0.001849277
0.00171908
0.001608837
0.001678893
0.001963558
0.002293069
0.002564033
0.002819415
0.003125577
0.003445695
0.00375714
0.004364814
0.006456935
0.005789613
0.002875222
0.002126697
0.002254065
0.002878204
0.003107204
0.002891578
0.002511682
0.002202216
0.002083393
0.002076816
0.002010785
0.001862701
0.001632274
0.001581761
0.001871252
0.002263289
0.002576559
0.002845377
0.003150383
0.003473171
0.003994226
0.004681384
0.007196877
0.00617151
0.003123231
0.002357953
0.00222239
0.002309065
0.002418794
0.002353886
0.002173702
0.002016641
0.001975042
0.002014488
0.002023464
0.001946382
0.001734774
0.001571785
0.001838599
0.002301977
0.002684348
0.003017908
0.003390501
0.003764915
0.004382183
0.005054548
0.007929713
0.006476029
0.00335171
0.002600625
0.002038115
0.002048546
0.002039942
0.001975933
0.001888708
0.001835519
0.001856183
0.001922725
0.001968616
0.001947391
0.001787121
0.001612232
0.001856398
0.002403399
0.002893684
0.003289525
0.003713931
0.004165989
0.004876447
0.005537199
0.008802677
0.006921547
0.003569677
0.002779169
0.002279383
0.002091781
0.001965559
0.001851435
0.001767049
0.001738285
0.001764321
0.001820299
0.001873396
0.001889083
0.001781869
0.001645497
0.00193207
0.002561818
0.003192714
0.003658176
0.00411029
0.004830312
0.00543208
0.006199531
0.01020084
0.01179013
0.004608429
0.003032744
0.002474508
0.001961486
0.001854241
0.001750495
0.001669285
0.001648574
0.001667043
0.001706787
0.001759723
0.00179507
0.001727204
0.001649974
0.002071065
0.00279475
0.003585972
0.004117862
0.004636269
0.005550186
0.006214814
0.008277125
0.01785167
0.006843887
0.003521916
0.002722821
0.002213118
0.001974284
0.001814038
0.00169272
0.001611186
0.001586428
0.001599433
0.001640708
0.001674842
0.001632154
0.001628556
0.002285833
0.003116812
0.004097897
0.004647292
0.005495694
0.006368205
0.007333444
0.01202342
0.01331048
0.005142821
0.003197358
0.00246683
0.00192508
0.001740737
0.001598735
0.00151359
0.00146374
0.001458674
0.001488144
0.001515059
0.001507213
0.001602486
0.002609005
0.00353604
0.004749419
0.005335806
0.006558445
0.007669327
0.01048655
0.02153535
0.01317217
0.005191201
0.003206938
0.002428509
0.001917852
0.00153351
0.001406535
0.001310178
0.001291689
0.00129707
0.001319901
0.001390193
0.001613451
0.003012123
0.004137311
0.005535418
0.006692666
0.008061099
0.01127858
0.02350269
0.01275645
0.005029931
0.003090949
0.002316183
0.001823206
0.001450096
0.001143936
0.001127886
0.001113641
0.0011517
0.001348938
0.001649239
0.003425353
0.00547735
0.006969734
0.008425241
0.01214645
0.02586666
0.01169091
0.004649536
0.002849554
0.002109144
0.001618442
0.001291478
0.001073341
0.0009728167
0.001032816
0.001339934
0.002352003
0.004869719
0.007153221
0.009183287
0.01302652
0.02851816
0.0101376
0.005008788
0.002979229
0.001901671
0.001492312
0.001279325
0.001235079
0.001390491
0.001958687
0.003890055
0.007079055
0.01153243
0.01801754
0.03146479
0.006260839
0.00322416
0.002601201
0.002349195
0.002403037
0.002889909
0.004655824
0.009388772
0.01529932
0.03055254
0.007071079
0.003590922
0.002558384
0.005048541
0.008380283
0.0103763
0.01244231
0.02158184
0.008580683
0.005122337
0.004455456
0.003271528
0.002356027
0.001818502
0.003262355
0.004975736
0.006075982
0.007111854
0.009610209
0.01252553
0.01422345
0.02396427
0.006829268
0.003594744
0.002906257
0.002688299
0.002486525
0.002132134
0.001865597
0.003074162
0.004302787
0.005091022
0.005708204
0.006317857
0.007024227
0.007975287
0.01080177
0.0218816
0.0051179
0.003298694
0.002943918
0.002607314
0.002388448
0.002654817
0.002879607
0.003729822
0.005579631
0.004510922
0.004485232
0.004796834
0.005114813
0.005453466
0.005801837
0.006052539
0.007162824
0.009773426
0.01393963
0.02364829
0.00509354
0.002370899
0.002132102
0.002393296
0.00299622
0.003051617
0.003143758
0.003639165
0.006171025
0.006092274
0.004614669
0.004369837
0.004458923
0.004625568
0.004843475
0.005118488
0.00548085
0.006000962
0.006419532
0.007764652
0.01092817
0.02346909
0.006206876
0.002411324
0.001777848
0.002110845
0.003610522
0.0039514
0.004244488
0.005201704
0.007189845
0.005931398
0.005180029
0.004372244
0.004154306
0.004158139
0.004267408
0.00444221
0.004663382
0.004937385
0.005283981
0.005678726
0.006087068
0.007528018
0.01097644
0.02427151
0.003637051
0.001806164
0.001740985
0.003980629
0.005027375
0.005652507
0.0068267
0.006612082
0.004966359
0.004618682
0.004411938
0.004106279
0.003971987
0.003959349
0.00404537
0.004204259
0.004404248
0.004637436
0.004901994
0.005220317
0.00560238
0.006029851
0.007717042
0.01415891
0.006777042
0.002538437
0.001572391
0.003686723
0.00550894
0.007666542
0.007249555
0.004721338
0.003894191
0.003853715
0.003908715
0.004002304
0.003968687
0.003940435
0.003969353
0.004078805
0.004233959
0.00441659
0.004630924
0.004855369
0.005086721
0.005368322
0.00572743
0.006216273
0.009573485
0.02157505
0.008958429
0.003191509
0.001837594
0.002802881
0.004542402
0.009096431
0.008966693
0.004218233
0.003394463
0.00322312
0.003461697
0.003718808
0.00396582
0.004108773
0.004250417
0.004463102
0.004724327
0.004971567
0.005169173
0.005311599
0.00540592
0.005512415
0.005609319
0.005743968
0.005968574
0.006507792
0.01006663
0.02221698
0.005186181
0.00237896
0.001582722
0.002676782
0.006326862
0.01218345
0.005426464
0.003663991
0.003255223
0.003393425
0.003836261
0.004420034
0.005090153
0.005789387
0.006455472
0.00698142
0.007412247
0.007815981
0.008160136
0.00832263
0.008187571
0.007778569
0.007263867
0.006733858
0.006037296
0.004686858
0.006254407
0.0111571
0.00466049
0.00219797
0.001877816
0.002950946
0.009558072
0.01095348
0.004975168
0.00410113
0.003937447
0.004347867
0.005054336
0.005851913
0.006412826
0.006383689
0.006071835
0.005776911
0.005685247
0.005820156
0.00614604
0.006571819
0.006927902
0.007294584
0.008393333
0.009116501
0.008846068
0.007107105
0.004466792
0.006945441
0.01049545
0.003752259
0.002126517
0.001932302
0.002471621
0.006654694
0.01197062
0.006522828
0.004539761
0.003992296
0.003969428
0.004046912
0.003906052
0.003462648
0.003190789
0.00304445
0.003032042
0.003126048
0.003314307
0.003571051
0.003846766
0.00408089
0.004323742
0.004700506
0.005855229
0.006765305
0.006401379
0.003951044
0.004726918
0.01005346
0.006591875
0.003099492
0.002126097
0.001927895
0.002177132
0.004354091
0.009660638
0.008965297
0.005612634
0.003921226
0.003117242
0.002698807
0.00238646
0.002212114
0.00209878
0.002064084
0.002114223
0.00226193
0.002496702
0.002771734
0.003039892
0.003301648
0.003505128
0.003680427
0.00413608
0.004450392
0.004427823
0.002945479
0.003396603
0.005628127
0.006299728
0.00308207
0.002196125
0.001955005
0.00200084
0.003054275
0.006441977
0.008292293
0.0071046
0.004974403
0.003153991
0.002577804
0.002405756
0.002173546
0.001939957
0.001799647
0.001759912
0.001864838
0.002111392
0.002398489
0.00264121
0.0028748
0.003105921
0.003330249
0.003466732
0.00364126
0.003773005
0.002679179
0.003038855
0.004671645
0.006312304
0.003154791
0.002298506
0.002026037
0.001938815
0.002359036
0.004082244
0.005936796
0.006202738
0.00531717
0.004165075
0.003384081
0.002853673
0.002533007
0.002178369
0.001899727
0.001713142
0.001707666
0.001939216
0.002246561
0.002473102
0.002665779
0.00282327
0.002939118
0.00308888
0.003219853
0.003505989
0.002708393
0.002966804
0.004219266
0.006389684
0.003233666
0.002397667
0.002118975
0.001961415
0.002055793
0.002769883
0.003897449
0.004499883
0.004362922
0.003807159
0.003252699
0.002875857
0.002664962
0.002442411
0.0021635
0.001870606
0.001717056
0.00190053
0.00223072
0.002448656
0.002620898
0.002735219
0.002813743
0.002903953
0.002997031
0.003259896
0.002774342
0.002962712
0.004128465
0.006488418
0.003292012
0.00246764
0.002205283
0.002025328
0.001973754
0.002187122
0.002661744
0.003088556
0.00317515
0.002964153
0.00266181
0.002473603
0.002417084
0.002376129
0.002266422
0.002063977
0.001848946
0.001961947
0.002315577
0.002528585
0.002696034
0.002793046
0.002850095
0.002882484
0.002934263
0.003067435
0.002849836
0.002996462
0.004230882
0.006886658
0.003376859
0.002496772
0.00226333
0.002089339
0.00198422
0.001982021
0.0021069
0.002267891
0.002329893
0.002254154
0.002131774
0.0020864
0.002127503
0.00219247
0.002222996
0.002156011
0.001999689
0.002095397
0.002474554
0.00269093
0.002865075
0.002959189
0.003007636
0.00301815
0.003019157
0.002998955
0.002958126
0.003148555
0.004736016
0.01224915
0.004368842
0.002633582
0.002360756
0.002167269
0.002032211
0.001949331
0.001924784
0.001922205
0.001909021
0.001861056
0.001813571
0.001821551
0.001889715
0.001997412
0.002120315
0.002171182
0.00211063
0.00227491
0.002683605
0.002921113
0.003101721
0.003196629
0.003237741
0.003252348
0.003252569
0.003169365
0.003154916
0.003966286
0.008648839
0.00668238
0.003211211
0.002684015
0.002362491
0.002142383
0.001992732
0.001890695
0.001816168
0.00175343
0.001694328
0.001657152
0.001662959
0.001722355
0.001846008
0.002023288
0.002147325
0.002179943
0.00247266
0.002938668
0.003201777
0.00337903
0.003485021
0.003535431
0.003563127
0.003586744
0.003462136
0.003584855
0.005337112
0.009197245
0.004226795
0.002802649
0.002455956
0.002202004
0.002015098
0.00187807
0.001778597
0.001699106
0.001634226
0.001585732
0.001571696
0.001616829
0.001748006
0.001947592
0.002099292
0.002221137
0.002689604
0.003236379
0.003510174
0.003698069
0.003820981
0.003898236
0.003951063
0.003988813
0.003835739
0.004257617
0.006293025
0.01849643
0.006754905
0.003944317
0.00324224
0.002687166
0.002299072
0.002016095
0.001808375
0.001664174
0.001564809
0.001500407
0.001483297
0.0015327
0.001673671
0.001869606
0.002018654
0.002252891
0.002938699
0.003585944
0.003848161
0.00407319
0.004231983
0.004350935
0.004451873
0.004539474
0.004783022
0.00610284
0.01103999
0.01750333
0.006748612
0.003996239
0.003276789
0.002719341
0.00229934
0.001974321
0.00172954
0.001559329
0.001458199
0.001419017
0.001462034
0.001594473
0.001754826
0.001897747
0.002307417
0.003286763
0.003981701
0.00423964
0.004538283
0.004762578
0.004949974
0.005073474
0.005273474
0.006976697
0.01311154
0.01151228
0.005537879
0.003830002
0.00314742
0.002610909
0.002184005
0.001847472
0.001598752
0.001433123
0.001352649
0.001374066
0.00146639
0.001583499
0.001786169
0.002503906
0.003757546
0.004443394
0.004730189
0.00516212
0.005498483
0.005722019
0.005935136
0.006797784
0.01061512
0.02064878
0.008257061
0.004996724
0.003530076
0.002896149
0.002383082
0.001964806
0.001642672
0.001421312
0.001296611
0.001265821
0.001308078
0.001418667
0.001772416
0.002916925
0.00431519
0.005058838
0.005378134
0.006049322
0.006478416
0.006834828
0.007815443
0.01037858
0.01971316
0.01803579
0.007401215
0.004521993
0.003180472
0.002546405
0.002023934
0.001647047
0.001381909
0.001223419
0.001153508
0.001170673
0.00132216
0.00194175
0.003526437
0.004980427
0.005926681
0.00625496
0.007268207
0.007912557
0.009382217
0.01227752
0.02417334
0.01536507
0.007753783
0.004576642
0.002783529
0.001916745
0.001562563
0.001277713
0.001088761
0.001000588
0.001032183
0.001292998
0.002348005
0.004181725
0.005890153
0.007145357
0.007385218
0.009013076
0.01282629
0.01877729
0.02975458
0.009197472
0.003830918
0.002276775
0.001614482
0.001180024
0.0009330724
0.0008373567
0.0009072669
0.001362049
0.002751859
0.004906862
0.007070104
0.009039818
0.0106433
0.01472667
0.03150624
0.007063493
0.003526718
0.002604349
0.001682187
0.001175681
0.001116522
0.001361644
0.002396801
0.00466891
0.007727239
0.01237147
0.01853136
0.02195327
0.03781479
0.003588888
0.002246325
0.002344926
0.00334951
0.006224949
0.01134159
0.01770047
0.03524674
0.004489179
0.004122033
0.004311677
0.006194671
0.007951221
0.01410985
0.003245411
0.002315576
0.002320702
0.002249595
0.001937476
0.002886879
0.003304676
0.003930522
0.004834627
0.006806106
0.009303971
0.01034757
0.01145877
0.01827272
0.002665819
0.001587791
0.00141226
0.001401178
0.00140987
0.001766157
0.002211466
0.004086472
0.005229029
0.004195774
0.00466679
0.005463446
0.006090744
0.005781084
0.006427146
0.00839483
0.01135474
0.01899272
0.003061362
0.0013612
0.001071243
0.001617418
0.002099349
0.002204489
0.002078917
0.002224167
0.003930059
0.006591433
0.004638288
0.004557258
0.004836322
0.005098827
0.005264371
0.005649572
0.006187005
0.0063444
0.008684259
0.01690893
0.003929793
0.001505926
0.001037226
0.001617431
0.001833687
0.001938676
0.001997953
0.002110563
0.002458176
0.004505078
0.007515169
0.005085998
0.004529991
0.004550707
0.004668366
0.004807241
0.005007933
0.005264111
0.005513637
0.005847398
0.008125715
0.01615937
0.005312659
0.001806629
0.001501284
0.001646822
0.001970286
0.002245233
0.002378957
0.002462697
0.002606138
0.003221276
0.006122104
0.008476105
0.005377467
0.004522124
0.004382719
0.004420436
0.00451125
0.004641652
0.004829256
0.005129372
0.005604314
0.00657517
0.007841353
0.01620201
0.006878224
0.002328044
0.001695361
0.001560086
0.001874982
0.002452752
0.00295058
0.003220526
0.003369183
0.003554142
0.005030768
0.008294898
0.007983968
0.00534477
0.004465705
0.00424506
0.004242449
0.004311888
0.004420433
0.004572711
0.004800679
0.005159291
0.005749361
0.006557227
0.007982119
0.01693385
0.008656074
0.003035776
0.002095195
0.001679419
0.001759714
0.002381674
0.003352097
0.004181059
0.004742651
0.005397664
0.007362092
0.007772622
0.007692368
0.006719353
0.005053264
0.004345752
0.004127308
0.004112671
0.004186675
0.004300551
0.004443806
0.004630804
0.004886019
0.005262181
0.005841263
0.006773313
0.008521708
0.01850211
0.01061278
0.003842508
0.0020465
0.001776436
0.001674585
0.002062378
0.003180183
0.004891357
0.006397303
0.007553453
0.009947271
0.007387077
0.006387449
0.006241111
0.005639868
0.004726233
0.004253359
0.004100296
0.004104378
0.004184271
0.00430847
0.004456866
0.00462006
0.00480687
0.005032688
0.005335926
0.005766781
0.006064537
0.009195398
0.02136694
0.005631593
0.002603798
0.002017245
0.001729308
0.001772619
0.002541996
0.004494906
0.007821979
0.009904198
0.009017171
0.005855708
0.005160858
0.005127235
0.005225628
0.004996283
0.004573258
0.004332529
0.004290591
0.004360593
0.004479968
0.004608742
0.004729469
0.004848673
0.004970304
0.005085102
0.005207859
0.005404951
0.005698707
0.006463256
0.01168758
0.009584151
0.003739297
0.002586188
0.001997926
0.001736006
0.001899812
0.003038322
0.007375899
0.01252644
0.008349669
0.004736269
0.00413518
0.00426129
0.004573956
0.004848146
0.004902768
0.004861805
0.004932075
0.00510951
0.005315068
0.005491171
0.005605446
0.00567031
0.005691179
0.00565062
0.005544044
0.005463847
0.005389947
0.005474996
0.006042579
0.008124969
0.01907446
0.005711476
0.00275837
0.002276251
0.001893683
0.001708857
0.001968438
0.004219668
0.0134528
0.01044687
0.004995847
0.003975156
0.004016657
0.004466848
0.005119916
0.005849119
0.00656905
0.007242878
0.007798035
0.008274698
0.0087216
0.00907297
0.009190957
0.008994012
0.008492143
0.007845967
0.007193296
0.006583064
0.006050907
0.005638053
0.00557223
0.005740127
0.01006478
0.005127914
0.002503833
0.002128806
0.001839881
0.001701023
0.002001231
0.006152993
0.01527324
0.007926697
0.005028919
0.004592402
0.004931922
0.005669849
0.00656362
0.007263296
0.007280039
0.006950096
0.006651121
0.006627982
0.006900024
0.007416835
0.008079505
0.008811887
0.009709132
0.0105139
0.01010364
0.008914931
0.007691955
0.006533943
0.005848746
0.00462037
0.007436687
0.00480759
0.002985842
0.002281598
0.00191123
0.001737254
0.001935141
0.004814014
0.01415396
0.00988468
0.00576957
0.004712033
0.00452168
0.004583148
0.004479642
0.003960896
0.003623425
0.003449571
0.003464003
0.003634551
0.003940112
0.004336596
0.004735425
0.005100457
0.005580883
0.006498179
0.00813405
0.009024256
0.008118773
0.006844679
0.006405455
0.005974079
0.006571373
0.009426405
0.003760025
0.002826136
0.002298444
0.001979149
0.001793401
0.001869088
0.003468772
0.009837623
0.01196061
0.007682979
0.004985102
0.003699227
0.003108877
0.002699407
0.002467287
0.002306073
0.002254305
0.002328421
0.002537352
0.002876469
0.00328757
0.00365277
0.003953042
0.004213301
0.004567738
0.005175544
0.005946236
0.006633036
0.006473728
0.006214456
0.005906143
0.005472796
0.01453636
0.005853988
0.00297111
0.002551362
0.002245379
0.002022902
0.001861039
0.001850273
0.0026303
0.00614509
0.009476133
0.00906477
0.006819489
0.004129252
0.003167227
0.002858974
0.002513854
0.002174895
0.001974273
0.001928614
0.00205942
0.002382219
0.002806833
0.003138584
0.003368781
0.003541563
0.003731764
0.003950084
0.004155833
0.004458449
0.005304463
0.006207813
0.005912409
0.004689951
0.008762587
0.005518617
0.002829028
0.002467196
0.002236052
0.002075751
0.00194656
0.001888417
0.00220604
0.003879984
0.006292779
0.007313473
0.006753647
0.005418783
0.00450629
0.003659773
0.003065179
0.002535833
0.002137412
0.001919303
0.001906001
0.002174199
0.002619813
0.002932458
0.003103696
0.003187969
0.003236933
0.003304958
0.003348514
0.003422977
0.003643511
0.004174307
0.004947153
0.003649153
0.006905487
0.005537966
0.002803316
0.002465253
0.00226457
0.002141488
0.002044426
0.001972076
0.00205347
0.002730139
0.004024295
0.005028696
0.00521272
0.004723762
0.004096949
0.00357826
0.003209953
0.002847945
0.002462331
0.002137254
0.001967755
0.002145141
0.002609932
0.002908371
0.003033526
0.003056476
0.003026443
0.002985724
0.002923458
0.002866366
0.002844044
0.002771712
0.003094347
0.00226049
0.004677077
0.00586704
0.002855052
0.002511616
0.002319206
0.002213529
0.00214022
0.002073676
0.002056904
0.002262785
0.002794804
0.0033685
0.003633262
0.003507418
0.00318327
0.002910138
0.002773141
0.002675053
0.002525791
0.002332878
0.002155081
0.002247139
0.00272421
0.003010014
0.003092007
0.003075466
0.003000273
0.002890583
0.002749452
0.00258257
0.002425887
0.002239194
0.002342643
0.001731728
0.003068232
0.01045999
0.003709677
0.002921135
0.00253952
0.00235409
0.002249427
0.002172172
0.002116069
0.002130919
0.002281255
0.002496465
0.002623755
0.002585555
0.002439221
0.002346047
0.002339448
0.002377269
0.002405196
0.002388536
0.00232225
0.002439947
0.002916604
0.00319815
0.003236061
0.003195108
0.003098384
0.002953331
0.002757448
0.002517948
0.002275959
0.002051912
0.002094593
0.002344917
0.002811125
0.005849829
0.003852191
0.003069078
0.002647993
0.002419074
0.002276851
0.002178116
0.002118833
0.002114748
0.002144221
0.002151299
0.002106149
0.002033406
0.002001311
0.002030618
0.002115435
0.002242917
0.002362614
0.002431331
0.00265791
0.003170949
0.003431044
0.003435698
0.003390209
0.003286139
0.003129943
0.002904682
0.002624626
0.00233432
0.002125978
0.002263392
0.003594822
0.007865626
0.00361408
0.003114184
0.002776887
0.002540403
0.002358495
0.002223457
0.002131367
0.002076369
0.002040191
0.00199353
0.001924878
0.001858012
0.001821334
0.001839144
0.00193362
0.002111577
0.002313039
0.002501736
0.002882986
0.003452887
0.003674096
0.00368255
0.003640367
0.003543513
0.00339014
0.003152134
0.002846314
0.002509628
0.002253653
0.002009381
0.004036871
0.0106786
0.00484528
0.004019043
0.003442273
0.003033084
0.002712023
0.002448339
0.002240166
0.002096149
0.001995529
0.001906335
0.001819092
0.001742261
0.001694828
0.001705491
0.00180922
0.002013244
0.002259117
0.002562511
0.003128032
0.003732021
0.003925429
0.003927352
0.003892059
0.003815143
0.003680128
0.003447045
0.003131148
0.002741474
0.002475545
0.002299764
0.004573008
0.01962862
0.007282937
0.005349314
0.004303061
0.003652827
0.0031953
0.002818559
0.002493292
0.00222309
0.002018185
0.001854784
0.001722237
0.001621707
0.001568178
0.001585774
0.001704882
0.001922832
0.00220353
0.002650395
0.003416113
0.003992847
0.004157655
0.004164139
0.004139579
0.004088363
0.003984713
0.003775097
0.003466495
0.003000689
0.002737209
0.003061434
0.007073447
0.01220814
0.005984874
0.004902601
0.004165717
0.003643231
0.003225005
0.002849611
0.002501781
0.002195354
0.001944526
0.001738922
0.001585073
0.00149824
0.001500946
0.001615056
0.001833038
0.002169544
0.00282132
0.003758951
0.00426241
0.004396854
0.004417085
0.004408633
0.004388787
0.004339893
0.004173756
0.003898875
0.003260704
0.002846813
0.004418443
0.02231836
0.009005107
0.005535098
0.004752053
0.004124661
0.003622372
0.003185918
0.002780368
0.002396971
0.002066871
0.001791788
0.001581059
0.00145379
0.001433452
0.001532498
0.001761386
0.002213292
0.003135621
0.004148776
0.00455059
0.004685076
0.004732466
0.004750729
0.004780348
0.004836609
0.004742449
0.004489319
0.00368184
0.004295742
0.007707281
0.01969462
0.008374891
0.006208099
0.004934114
0.004089647
0.003481144
0.002983968
0.002539245
0.002143635
0.001819752
0.001569162
0.00141347
0.001375276
0.001472623
0.001746349
0.002394485
0.003613726
0.004562144
0.004888513
0.005060014
0.00516335
0.005228497
0.005340126
0.005598647
0.00565568
0.005619746
0.005812917
0.009384583
0.0170254
0.007429053
0.005528304
0.004415062
0.003629651
0.003042879
0.00255546
0.002130188
0.001784736
0.001526279
0.001366447
0.001331273
0.001449295
0.001810967
0.002767123
0.00419957
0.00503159
0.005323432
0.005559769
0.005774196
0.005918042
0.00615207
0.006832979
0.007070571
0.007575847
0.01294209
0.01460124
0.006436508
0.004732813
0.003664588
0.002990374
0.002456706
0.002025406
0.001679626
0.001432651
0.00129237
0.001283779
0.001445174
0.001986074
0.003327377
0.004797535
0.005643246
0.00588541
0.00624807
0.006674845
0.006948025
0.007341868
0.008785107
0.009737691
0.01746259
0.0120985
0.00539498
0.003323463
0.00270221
0.002237652
0.001835738
0.001508117
0.001291602
0.001205032
0.001236552
0.001479849
0.002358735
0.003945299
0.005554766
0.006493474
0.006659835
0.007250881
0.008103906
0.008388002
0.008930059
0.01233084
0.02311466
0.009564089
0.004221107
0.00258187
0.002096718
0.001644673
0.001322674
0.001187131
0.001158144
0.0012159
0.001649544
0.002849654
0.00471689
0.00660337
0.007920366
0.007842518
0.008795531
0.01036363
0.01068301
0.01488143
0.03003091
0.007582642
0.003800162
0.002349296
0.001473509
0.001105593
0.001218207
0.001180841
0.001249321
0.001918808
0.003469724
0.005700354
0.008303146
0.01053435
0.009542051
0.01097572
0.01472058
0.02189423
0.03776751
0.004142595
0.002281633
0.001852147
0.001651718
0.001297316
0.001328808
0.002221262
0.004154968
0.006894866
0.01123071
0.01701178
0.01985431
0.02311946
0.03859579
0.003350857
0.003346414
0.005777467
0.01016079
0.01590441
0.03208922
0.001674516
0.001758426
0.002607612
0.003234913
0.003616342
0.004623429
0.005529002
0.006528553
0.007827816
0.01327353
0.001279572
0.0006582626
0.0006980729
0.0007825416
0.0009021507
0.002224158
0.003122082
0.003236962
0.003559149
0.004059014
0.004557902
0.004669175
0.00636291
0.008352414
0.008980241
0.01394001
0.001548747
0.0006500203
0.0006802884
0.0009496078
0.001208277
0.00141303
0.001802601
0.003571312
0.003737406
0.003604463
0.003804998
0.004196592
0.004598329
0.005306674
0.005858652
0.006024766
0.006532143
0.01208248
0.004967184
0.001728174
0.0009197126
0.0007373093
0.0008114238
0.000999574
0.001193001
0.001450625
0.001977549
0.004262859
0.005126339
0.004056812
0.003939627
0.004169971
0.004475085
0.004785597
0.004991137
0.005130428
0.005422331
0.006090998
0.008082458
0.01304225
0.007340328
0.002062343
0.001313333
0.0009441726
0.0009267795
0.001139118
0.001434933
0.00163838
0.001802612
0.002149481
0.004017025
0.00672622
0.004749818
0.004219325
0.004253008
0.004430606
0.004574731
0.004647648
0.004696535
0.004834458
0.00516447
0.005762083
0.006300803
0.01316408
0.008858731
0.00292481
0.001818784
0.001246481
0.001079177
0.001268752
0.001603679
0.00187508
0.002013617
0.002168193
0.002587235
0.004460116
0.007719319
0.005566794
0.004555498
0.004363271
0.004411147
0.004464838
0.004477182
0.004486399
0.004551176
0.004705052
0.005007302
0.005421068
0.006252914
0.01293522
0.009550319
0.003582277
0.002422128
0.001652159
0.001286246
0.001338021
0.001743657
0.002286979
0.002583415
0.002683592
0.002778398
0.003254966
0.005388023
0.008693642
0.00625002
0.004854626
0.004476169
0.004398868
0.004397567
0.004388364
0.004390247
0.004435988
0.004536008
0.004702867
0.004977052
0.005469054