/*--------------------------------*- C++ -*----------------------------------*\
  =========                 |
  \\      /  F ield         | OpenFOAM: The Open Source CFD Toolbox
   \\    /   O peration     | Website:  https://openfoam.org
    \\  /    A nd           | Version:  6
     \\/     M anipulation  |
\*---------------------------------------------------------------------------*/
FoamFile
{
    version     2.0;
    format      ascii;
    class       volScalarField;
    location    "50";
    object      k;
}
// * * * * * * * * * * * * * * * * * * * * * * * * * * * * * * * * * * * * * //

dimensions      [0 2 -2 0 0 0 0];

internalField   nonuniform List<scalar> 
203709
(
0.006763726
0.007130655
0.007398983
0.007662088
0.006390728
0.006513009
0.006696356
0.006934155
0.007123917
0.007282851
0.007213491
0.007381968
0.006033046
0.006102122
0.006250849
0.00635174
0.006434199
0.006476293
0.006465615
0.006436763
0.006421946
0.006488765
0.006038131
0.006301538
0.005781082
0.005869946
0.005956409
0.006002132
0.005976013
0.005868833
0.005675278
0.005396744
0.005161148
0.005021789
0.004979528
0.005030426
0.005250672
0.004972497
0.005572899
0.005593256
0.005558316
0.005420356
0.005178911
0.004853176
0.004601266
0.00452846
0.00453963
0.004598562
0.004677393
0.004730969
0.0047156
0.004689268
0.004822551
0.005002497
0.004863443
0.004647784
0.004348434
0.004053122
0.003996371
0.004106644
0.004277052
0.004484792
0.00472849
0.004986859
0.005193173
0.005267667
0.005087407
0.004742532
0.004314946
0.004260735
0.003977556
0.003620604
0.003335377
0.003337204
0.00354087
0.003815488
0.00412225
0.004451201
0.004833039
0.005258886
0.005627
0.005838141
0.005845859
0.00546854
0.005814947
0.005247453
0.004076874
0.003372931
0.002808879
0.002691642
0.002943484
0.003193496
0.003519153
0.003898429
0.004300109
0.004786168
0.005380988
0.00592448
0.006258901
0.006355848
0.006147905
0.005656079
0.005521773
0.005335247
0.004511129
0.003789517
0.00320852
0.002992301
0.003026057
0.003084175
0.003283835
0.003647912
0.004076599
0.004622866
0.005379966
0.006121125
0.00658502
0.006754911
0.006746193
0.006207587
0.005286814
0.005295844
0.004873684
0.004408543
0.004053845
0.003831297
0.003620815
0.003366927
0.003228469
0.003435141
0.003837045
0.004392956
0.005288151
0.006247272
0.006849381
0.00707365
0.007132224
0.006772969
0.005247863
0.005254956
0.005082709
0.004823613
0.004598082
0.004371199
0.004073809
0.003690115
0.003370006
0.003349536
0.003630473
0.004148311
0.005139627
0.006328496
0.007077657
0.007348991
0.007464177
0.007317346
0.005229519
0.00514396
0.004999083
0.004829208
0.004602892
0.00427291
0.003844064
0.003467384
0.003351836
0.003528429
0.003951834
0.004972358
0.00638636
0.007290293
0.007605645
0.007731838
0.005209442
0.005098178
0.005000397
0.004859599
0.00463584
0.004293275
0.003861306
0.003494772
0.00335567
0.003475614
0.003858283
0.004875749
0.006436559
0.00751157
0.007858418
0.008050217
0.004996188
0.00490163
0.004760194
0.004528539
0.004189415
0.003795983
0.003482182
0.003351911
0.003446025
0.003817911
0.004922388
0.006529471
0.007761392
0.008120659
0.0048845
0.004720049
0.004569499
0.004344211
0.004039756
0.003714572
0.003458474
0.003340829
0.003433779
0.003829562
0.00510679
0.006726938
0.008044587
0.008401922
0.004541194
0.004358825
0.004148677
0.003888923
0.003635621
0.003420028
0.003316916
0.003445761
0.003913312
0.005440956
0.006999391
0.008371284
0.003921188
0.00370711
0.00358081
0.003362669
0.003290246
0.003473252
0.004052107
0.005746978
0.003225601
0.003166314
0.003213087
0.003426997
0.00384898
0.003576909
0.004365605
0.006992088
0.007456892
0.007844444
0.008291363
0.008643343
0.008912977
0.009127618
0.003197214
0.003018549
0.003087717
0.002979502
0.005025592
0.006883503
0.007550829
0.008036003
0.008458624
0.008798945
0.00909009
0.009351026
0.009329255
0.009391557
0.003458507
0.003425688
0.003219812
0.003015023
0.004201655
0.005724136
0.006993407
0.007745933
0.008215165
0.008563119
0.008822492
0.009037025
0.009196635
0.009294191
0.009425356
0.009350307
0.003454636
0.003689051
0.003653826
0.003680899
0.004292039
0.005099779
0.006205376
0.00716702
0.007726898
0.008065758
0.008358015
0.008732967
0.008837727
0.008936711
0.00904749
0.009176547
0.009298785
0.009201872
0.003116014
0.003754289
0.004104033
0.004328008
0.004718923
0.005201122
0.005976879
0.006751882
0.007270042
0.00780501
0.007977611
0.008099165
0.008272516
0.008373268
0.008492794
0.008527453
0.008627285
0.008799409
0.008984329
0.008863524
0.002846873
0.003516439
0.004382697
0.004659504
0.004958395
0.00532388
0.005785542
0.00629492
0.007133606
0.00761703
0.007953971
0.008124118
0.008272723
0.00835501
0.008362654
0.008378034
0.008203882
0.007566804
0.007633606
0.007949489
0.008339247
0.008201368
0.003836032
0.004271504
0.005030175
0.005155642
0.00540871
0.005855682
0.006686549
0.007454919
0.008372987
0.009204647
0.009976942
0.0105887
0.01095156
0.0111142
0.01111487
0.01092964
0.01029852
0.008662007
0.005888042
0.005938578
0.006278132
0.007092426
0.003837978
0.003976791
0.005381145
0.005907589
0.006059896
0.00635517
0.007364713
0.008306965
0.009277804
0.01018922
0.0106306
0.01043713
0.009995965
0.00959491
0.009366837
0.009308348
0.00931541
0.009149137
0.008442603
0.005898495
0.005318862
0.004994023
0.004584744
0.003180519
0.004055962
0.003788639
0.005187495
0.006588258
0.007145306
0.006918216
0.00752049
0.007762455
0.007828426
0.007514755
0.006985819
0.006703794
0.006587605
0.006616115
0.006764445
0.00701179
0.00727645
0.007339524
0.006851016
0.00626551
0.005800178
0.005581289
0.004960818
0.003802921
0.004321661
0.004030789
0.004500639
0.006482338
0.008029338
0.007536027
0.007046701
0.006371229
0.005841189
0.005458268
0.005286402
0.005230991
0.005280348
0.005425528
0.00571943
0.006143457
0.006619498
0.006970868
0.007062533
0.006623607
0.00627903
0.006218218
0.005575874
0.004340046
0.00458614
0.004363337
0.004438142
0.006396889
0.008795412
0.008417419
0.007368971
0.006005496
0.005430452
0.005290576
0.005065936
0.004873229
0.004796552
0.004824955
0.005109391
0.005626937
0.006238642
0.006711296
0.007013647
0.006806686
0.006588411
0.006714815
0.006112655
0.004949806
0.004846013
0.004671923
0.004646919
0.005709382
0.00762629
0.008053603
0.007562725
0.006647244
0.005893095
0.005627436
0.005431049
0.005096836
0.004832162
0.004608595
0.004750404
0.005306722
0.006047526
0.006610262
0.007060487
0.007321023
0.007225347
0.007133588
0.006523618
0.005463214
0.005085662
0.004942181
0.004882835
0.005279398
0.006309678
0.006912888
0.006823267
0.006325091
0.005832602
0.005629449
0.005605023
0.005457503
0.005167531
0.004700386
0.004592022
0.005121841
0.005993946
0.006627838
0.007140172
0.007478993
0.007537362
0.007431824
0.006837195
0.005874845
0.005263798
0.005152486
0.005083102
0.005113175
0.005408164
0.005760923
0.005817401
0.005602932
0.005380029
0.005348393
0.00545231
0.005491894
0.005367436
0.004945676
0.00461008
0.005050255
0.00606122
0.006770402
0.007340707
0.007743731
0.007885072
0.007682042
0.007096932
0.006214891
0.005317257
0.00524937
0.005197223
0.005207654
0.005227797
0.005287709
0.00524846
0.005134316
0.005060108
0.005117349
0.005265847
0.005388128
0.0053866
0.005071821
0.004715552
0.005070155
0.006232058
0.007030576
0.007654376
0.008080588
0.008387363
0.007901325
0.007326898
0.006515558
0.005269055
0.005220724
0.005193623
0.005196467
0.005093204
0.00502398
0.004934737
0.004843357
0.004818977
0.004898618
0.005046513
0.005202208
0.005279816
0.005060639
0.004783792
0.005183943
0.00648046
0.007398456
0.008017555
0.0084847
0.008572564
0.008118161
0.007530272
0.006811063
0.005398486
0.005255504
0.005165543
0.005129503
0.005108106
0.004965331
0.004847999
0.004753317
0.004717637
0.004750409
0.004844071
0.004986896
0.005088563
0.004923098
0.004772979
0.005380218
0.006808104
0.007816127
0.008425177
0.00906614
0.008782925
0.008331179
0.007741123
0.007097983
0.005463368
0.005259426
0.005125944
0.005046569
0.004812107
0.004650337
0.004526707
0.004471741
0.004486091
0.004576477
0.004721866
0.004815735
0.004668202
0.004686714
0.005643567
0.007237705
0.008272716
0.008838998
0.009251791
0.009017048
0.008566572
0.007934725
0.005978926
0.005524064
0.00519438
0.004946193
0.004775702
0.004486026
0.004306089
0.004214208
0.004216017
0.004298784
0.004398645
0.004434978
0.00429946
0.004546865
0.006026107
0.007720646
0.008782512
0.009413986
0.009473704
0.009272737
0.008850188
0.008204085
0.006176599
0.00572669
0.005288456
0.004900193
0.004597124
0.004343282
0.004058129
0.003913965
0.003902746
0.00390201
0.003892032
0.003884321
0.004489665
0.006481317
0.008419634
0.009305384
0.009607104
0.009744739
0.009566434
0.009037242
0.006111716
0.0056096
0.005082039
0.004611717
0.004194589
0.003852725
0.003550189
0.003410071
0.003338392
0.003375707
0.003655886
0.004540612
0.006846006
0.008728263
0.00959328
0.009886957
0.01006097
0.009758679
0.005696104
0.005160943
0.004575195
0.004065927
0.00363122
0.00326513
0.003010502
0.002896176
0.003013416
0.003492883
0.004891432
0.007584426
0.009170911
0.009961595
0.01023308
0.01029463
0.004981316
0.004439672
0.003933489
0.00343565
0.003062613
0.002842105
0.002813126
0.003045775
0.00378843
0.005836939
0.008268893
0.00968563
0.01040498
0.01057534
0.003539375
0.003168223
0.002895418
0.002764932
0.002830622
0.003205774
0.004394435
0.006855248
0.008967508
0.01017634
0.003874065
0.003434947
0.002881675
0.004583158
0.00641862
0.007295366
0.007832052
0.00810712
0.004503485
0.004624138
0.004664602
0.004550067
0.004215667
0.003653278
0.00543868
0.007191001
0.008137904
0.008780164
0.009284674
0.009259649
0.009105226
0.008913929
0.00435619
0.004719051
0.005028903
0.005205561
0.005276568
0.004937863
0.004594441
0.006442107
0.00804086
0.008935474
0.009483767
0.009797415
0.009848675
0.009824022
0.009805725
0.009456368
0.003293247
0.003638153
0.004501409
0.005213257
0.005575927
0.006217096
0.006842026
0.008507886
0.01081846
0.008952534
0.008826293
0.009198822
0.009523224
0.009797035
0.01002657
0.01034223
0.01020332
0.009998397
0.009479204
0.009089994
0.003355373
0.003499513
0.004189446
0.005297274
0.006405869
0.006519254
0.00702743
0.00825744
0.01254065
0.01214903
0.009685273
0.009272463
0.009415688
0.00964908
0.009872771
0.01002391
0.01013601
0.01012074
0.01021935
0.00988974
0.009655685
0.009254784
0.003746883
0.003545418
0.003796462
0.005023003
0.007079486
0.00785376
0.008799836
0.01067873
0.01406308
0.01257141
0.01120588
0.009792752
0.009454887
0.009476412
0.009634985
0.009834711
0.009995537
0.01008868
0.01010504
0.01015582
0.01016765
0.009923846
0.009690748
0.009245841
0.003889615
0.003752165
0.004422868
0.007252107
0.009002593
0.01056259
0.01292957
0.01351453
0.01116631
0.01066873
0.01020572
0.009754899
0.009570266
0.009545428
0.009626089
0.009764294
0.009928368
0.0100716
0.01016153
0.01017969
0.01016436
0.01011166
0.009854808
0.009588764
0.00435505
0.004089906
0.004015501
0.006714179
0.00940051
0.0127763
0.01316248
0.01045606
0.009295882
0.009222449
0.009541565
0.00970795
0.009787474
0.009811309
0.00985993
0.009943406
0.01004902
0.01015216
0.01025189
0.01033251
0.01036946
0.01030532
0.01018783
0.01002055
0.009883539
0.009389461
0.004644286
0.004372779
0.004134269
0.005873025
0.008312369
0.0143075
0.01455216
0.008909097
0.007739615
0.008031963
0.008594293
0.009307464
0.009834857
0.01019627
0.01048133
0.0108137
0.01114958
0.01140647
0.01151035
0.01148712
0.01133434
0.01111337
0.01078759
0.01046361
0.01002147
0.009593844
0.009401497
0.008501004
0.004665614
0.00440084
0.004243926
0.006192751
0.01117499
0.01805506
0.01038951
0.007779202
0.00782419
0.008548875
0.00950963
0.01067478
0.01185917
0.01300758
0.01400647
0.01472515
0.01526347
0.01571174
0.01598911
0.01591349
0.01531733
0.01432157
0.01321144
0.01211118
0.01070367
0.008754855
0.008393878
0.007790309
0.004803907
0.004551578
0.004499935
0.006533368
0.01484017
0.01765956
0.01046467
0.009023091
0.0094577
0.01039897
0.01165769
0.01296204
0.01378555
0.01365471
0.01314844
0.01273998
0.01267046
0.01294598
0.01345666
0.01396615
0.01417146
0.01430691
0.01520634
0.0152744
0.01410547
0.01131393
0.007307859
0.006292189
0.005027935
0.004973499
0.004754051
0.004685615
0.005802675
0.01152874
0.01898144
0.01283022
0.01019734
0.009774471
0.009800248
0.009898492
0.009590476
0.008781247
0.00830609
0.008099969
0.008178649
0.008489185
0.009003715
0.009640009
0.01014957
0.01025886
0.01024952
0.01106776
0.0123006
0.01222136
0.01002412
0.007195934
0.00582204
0.004906092
0.005138623
0.005058214
0.004924377
0.004802074
0.005411607
0.008682935
0.01612775
0.01605788
0.01219045
0.009799672
0.008324503
0.007466445
0.006815115
0.006415567
0.006180311
0.006156483
0.006346546
0.006774029
0.007434274
0.008261516
0.008995828
0.009438621
0.009415601
0.009549502
0.009934132
0.009387689
0.007278095
0.006125945
0.005384145
0.004637225
0.005246334
0.00519079
0.005113464
0.004947218
0.005219886
0.006973947
0.01199955
0.01510791
0.0142838
0.01167689
0.008679412
0.007449834
0.006960802
0.006384109
0.005858302
0.005591227
0.005578505
0.005904166
0.006581329
0.00751488
0.008346951
0.008900953
0.008999467
0.008908096
0.008953409
0.008258446
0.006535598
0.005833169
0.005138124
0.004301211
0.005328695
0.005318053
0.005301544
0.005139182
0.005216256
0.006026458
0.008761669
0.01181017
0.01278873
0.01197153
0.01032279
0.009034687
0.007969333
0.007209244
0.006403026
0.005820476
0.005474557
0.005543093
0.006142068
0.0071571
0.008063655
0.008671682
0.008877472
0.008688023
0.008386505
0.007675639
0.006441026
0.005908908
0.005100242
0.004071536
0.005369403
0.005404657
0.00545244
0.005337419
0.005341525
0.005656956
0.006887853
0.008823751
0.0100803
0.01020349
0.009484939
0.008598242
0.007930125
0.007499404
0.007004144
0.006412264
0.005824693
0.00555896
0.005986345
0.007058548
0.008023437
0.00863411
0.008790727
0.008536109
0.008062787
0.007354537
0.006448788
0.006003839
0.005094566
0.004010129
0.005345779
0.005418986
0.005524281
0.00547637
0.00549185
0.005601525
0.006071668
0.006952703
0.007819339
0.008131793
0.007883175
0.007398665
0.007086073
0.006987219
0.006888625
0.006656052
0.00625189
0.005843795
0.006050303
0.007156775
0.008171443
0.008762985
0.008853188
0.008542546
0.00796753
0.007258593
0.006506571
0.006075435
0.005085814
0.004015872
0.005295951
0.00535366
0.005476827
0.005477179
0.005534739
0.005594261
0.005758387
0.00608692
0.006467321
0.006672032
0.006592795
0.006395479
0.006322302
0.006399564
0.006516562
0.006575569
0.006449439
0.006155162
0.00626849
0.007389463
0.00845547
0.009003345
0.009067536
0.008703191
0.008070892
0.007344418
0.0066155
0.006126319
0.0051029
0.004117311
0.005605462
0.005521138
0.005484011
0.005408294
0.005442642
0.005484151
0.005555943
0.005677737
0.005786251
0.005858009
0.005816585
0.005736584
0.005747605
0.005874879
0.006090304
0.006348118
0.006463067
0.006357113
0.00656314
0.007700589
0.008824499
0.009367276
0.00939531
0.008988813
0.008343939
0.007582497
0.006817196
0.006172623
0.005155998
0.004421086
0.006132538
0.005874977
0.00562923
0.005453024
0.005385827
0.005362844
0.005376865
0.005388067
0.005385568
0.005347365
0.005308917
0.005332706
0.005459703
0.005726167
0.006105147
0.006369943
0.006440606
0.00684455
0.008079453
0.00926477
0.009703993
0.009710121
0.009306238
0.008669409
0.007899516
0.007147728
0.006294126
0.005250548
0.006866699
0.006486144
0.006229933
0.005835547
0.005584695
0.005401429
0.005281469
0.005201744
0.00514434
0.005090993
0.005033318
0.005024757
0.005140673
0.00544321
0.005878418
0.006202122
0.006426373
0.007097079
0.008500376
0.009662595
0.009998394
0.009983624
0.009607097
0.008972041
0.008163071
0.007644972
0.006472609
0.005298077
0.007546851
0.007228296
0.006904451
0.006425859
0.005907795
0.005518139
0.005190094
0.004930323
0.004764381
0.0046734
0.004637033
0.004675962
0.004848169
0.005196123
0.005628569
0.005945934
0.006336589
0.007327752
0.008985401
0.00998018
0.01023326
0.01023541
0.00988505
0.009259091
0.008478025
0.007809677
0.006713376
0.005327898
0.008191864
0.007875694
0.007497609
0.006868319
0.006265347
0.005740939
0.005257904
0.004865711
0.004604881
0.004474691
0.004463179
0.004618757
0.004936617
0.005285338
0.005579822
0.006211233
0.007695597
0.009420321
0.01024347
0.01042888
0.0104719
0.01013519
0.009543096
0.008982857
0.008005455
0.006732935
0.008397603
0.007942518
0.007514666
0.006809323
0.006162456
0.005550286
0.004992565
0.00457234
0.004302541
0.00420041
0.004302064
0.004533416
0.004795794
0.005187076
0.006290396
0.008247205
0.009787193
0.01052206
0.01064999
0.01073786
0.01045807
0.01002504
0.009084778
0.007934922
0.008339109
0.008057922
0.007578049
0.00711756
0.006370104
0.005684336
0.005038407
0.004497161
0.004123288
0.00392817
0.003919586
0.004050315
0.004302979
0.00496444
0.006697723
0.008843889
0.01018899
0.01087041
0.01092842
0.01114815
0.01102732
0.01018989
0.00936271
0.008085138
0.007771613
0.007494817
0.006928169
0.006430914
0.005601201
0.004930497
0.004342579
0.003902939
0.003644905
0.00355204
0.00362666
0.003958347
0.005059889
0.007379807
0.009407522
0.01061141
0.01127961
0.01136911
0.01178268
0.01125433
0.01048948
0.009444524
0.006833094
0.006437098
0.006062955
0.005458117
0.00482763
0.004106348
0.003582663
0.00325116
0.003113319
0.003209818
0.003753287
0.005527703
0.008018833
0.00998105
0.01114481
0.01185357
0.01193859
0.01204873
0.011607
0.01062106
0.005327681
0.004943964
0.004276506
0.003707276
0.003210638
0.00284234
0.002687718
0.002852693
0.003767231
0.0060033
0.008653909
0.01062661
0.01171183
0.01197073
0.01211059
0.01210056
0.003957241
0.003607126
0.003258683
0.002912862
0.002646737
0.002636045
0.003050833
0.004474464
0.006912243
0.009352765
0.01104975
0.01208455
0.01222404
0.01213073
0.002457761
0.002504708
0.002718377
0.003521582
0.005339154
0.007828923
0.009975714
0.01130077
0.003036322
0.003974564
0.004246425
0.005411387
0.006141739
0.006483158
0.002430975
0.002807902
0.003150387
0.003381168
0.003653934
0.005440756
0.006076476
0.006815763
0.007652285
0.008410934
0.00868524
0.008522013
0.008160351
0.007711013
0.002156554
0.002318497
0.002818165
0.003415133
0.003765919
0.004161988
0.004486063
0.00720974
0.009571063
0.007939849
0.008337633
0.008896392
0.009272544
0.009626336
0.00943259
0.009243018
0.008582733
0.007943707
0.002626754
0.002625327
0.002920481
0.00415736
0.00435
0.004406428
0.004612437
0.005222532
0.008049649
0.01211056
0.009605293
0.009410263
0.009841047
0.01010285
0.01017708
0.009955425
0.009701481
0.009538834
0.008995601
0.008135616
0.003326406
0.003014898
0.003108886
0.004313843
0.004867448
0.005186272
0.00544893
0.005862873
0.006736203
0.01033454
0.01432687
0.01129285
0.01054586
0.01077951
0.01099788
0.01099568
0.01076402
0.01040629
0.01009046
0.009805961
0.009211862
0.008444455
0.004143398
0.003577094
0.003482021
0.004025103
0.004876568
0.005707288
0.006255531
0.006688148
0.007235062
0.008717589
0.01364988
0.01656181
0.01265921
0.01153263
0.011505
0.01163
0.01158763
0.01135476
0.01098807
0.01051807
0.01007348
0.009579651
0.009424744
0.008625911
0.004817221
0.004238524
0.003749874
0.003942427
0.004927333
0.006236378
0.007312289
0.008005696
0.008554383
0.009233947
0.01221249
0.01732563
0.01668113
0.01334117
0.01219097
0.01193654
0.01195875
0.01190228
0.01169773
0.01138369
0.01099988
0.01058386
0.01011068
0.009765622
0.009543011
0.008707935
0.005235375
0.004822676
0.004186961
0.00397047
0.004563124
0.006034415
0.007817853
0.009374619
0.01066186
0.01219021
0.01572565
0.01690356
0.01684963
0.01542189
0.01337666
0.01246608
0.01214093
0.0120358
0.01200331
0.01189078
0.01168258
0.01139694
0.01105584
0.0106695
0.01021843
0.009782608
0.009522588
0.008637657
0.005403732
0.005261995
0.004902043
0.004443793
0.004523684
0.005587082
0.007501834
0.01018897
0.01277493
0.01515323
0.01925745
0.01639667
0.01498611
0.01484515
0.01415348
0.01311726
0.01251129
0.0122548
0.01216628
0.01211632
0.01207742
0.0120221
0.0118679
0.01161823
0.01127972
0.01085451
0.0103484
0.01005329
0.009376455
0.008591191
0.005401494
0.005293847
0.004877996
0.004617266
0.004973044
0.006429106
0.009420844
0.01428078
0.01766288
0.01775265
0.01370884
0.01281231
0.01297954
0.0133597
0.01329535
0.01287588
0.01255589
0.0124496
0.01248487
0.01256426
0.01262178
0.0126035
0.01250118
0.01235116
0.01204198
0.01156498
0.01091327
0.01034184
0.009672203
0.008777103
0.005035135
0.005413311
0.005124768
0.004826888
0.004718645
0.00526735
0.007252645
0.01341277
0.02022423
0.01592053
0.01139012
0.01080249
0.01127346
0.01207881
0.01278194
0.01308559
0.01312047
0.01322107
0.01344238
0.01369053
0.01387335
0.01394753
0.01392747
0.01380976
0.01354188
0.01301547
0.01246411
0.01166318
0.01074637
0.009760503
0.009078889
0.00797572
0.00514373
0.00538741
0.005152249
0.004929325
0.004841303
0.005533449
0.009234759
0.02094949
0.01822767
0.0115246
0.01031327
0.01068086
0.01167414
0.01297385
0.0142977
0.01547878
0.01645147
0.01716368
0.01776541
0.01831914
0.01869232
0.01867488
0.0181892
0.01732375
0.01629246
0.01521393
0.01408304
0.01276417
0.01138428
0.009922914
0.008773606
0.007511668
0.005356692
0.005535811
0.005325177
0.00512542
0.005033361
0.005729229
0.01184909
0.02396943
0.01596109
0.01198859
0.0115389
0.01224893
0.01356071
0.01503631
0.01608706
0.01600328
0.01545995
0.01508891
0.01520386
0.01579383
0.01669729
0.01761488
0.01834366
0.01908989
0.01959636
0.01852416
0.01657571
0.01457638
0.01251365
0.01041729
0.008344363
0.00687695
0.005609831
0.005489008
0.005404934
0.005287469
0.005192281
0.005699639
0.0101598
0.02272384
0.01888896
0.01343652
0.01183902
0.01149311
0.01155256
0.01131174
0.01036654
0.009784723
0.009564749
0.009765311
0.01033077
0.01122301
0.0123172
0.01324543
0.01376378
0.0142274
0.01547613
0.01700174
0.01685679
0.01451895
0.01276958
0.01099814
0.00975562
0.006921855
0.004964869
0.005678882
0.005611128
0.005631378
0.005532081
0.00540888
0.005674548
0.008308121
0.01730522
0.0213384
0.01651746
0.01244829
0.01007242
0.008857459
0.00800699
0.007481137
0.007151359
0.007122328
0.007429269
0.00809558
0.009145131
0.01050041
0.01168031
0.01236817
0.01259256
0.01286961
0.01336384
0.01343685
0.01248753
0.01231488
0.01092485
0.009058931
0.007311506
0.006651002
0.005015873
0.005542956
0.005682215
0.005833773
0.005821347
0.005715345
0.005784712
0.00715835
0.01239675
0.01778186
0.01823009
0.01546136
0.01121796
0.009254206
0.008449343
0.007614613
0.006845257
0.00645358
0.006475581
0.00695709
0.007970855
0.00948445
0.0108112
0.01154107
0.01171703
0.01164355
0.01150945
0.01091953
0.009904028
0.01126029
0.01131645
0.008940435
0.00754112
0.006590482
0.005026714
0.005490466
0.005723129
0.005993295
0.006105479
0.006078996
0.006058637
0.006661768
0.009276182
0.01318051
0.01536535
0.01510088
0.01325074
0.01179416
0.01018081
0.008870742
0.007663942
0.006796211
0.006397921
0.006527471
0.007366815
0.008995124
0.01044694
0.01116909
0.01127358
0.01095897
0.01044846
0.009649521
0.008638274
0.008853421
0.008596129
0.007519735
0.006544211
0.005866566
0.005034287
0.005452885
0.005724813
0.006086604
0.006329851
0.006428041
0.006423079
0.006613683
0.007742203
0.009862311
0.01172988
0.0123836
0.01181842
0.01083953
0.009926238
0.009193789
0.00839338
0.007534594
0.006860034
0.006610353
0.007171453
0.008870842
0.01043264
0.01111042
0.01111094
0.0106368
0.009892756
0.008941709
0.007915026
0.007410486
0.006343487
0.005261891
0.004758543
0.0045322
0.005029501
0.005398288
0.005666248
0.006079765
0.006428957
0.006661255
0.006747405
0.006813978
0.007211282
0.008126677
0.009150134
0.009718265
0.009602447
0.009070036
0.008589976
0.008323458
0.008077051
0.007708989
0.007292774
0.006992727
0.007294129
0.009017724
0.0106808
0.01128334
0.01119481
0.01062358
0.0097314
0.008644121
0.007492165
0.0065489
0.005443918
0.00459877
0.003870917
0.003287557
0.005359092
0.005658105
0.005662022
0.005967669
0.006324368
0.006635195
0.00682781
0.006927612
0.007072465
0.007421707
0.007847744
0.008095161
0.008028335
0.007741709
0.007534819
0.007474575
0.007479507
0.007466521
0.007407308
0.007328709
0.007651128
0.009335256
0.01109918
0.01159341
0.01142877
0.01081079
0.009847683
0.00865411
0.007367186
0.006183052
0.005101191
0.004509841
0.00414445
0.002233069
0.006435201
0.006184451
0.006068449
0.006225787
0.006431264
0.006611743
0.006738847
0.006853885
0.007025856
0.007210238
0.007271586
0.007174609
0.00698076
0.00683988
0.006810039
0.006895125
0.007088431
0.007315671
0.007515675
0.008048343
0.009829077
0.01157254
0.01195742
0.01177323
0.01112295
0.01013365
0.008879779
0.007490461
0.006181226
0.005127495
0.004660701
0.004634579
0.007156431
0.007104793
0.006890499
0.006832
0.006774746
0.006713972
0.006676563
0.006695882
0.006772685
0.006856985
0.006841684
0.006697532
0.006501717
0.006339121
0.006284153
0.006402655
0.006720776
0.007138607
0.007589512
0.008429209
0.01041017
0.01201624
0.01240506
0.01222061
0.01157598
0.01057234
0.009272065
0.007808495
0.006401496
0.005264922
0.004784189
0.004575629
0.007826351
0.007859369
0.00758288
0.007480236
0.007325807
0.00709214
0.006809449
0.006556015
0.006423718
0.006365806
0.006278641
0.00613289
0.005959592
0.00581649
0.005789043
0.005969187
0.00638041
0.006927055
0.007607325
0.008818901
0.01099217
0.0124569
0.01276815
0.01257859
0.01195947
0.01096044
0.009641814
0.008136461
0.006649773
0.005361216
0.004770684
0.004440523
0.008138809
0.00847293
0.008284185
0.008135911
0.008076731
0.007853113
0.007463554
0.006979831
0.006511167
0.006158641
0.005859326
0.005595724
0.005383897
0.005264292
0.005301014
0.00556159
0.006045884
0.006703081
0.007632772
0.009268656
0.01150844
0.01277543
0.0130069
0.01280961
0.0122084
0.01120967
0.009897275
0.008358964
0.006844573
0.005442217
0.004732426
0.004115653
0.00906404
0.009230563
0.009082707
0.008893838
0.00873094
0.008368474
0.007840273
0.00719888
0.006558728
0.006010352
0.005535535
0.005169166
0.004958017
0.004959268
0.005218433
0.005729977
0.006517634
0.007753261
0.009812557
0.0120203
0.01300125
0.01315161
0.0129368
0.01232574
0.01130388
0.01000243
0.00841964
0.006964911
0.005602659
0.004589605
0.0088637
0.009262658
0.009502659
0.009274368
0.009113768
0.008791758
0.008299932
0.007648811
0.006870481
0.00614436
0.005506352
0.00500237
0.004696925
0.004651642
0.004897476
0.005465461
0.006458648
0.008065391
0.01045288
0.01247193
0.0131977
0.01326091
0.01302068
0.01238444
0.01132204
0.01002229
0.008425116
0.007222802
0.005638356
0.004365898
0.009017216
0.009442372
0.009106694
0.008899487
0.008686478
0.008287783
0.007711065
0.006960236
0.006137462
0.005423687
0.004841987
0.00447779
0.004400869
0.004661475
0.005334568
0.006595272
0.008619294
0.01110317
0.01283127
0.01338123
0.01336122
0.01310345
0.01246104
0.01133199
0.01006464
0.008605417
0.007387109
0.005503926
0.008754647
0.009137049
0.008690878
0.008338042
0.007965658
0.007450406
0.006772111
0.005973018
0.00524845
0.004668559
0.004297567
0.004225193
0.004530525
0.005337988
0.00694895
0.009340656
0.011717
0.01313691
0.0135121
0.01342368
0.01317349
0.0125616
0.0113517
0.01029741
0.009249415
0.007295831
0.008053133
0.00830833
0.007677382
0.00726269
0.00682978
0.006280674
0.005592215
0.004904032
0.004373852
0.004043264
0.004022042
0.004408429
0.005440966
0.007470516
0.01000004
0.01217815
0.01331035
0.01353834
0.01338812
0.01316224
0.01268063
0.01157303
0.01095347
0.009082607
0.006971848
0.007054143
0.006749903
0.006166994
0.005618841
0.004994243
0.004379935
0.003905728
0.003677274
0.00375414
0.004287232
0.005728879
0.008015413
0.01059597
0.0123882
0.01333754
0.01345259
0.01322731
0.01328958
0.01306166
0.01223081
0.01074546
0.005570049
0.005591613
0.005252826
0.004656833
0.004138101
0.003722085
0.003392398
0.003293729
0.003499772
0.004337329
0.006124087
0.00866801
0.0109954
0.01239537
0.01327929
0.01331552
0.01323325
0.01357503
0.01294754
0.01195961
0.004304245
0.004149602
0.003966354
0.003540305
0.003209315
0.002995589
0.002990687
0.00334957
0.004501281
0.00665103
0.0092256
0.01128323
0.01259677
0.01350892
0.01352459
0.01351559
0.01337438
0.01260805
0.002876593
0.002784586
0.002715492
0.002752915
0.002797949
0.003262586
0.004728724
0.007170292
0.00977873
0.01182425
0.01305219
0.01321768
0.01307432
0.01274246
0.002508365
0.003489209
0.005245576
0.00762208
0.009818324
0.01127717
0.001555422
0.002330728
0.00336104
0.004107441
0.004491822
0.005303654
0.005877145
0.006201973
0.006327907
0.006171106
0.001366096
0.001308131
0.001566777
0.002080225
0.002721974
0.003782923
0.005258676
0.005856785
0.006253728
0.006930283
0.007558459
0.008141891
0.008384737
0.008188556
0.00744348
0.006649731
0.00192164
0.001823044
0.002045876
0.002394077
0.002756036
0.003180514
0.004151698
0.007460491
0.008092794
0.008040719
0.008644381
0.009222144
0.009604269
0.009507991
0.00915221
0.00864998
0.008463969
0.007476317
0.003636062
0.002819635
0.002303197
0.002331265
0.002753807
0.003311481
0.003846815
0.00437521
0.005173955
0.008705153
0.01112955
0.01017865
0.01038649
0.01099856
0.01136046
0.01127535
0.01086905
0.01011332
0.009436614
0.008639152
0.007773327
0.006815493
0.004912013
0.003892635
0.003011474
0.002804482
0.003221927
0.004027997
0.004715513
0.005086402
0.005448909
0.006132555
0.009201211
0.01395266
0.012349
0.01214027
0.01247934
0.01279896
0.01271412
0.01229422
0.01158221
0.01069722
0.009556038
0.008562978
0.008062677
0.007168637
0.00558739
0.005005949
0.003982408
0.003396448
0.003572973
0.004484022
0.00556314
0.006309336
0.006671927
0.007067223
0.007993112
0.01130558
0.0161564
0.01457685
0.01375006
0.01366699
0.01381482
0.0136659
0.01321173
0.01253792
0.01171943
0.01073542
0.009628353
0.008755051
0.008192943
0.007137329
0.005821738
0.005713198
0.0049179
0.004140919
0.003915129
0.004570242
0.005920762
0.007317214
0.008024119
0.008307404
0.008627044
0.009779911
0.01363849
0.0184358
0.0164612
0.01505791
0.01463269
0.01443561
0.01416723
0.01366703
0.01302839
0.0123474
0.01162994
0.01079856
0.009765208
0.00887522
0.00825718
0.007357023
0.00576677
0.006050554
0.005585317
0.004935376
0.004418531
0.004536845
0.00575001
0.007675723
0.009095759
0.009768877
0.01008051
0.01041959
0.01220099
0.0170103
0.01992354
0.01732497
0.01588556
0.0152456
0.01475703
0.01436735
0.0138591
0.01326457
0.01268897
0.01217213
0.01163608
0.01091175
0.009911716
0.009001951
0.008450796
0.007577187
0.006089646
0.005930305
0.00557794