/*--------------------------------*- C++ -*----------------------------------*\
  =========                 |
  \\      /  F ield         | OpenFOAM: The Open Source CFD Toolbox
   \\    /   O peration     | Website:  https://openfoam.org
    \\  /    A nd           | Version:  6
     \\/     M anipulation  |
\*---------------------------------------------------------------------------*/
FoamFile
{
    version     2.0;
    format      ascii;
    class       volScalarField;
    location    "50";
    object      k;
}
// * * * * * * * * * * * * * * * * * * * * * * * * * * * * * * * * * * * * * //

dimensions      [0 2 -2 0 0 0 0];

internalField   nonuniform List<scalar> 
203709
(
0.006794925
0.007201465
0.007529176
0.007831
0.00631184
0.00646888
0.006723752
0.007031463
0.007294114
0.007529461
0.007567512
0.007802052
0.005890859
0.005980381
0.006156139
0.006310864
0.006465868
0.006596749
0.006688628
0.006770819
0.006882484
0.007061655
0.00693662
0.007212863
0.005555069
0.005624165
0.005699734
0.005770492
0.005793531
0.005762097
0.005675963
0.00557636
0.005510092
0.005503295
0.005582677
0.005788555
0.006252022
0.006316734
0.005075619
0.005058689
0.005030344
0.004945664
0.00481048
0.00469021
0.004619879
0.004586949
0.004577486
0.004590873
0.004630839
0.004718186
0.004950822
0.005773468
0.004134572
0.004364313
0.004243684
0.004151059
0.004041183
0.004026439
0.004077021
0.004165785
0.004272388
0.004389063
0.004514905
0.004636712
0.004718404
0.004704565
0.004485926
0.003922193
0.003612339
0.003576833
0.003369256
0.003246545
0.003266091
0.00340114
0.003581152
0.003812739
0.004056764
0.004303935
0.004573141
0.004858377
0.005103046
0.005230651
0.005179393
0.004705736
0.005262357
0.005471596
0.004293209
0.003544533
0.002773502
0.00295126
0.003071066
0.003206886
0.00348642
0.003821518
0.004161369
0.004547657
0.005000654
0.005433293
0.005712276
0.005781822
0.005534962
0.004890824
0.005080409
0.00525004
0.004773348
0.00426751
0.003902894
0.003612693
0.003331117
0.003107006
0.003218488
0.003558156
0.003947047
0.004405189
0.005009429
0.005647982
0.006084821
0.006249502
0.006245937
0.005570522
0.005002874
0.005074438
0.004921752
0.004677405
0.004456514
0.004197547
0.003856637
0.003427711
0.003154187
0.003326408
0.003712806
0.004193711
0.004915356
0.005773948
0.006381336
0.006615018
0.006686569
0.006238476
0.005103859
0.005044672
0.004968665
0.004840944
0.004685803
0.004459358
0.004118732
0.00365929
0.00327259
0.003231956
0.003506446
0.003966303
0.004759027
0.005839535
0.006634167
0.00692719
0.007068231
0.006909779
0.005076637
0.005001083
0.004903212
0.004763654
0.004542155
0.004198903
0.003743785
0.003349573
0.003235297
0.003407033
0.003784348
0.004587248
0.005869299
0.006868324
0.007210626
0.007323218
0.005122455
0.004982414
0.004885351
0.004749698
0.004527289
0.004182076
0.003745803
0.003382305
0.003250752
0.00336246
0.003695345
0.004499921
0.005884473
0.007107443
0.007487961
0.007688861
0.004920996
0.004814308
0.004664446
0.004429898
0.004089703
0.003697957
0.003390287
0.003263467
0.0033418
0.003656023
0.004533179
0.005975307
0.007374337
0.007755599
0.004834962
0.004654993
0.004494136
0.004264693
0.003961736
0.003639367
0.003386838
0.003266354
0.003334716
0.003663513
0.004688685
0.006201065
0.007680128
0.008063353
0.004492274
0.004294194
0.004080576
0.003820986
0.003568413
0.003358112
0.003249207
0.003344546
0.00373865
0.004988966
0.006528052
0.008012368
0.003878288
0.003653993
0.003523118
0.003306724
0.003222638
0.003368908
0.003865758
0.005271466
0.003187815
0.003117546
0.003145609
0.003320829
0.003777258
0.003653648
0.004536186
0.006784427
0.007402586
0.007919771
0.008328578
0.008645986
0.00887655
0.009046277
0.003025982
0.002795933
0.00260206
0.003110916
0.005089463
0.006755888
0.007577386
0.008128978
0.008529768
0.008841392
0.009097655
0.009319727
0.00927732
0.009290978
0.003381678
0.003314512
0.002985491
0.003077801
0.004219321
0.005755488
0.006983251
0.007821893
0.008337091
0.008684074
0.008933297
0.009125327
0.009253581
0.009309431
0.009384529
0.009291215
0.003531981
0.003689337
0.00361156
0.003697664
0.004213397
0.005113074
0.006185878
0.007094713
0.007770061
0.008174399
0.008511688
0.008929758
0.009037691
0.009121643
0.009193264
0.009263323
0.009317244
0.009216442
0.003184566
0.004033587
0.004164711
0.004385154
0.004746458
0.005153907
0.005834218
0.006659079
0.007187264
0.007816666
0.008076781
0.008281561
0.008513732
0.00866246
0.008871576
0.008899788
0.008956231
0.009038015
0.009116432
0.009009006
0.002787745
0.004090259
0.004535667
0.004604908
0.00486738
0.005087161
0.005636723
0.006169022
0.007014085
0.007500504
0.00786719
0.008043987
0.008178125
0.008266449
0.008317005
0.008416986
0.008423491
0.008382842
0.008407384
0.008526938
0.008675869
0.008563203
0.003960033
0.004952714
0.00509483
0.005156194
0.005285546
0.005770594
0.006554622
0.007180656
0.007833667
0.008277377
0.008562683
0.008727547
0.008853167
0.008901759
0.008853599
0.008634028
0.008168265
0.007751242
0.007207645
0.007341681
0.007616665
0.007927213
0.003896969
0.004143417
0.005519117
0.006257851
0.006400288
0.006585705
0.007661282
0.008511689
0.009320046
0.01000905
0.01042968
0.0106866
0.01085628
0.01098682
0.01115707
0.011367
0.01147097
0.01112622
0.009625685
0.006109996
0.005781934
0.006090961
0.006860041
0.003799178
0.004087659
0.003994961
0.004756534
0.006828578
0.008085904
0.00728004
0.007609499
0.00771477
0.007791945
0.007758877
0.007733094
0.007770032
0.007911274
0.008165824
0.008542676
0.009064944
0.009725834
0.01039414
0.01071637
0.009968874
0.00589321
0.005288993
0.004940242
0.003924065
0.004353484
0.004190715
0.00437255
0.005757977
0.009726197
0.009127742
0.008130121
0.00706651
0.006519054
0.006107585
0.005750099
0.005612453
0.005686787
0.005903797
0.006251691
0.006715945
0.007270028
0.007751504
0.0079415
0.007431297
0.006239551
0.005843636
0.005303508
0.004234775
0.004638145
0.004468613
0.00448962
0.005495838
0.008211123
0.009226967
0.009134127
0.008473742
0.007108125
0.006398393
0.005621071
0.005090415
0.004917662
0.004964908
0.005255671
0.005738548
0.006348115
0.006867449
0.00721542
0.006957886
0.006574864
0.006395564
0.005832692
0.004745933
0.004924412
0.004760719
0.004717672
0.005132053
0.006446483
0.007363234
0.007548671
0.007230524
0.00693739
0.006624667
0.006097683
0.005321527
0.004843089
0.004593928
0.004725694
0.005211339
0.005921679
0.006511108
0.007002851
0.007314509
0.007149149
0.006852319
0.006284947
0.005266547
0.005181467
0.005036393
0.00495733
0.004985281
0.005453592
0.005857116
0.005967901
0.00576399
0.005555077
0.005576635
0.005688889
0.005544654
0.005139125
0.004610269
0.004477374
0.00490818
0.005737986
0.006396423
0.006942713
0.007333517
0.007409178
0.007184314
0.006638113
0.005709024
0.005359576
0.005248204
0.005164267
0.005000475
0.005016022
0.005093446
0.005077627
0.004976535
0.004940554
0.005061552
0.005246267
0.005314648
0.005213212
0.004814831
0.004451593
0.004759191
0.005715626
0.006460589
0.007061687
0.007514479
0.007698081
0.007474577
0.006933632
0.00608942
0.005398604
0.005330513
0.005272046
0.005248219
0.00507852
0.004980172
0.004863948
0.004781343
0.004779073
0.004881099
0.00502605
0.0051321
0.005157105
0.004904858
0.004539486
0.004735922
0.00581523
0.006671618
0.007331019
0.007824175
0.0081586
0.007740645
0.007194061
0.006435105
0.005350897
0.005288543
0.005249457
0.005230034
0.005038155
0.004895991
0.004759244
0.0046643
0.004649435
0.004715638
0.004821563
0.004944698
0.005042818
0.004888411
0.004600244
0.004835183
0.006003639
0.00701269
0.007696334
0.008229099
0.008375967
0.007983163
0.007433494
0.006777927
0.005547957
0.00535618
0.005233135
0.00516685
0.005122327
0.00491878
0.004772973
0.004666991
0.004617862
0.004617568
0.004660118
0.004767307
0.004882933
0.004770627
0.004589144
0.005004768
0.006310962
0.007449499
0.008116246
0.008834078
0.008610903
0.008220083
0.0076677
0.007150477
0.005611465
0.005370071
0.005193905
0.005074133
0.004799388
0.00461068
0.004472145
0.004400789
0.004381507
0.00442651
0.004545243
0.004654926
0.00454497
0.004501539
0.005231701
0.006757713
0.007947699
0.00856254
0.009050893
0.008872526
0.008475913
0.007876934
0.006173007
0.005690294
0.00532865
0.005033623
0.004822172
0.004489582
0.004285647
0.004165821
0.004136414
0.00418592
0.004272685
0.004324616
0.004201653
0.0043516
0.005568537
0.0072939
0.008496765
0.009189818
0.009302839
0.009151665
0.008775245
0.008205332
0.006339051
0.005872586
0.005412348
0.004991741
0.004654682
0.004370006
0.004045262
0.003873824
0.003837203
0.00383383
0.003824625
0.003790219
0.004272447
0.005996624
0.008082602
0.009066134
0.009421537
0.009604747
0.009466256
0.008990167
0.006220834
0.005714937
0.005172643
0.004680455
0.004238798
0.003877544
0.003562895
0.003390294
0.003302264
0.003316351
0.003558211
0.004306737
0.006384664
0.008459494
0.009403738
0.00973895
0.009945711
0.009686372
0.005754909
0.005225723
0.004632088
0.004109606
0.003658929
0.003277738
0.003007519
0.002869461
0.00296001
0.003398534
0.004645526
0.007239139
0.008978271
0.009813369
0.01011656
0.01020269
0.005003584
0.004471679
0.00396408
0.003453709
0.003065798
0.00282854
0.002781252
0.002994644
0.003694048
0.005578885
0.008058704
0.009555831
0.01028888
0.01048733
0.003532702
0.00316381
0.00288428
0.002743339
0.002797805
0.00316322
0.004296266
0.006681876
0.008833132
0.010092
0.003840254
0.003339533
0.002704774
0.004333553
0.00627063
0.007106568
0.007638274
0.007902602
0.004825131
0.004833321
0.004750582
0.004518738
0.004138453
0.003653259
0.005153123
0.007060658
0.007942237
0.008566926
0.00906332
0.009058988
0.008876054
0.008653861
0.004842094
0.005081194
0.005185356
0.005176556
0.005064686
0.004723468
0.004363938
0.00628643
0.007958058
0.008774038
0.00930238
0.009601323
0.009633803
0.00957406
0.009520474
0.009163954
0.003500292
0.004089973
0.005037801
0.005520038
0.005564586
0.005880856
0.006371366
0.007711413
0.009320191
0.008521664
0.008788887
0.009127021
0.009421363
0.009654548
0.009836942
0.01010525
0.009937413
0.009706215
0.009176686
0.008772734
0.003305797
0.003655727
0.004823671
0.005938478
0.006408666
0.006044415
0.006189336
0.007815428
0.01050536
0.01013654
0.009288483
0.009233322
0.009410391
0.009612656
0.009787699
0.009882525
0.009942708
0.009885542
0.009954271
0.009608618
0.009349378
0.008953788
0.003551551
0.003464674
0.004068152
0.006021789
0.007484837
0.007282069
0.007202875
0.008732763
0.009761743
0.009833145
0.009809346
0.009483711
0.009426549
0.00949711
0.009657753
0.009804841
0.009898667
0.009925861
0.00988845
0.009908599
0.009921609
0.009666908
0.009417248
0.008993381
0.003712518
0.003637944
0.005035232
0.008622186
0.008786089
0.008342311
0.008179532
0.007802021
0.008235825
0.008916516
0.009346326
0.009505043
0.009514755
0.009536775
0.009622209
0.00974724
0.009848601
0.009911647
0.009931236
0.009913662
0.009910477
0.009913379
0.009661561
0.009400043
0.004127592
0.003904287
0.003860884
0.007748879
0.01100712
0.009827313
0.007379854
0.0065338
0.006802919
0.007607551
0.008508289
0.009134391
0.009496316
0.009610031
0.009654932
0.009705865
0.009766713
0.009831191
0.009921261
0.009979692
0.009987466
0.009947488
0.009919253
0.009890326
0.009734716
0.00928698
0.004476513
0.004179061
0.003953504
0.006864989
0.01069215
0.01409842
0.008188202
0.00633213
0.006191406
0.006840737
0.007692764
0.008612082
0.009262275
0.00963806
0.009815761
0.009952459
0.01009061
0.01020032
0.01023812
0.01021232
0.01014684
0.01009071
0.01001812
0.009886252
0.009725525
0.009572129
0.009310261
0.008506914
0.00452999
0.00424515
0.004123458
0.009150985
0.01758535
0.01414506
0.007940775
0.006921682
0.007200321
0.007918733
0.008773844
0.009654679
0.01034111
0.01079601
0.01109074
0.01133372
0.01153287
0.01163119
0.01159303
0.01144976
0.01116751
0.01079063
0.01042938
0.01000466
0.009626869
0.009037763
0.008570294
0.008033007
0.004712963
0.004439779
0.00434171
0.006927825
0.01601917
0.01930455
0.01119382
0.009467564
0.009752956
0.01054697
0.01160112
0.01263086
0.01334868
0.01381523
0.01417601
0.01453341
0.01494829
0.01544236
0.01584019
0.01578645
0.01502286
0.0138348
0.01314498
0.01250003
0.01192627
0.01121605
0.007370606
0.007048186
0.005023299
0.00494424
0.004698571
0.004535512
0.005690083
0.01104769
0.02008907
0.01597155
0.01147821
0.01022133
0.009950006
0.01004553
0.01000384
0.009929786
0.009942541
0.01014601
0.01058052
0.01126245
0.01221575
0.01342859
0.01470491
0.01558409
0.01572024
0.01480733
0.01479993
0.0142682
0.01178091
0.00731874
0.005937194
0.004749482
0.005157064
0.005067699
0.00491788
0.004711264
0.005180111
0.007983048
0.01471798
0.01785528
0.01571056
0.01221465
0.009793178
0.008615689
0.007850668
0.007176133
0.006816119
0.006836818
0.007153349
0.007712694
0.008494833
0.009479599
0.01044812
0.01113116
0.01117015
0.01104977
0.01125714
0.01065077
0.008394436
0.006773744
0.005760869
0.004807689
0.005286802
0.005229793
0.005146178
0.004926714
0.005048121
0.006308925
0.01015209
0.01396182
0.01516378
0.01451469
0.01339998
0.01029391
0.008719437
0.007291377
0.006233214
0.005792834
0.005793714
0.00616448
0.006848514
0.007804451
0.008741643
0.009448883
0.009649213
0.009539975
0.009505252
0.008674833
0.006629116
0.005948827
0.005342753
0.004531728
0.005385009
0.005376955
0.005361805
0.005174341
0.005145853
0.005605035
0.007359798
0.009897167
0.01150856
0.01183634
0.01133035
0.01064477
0.00956067
0.008288659
0.00680882
0.005853135
0.005423005
0.005495097
0.00604815
0.007016708
0.007971661
0.008701186
0.00905739
0.008956662
0.008725069
0.007971482
0.00642575
0.006020544
0.005335261
0.004392832
0.005436
0.00547407
0.005526773
0.005403378
0.005351186
0.005463916
0.00609742
0.007283916
0.008365658
0.008771805
0.008512137
0.007964858
0.007671188
0.007544356
0.007132504
0.006383771
0.005654556
0.005357342
0.005712171
0.006699428
0.007694352
0.008410035
0.008713826
0.0086019
0.008244082
0.00757514
0.006464922
0.006182628
0.00537407
0.00440002
0.005421921
0.005492837
0.005600546
0.005547787
0.005537673
0.005548053
0.005715438
0.006095168
0.006551747
0.006773133
0.006671342
0.006456631
0.006425848
0.006548703
0.006582665
0.006402572
0.006003175
0.0055703
0.00568377
0.00666848
0.007720502
0.008412316
0.008647493
0.008493527
0.008044571
0.007426274
0.006604785
0.006324941
0.005359029
0.004411695
0.005411906
0.005446101
0.005556453
0.00554018
0.005577803
0.005588116
0.005621721
0.005703975
0.005791625
0.005840598
0.005779181
0.005715859
0.005776361
0.005942898
0.006106056
0.006206319
0.006131664
0.005847966
0.005871705
0.006820828
0.007947054
0.008586311
0.008771582
0.008564622
0.008074903
0.007455444
0.00680718
0.006427943
0.00530309
0.004435769
0.005827524
0.00569305
0.005612674
0.005490149
0.005484391
0.005482103
0.005486254
0.005496544
0.005472267
0.005435506
0.005371492
0.005329043
0.005372558
0.005504067
0.005708343
0.005975528
0.00613499
0.006043479
0.006155555
0.007107403
0.008298076
0.008901619
0.009072171
0.008805102
0.008294447
0.007644012
0.007054962
0.006503181
0.00525442
0.004527859
0.006373056
0.006088751
0.00579582
0.005556767
0.005430786
0.005346747
0.00529633
0.005240596
0.005180872
0.005119193
0.00507896
0.005092892
0.005189229
0.005417663
0.005782656
0.006075302
0.006142963
0.00643491
0.007504116
0.008727272
0.009273165
0.009407763
0.009129619
0.008617209
0.007947407
0.007378657
0.006588468
0.005367917
0.007099875
0.006722178
0.006460567
0.00601475
0.00570545
0.005456364
0.005269809
0.005130079
0.005030481
0.004958269
0.004891649
0.004865514
0.004944469
0.005203469
0.005618899
0.005960364
0.006153878
0.006689606
0.007952719
0.0092058
0.009631286
0.009724537
0.009458311
0.00893363
0.008224986
0.00785469
0.006746361
0.005469608
0.007708605
0.007421398
0.007115209
0.006623188
0.00609057
0.005670754
0.00529806
0.004986166
0.004764849
0.004630539
0.004560793
0.0045673
0.004699858
0.005011163
0.005431655
0.005759794
0.006084825
0.006926058
0.008476833
0.009627554
0.00994183
0.01003364
0.009776438
0.009244372
0.00855814
0.007966648
0.006956464
0.005610207
0.008289039
0.008011687
0.007651917
0.007019785
0.006415455
0.005877887
0.005367953
0.00493493
0.004633444
0.004463197
0.004410448
0.004523951
0.0048113
0.005152634
0.005441021
0.00596986
0.007289192
0.009035105
0.009981251
0.01021101
0.01032889
0.01007022
0.009550112
0.009076544
0.008115665
0.007041915
0.00843311
0.008008937
0.007604344
0.006907769
0.006268108
0.005649529
0.005071213
0.004621161
0.004319441
0.004182129
0.004248813
0.004460077
0.004717551
0.005077695
0.006035537
0.007860451
0.009535463
0.01033618
0.01049457
0.01064429
0.01042584
0.01004625
0.009168435
0.008056297
0.008274603
0.008038942
0.00758957
0.007152243
0.006421268
0.005747021
0.005099084
0.00454387
0.004149898
0.003929123
0.003896222
0.004013557
0.004251703
0.004855669
0.006434987
0.008586312
0.01001644
0.01074545
0.01082003
0.01108628
0.01101507
0.01020329
0.009428438
0.008258235
0.007682144
0.007441659
0.00690201
0.006427
0.005616854
0.004956803
0.004371101
0.00392199
0.003648751
0.003540481
0.003601644
0.003918394
0.004951459
0.007171083
0.009247107
0.01050229
0.0111969
0.0112924
0.01173645
0.01124778
0.01049199
0.00952496
0.006729149
0.006362554
0.006016439
0.005429395
0.004812074
0.004102253
0.00357869
0.00324092
0.00309469
0.003185153
0.00372645
0.005444207
0.007907087
0.009888699
0.01107957
0.01179473
0.01187981
0.01200646
0.01160868
0.01062487
0.005243491
0.004877827
0.00423055
0.003675051
0.003182372
0.002813645
0.002659859
0.002837773
0.003781288
0.005989189
0.008608254
0.01057887
0.01167744
0.01193587
0.01206886
0.01206942
0.003887239
0.003557419
0.003222071
0.00287483
0.002615766
0.002619904
0.003082232
0.004543613
0.006963459
0.009367496
0.01104544
0.0120786
0.0122113
0.0121068
0.002429
0.002490472
0.002741778
0.003613394
0.005470761
0.007934119
0.01003199
0.01133346
0.0030614
0.003426186
0.003759045
0.005041831
0.005819207
0.006170186
0.002789008
0.003139572
0.003414594
0.003542861
0.003666031
0.004697027
0.005598467
0.006372461
0.007233804
0.00800879
0.00841822
0.008282292
0.007936172
0.007455731
0.002316108
0.002597863
0.00316607
0.00369547
0.003968275
0.004247204
0.00446995
0.006677297
0.01023467
0.007645486
0.008005849
0.008574778
0.008978888
0.009317477
0.009118489
0.008912083
0.008282905
0.007635253
0.002709447
0.00279173
0.00325449
0.00446043
0.00458084
0.004556447
0.004661475
0.005124989
0.007585341
0.01230607
0.009585252
0.009152397
0.009567324
0.009826699
0.009902228
0.009652676
0.009360904
0.009171609
0.00862315
0.007790571
0.003327282
0.003092456
0.003339617
0.004841996
0.00531343
0.005530563
0.005646103
0.005895512
0.006661598
0.009833816
0.0145359
0.01139783
0.01035005
0.01056736
0.01076051
0.01073567
0.0104623
0.01005958
0.009709491
0.009395983
0.008802482
0.008064086
0.004040016
0.003551112
0.003845783
0.004636073
0.00556871
0.006357375
0.006693848
0.006855451
0.007188921
0.008561261
0.01296428
0.01658947
0.01268771
0.01140709
0.01137058
0.01144915
0.01135798
0.01107112
0.01065448
0.01014406
0.009669599
0.009159356
0.008990559
0.008235196
0.004625255
0.004100271
0.003789943
0.00436902
0.005774293
0.007302842
0.008155656
0.008337627
0.008395635
0.009025611
0.01183145
0.01586646
0.01621497
0.01330393
0.01212128
0.01185493
0.01183543
0.01170316
0.01142274
0.01104599
0.01061852
0.01017666
0.009689314
0.009337938
0.00912424
0.008353828
0.005005796
0.004610699
0.00404946
0.004065898
0.00520632
0.007303996
0.009342451
0.01011713
0.01019715
0.01105295
0.01316522
0.01350674
0.0149386
0.01486614
0.01328527
0.01243671
0.01207562
0.01193524
0.01181156
0.01159341
0.01129922
0.01096351
0.01060908
0.01023283
0.009803368
0.009397964
0.009176506
0.008378433
0.005192831
0.005037563
0.004678622
0.004335236
0.004768936
0.006459114
0.009507213
0.01209687
0.01225832
0.01204128
0.01183758
0.01126109
0.01216325
0.013373
0.01361602
0.01295447
0.01243368
0.01213682
0.01194297
0.01181412
0.01170359
0.01153618
0.01131721
0.01106001
0.01076575
0.01041525
0.009988446
0.009752282
0.009147652
0.008442201
0.005209729
0.005083832
0.004668697
0.004527367
0.005327144
0.007598339
0.01284134
0.01547387
0.01207915
0.009443969
0.008950692
0.009834468
0.01113712
0.01227257
0.01271679
0.01253825
0.01228606
0.01213334
0.01205114
0.01198674
0.01189198
0.01182912
0.01174193
0.01158691
0.01135129
0.01100188
0.0104981
0.01004156
0.00949231
0.008693635
0.004916032
0.005260374
0.004947055
0.004639375
0.004634708
0.005795769
0.009371698
0.01897405
0.01461753
0.009212375
0.008023089
0.008496962
0.009575605
0.01081189
0.01179094
0.01224475
0.01227317
0.01222101
0.01224274
0.01231805
0.01239737
0.01243918
0.01241804
0.01229109
0.01216051
0.01197804
0.01163395
0.01107485
0.01034548
0.009530899
0.00901565
0.007811546
0.005046592
0.005269106
0.005014719
0.004771219
0.004733126
0.006060223
0.01384012
0.02242751
0.0122313
0.009203184
0.008859156
0.009473005
0.01049404
0.01160825
0.01250631
0.01303552
0.01328725
0.01347323
0.01365792
0.0137653
0.01375497
0.01366105
0.01355623
0.01341366
0.0132408
0.01289398
0.01231662
0.01166567
0.01067939
0.009490839
0.008691495
0.007428697
0.005288267
0.00545132
0.005231704
0.005007004
0.004904237
0.005743757
0.01282226
0.02593979
0.01611272
0.01206972
0.01151735
0.01214107
0.01328085
0.01449076
0.01540132
0.01594734
0.01634595
0.01675806
0.01726327
0.01787857
0.0183858
0.01840631
0.01779129
0.0169258
0.01622131
0.01542995
0.01448381
0.01326646
0.01154947
0.009675823
0.008263473
0.006745559
0.00557115
0.005449816
0.005365471
0.005229845
0.005096746
0.005548592
0.009830294
0.02276958
0.02211385
0.01519644
0.01243427
0.01169618
0.011752
0.01174619
0.01165112
0.01166206
0.01191734
0.01250501
0.01345252
0.01476089
0.0163639
0.0179691
0.01914635
0.01968614
0.01940551
0.01898452
0.01759492
0.01525767
0.01303199
0.01121668
0.00988188
0.006437952
0.004962606
0.005667822
0.005610444
0.005641143
0.005536973
0.005375974
0.0055265
0.007763104
0.01576175
0.02159807
0.02038405
0.01572204
0.01217514
0.01034998
0.009347588
0.008471745
0.007972701
0.007981653
0.008432531
0.009258673
0.01043904
0.01193136
0.01337442
0.01437054
0.01478724
0.01509668
0.01545087
0.01510123
0.01344946
0.01247607
0.01125399
0.009048942
0.007004069
0.006226376
0.00502698
0.005549202
0.005706381
0.005879386
0.005877116
0.005749594
0.005719136
0.006716198
0.01084354
0.01589202
0.01833606
0.01816715
0.01710949
0.01308283
0.01076355
0.008829139
0.007364901
0.006715908
0.006727684
0.007259566
0.008268363
0.009749349
0.01122716
0.01220001
0.01256238
0.01255021
0.01241325
0.01161704
0.0100638
0.01051206
0.01046883
0.008291235
0.007097981
0.006175393
0.005057782
0.005515097
0.005764109
0.006058695
0.006191534
0.006163578
0.006077835
0.006384551
0.008194811
0.01115692
0.01351985
0.01446861
0.01430112
0.0137136
0.01216997
0.01027677
0.008238922
0.006853528
0.006310317
0.006423354
0.007182525
0.008654276
0.01020372
0.01114872
0.01148391
0.0113484
0.01100989
0.01020598
0.008866364
0.008881735
0.008320914
0.006494782
0.005828376
0.0052607
0.005091497
0.005498273
0.005777897
0.006158113
0.006423192
0.006533253
0.006500418
0.006530568
0.007130239
0.0084538
0.009815888
0.01056858
0.01052216
0.009907725
0.009473419
0.009162375
0.008517777
0.007500294
0.006633637
0.006311966
0.006755273
0.008206481
0.009861938
0.01076007
0.0109986
0.01074543
0.01020801
0.009399344
0.008275124
0.007835038
0.006683471
0.004977416
0.004290902
0.003912988
0.00513498
0.005476515
0.005735731
0.006151959
0.006511549
0.006754707
0.006835272
0.006827461
0.006932399
0.007356509
0.007886429
0.008198082
0.008139262
0.007830746
0.0076845
0.007705551
0.007650111
0.007364912
0.00695118
0.006607232
0.00677288
0.008166298
0.009943117
0.01077527
0.01092246
0.010583
0.009913962
0.009013666
0.007936177
0.007073753
0.005755021
0.004493945
0.003817954
0.003175385
0.00557247
0.005837956
0.005799564
0.00607129
0.006407559
0.00670577
0.00688637
0.006948637
0.006962063
0.007045978
0.007183584
0.007209623
0.007090405
0.006909398
0.006833345
0.006879763
0.006953762
0.006995943
0.00698231
0.006898006
0.007085285
0.008406701
0.01027935
0.01102286
0.01107981
0.01068285
0.009948532
0.008959775
0.007784603
0.006616198
0.005276515
0.004338761
0.003672646
0.00310275
0.006695248
0.006421727
0.006269733
0.006383546
0.006536488
0.006669064
0.006749058
0.006776679
0.00681726
0.006853372
0.006801824
0.006652174
0.006477643
0.006361814
0.006342339
0.00642839
0.006636885
0.006891829
0.00707847
0.007462223
0.008901562
0.01074554
0.01138494
0.01137146
0.01093731
0.01018188
0.009129259
0.007841472
0.006476315
0.005125784
0.004340143
0.003732232
0.007408845
0.007377415
0.007151183
0.007075642
0.006982718
0.006862483
0.006745461
0.00666049
0.006639069
0.006635128
0.006557367
0.006385975
0.006182917
0.006014789
0.005943717
0.006040854
0.006348924
0.006766466
0.007175132
0.00783677
0.009525595
0.01126598
0.01180784
0.01179249
0.01134389
0.01055454
0.00944506
0.008070424
0.006602584
0.005175896
0.004487593
0.003837114
0.007991847
0.00806805
0.007808934
0.007727683
0.007580542
0.007330716
0.007001298
0.00666143
0.006420965
0.006268709
0.006116127
0.005934737
0.005747337
0.005595602
0.005550816
0.005705557
0.006095085
0.006619124
0.007224835
0.008229802
0.01020543
0.0117712
0.01225777
0.01220497
0.01174946
0.01093266
0.009784444
0.0083604
0.006857977
0.0053497
0.004552684
0.003858785
0.008196825
0.008581707
0.008414003
0.008304796
0.008283851
0.008087819
0.007709838
0.007212255
0.006683634
0.006264091
0.005903001
0.005580137
0.005318119
0.005156665
0.00515499
0.005380661
0.005835165
0.006450829
0.007276831
0.008698613
0.01086801
0.01227742
0.01261085
0.01252041
0.01204878
0.01119895
0.01003138
0.008568077
0.007099859
0.005558249
0.00464537
0.003772555
0.00905049
0.009254529
0.009138178
0.008996338
0.008876627
0.008546824
0.008037785
0.007395524
0.006719128
0.006132392
0.005610663
0.005193521
0.004932455
0.004887157
0.005106224
0.00557873
0.006306235
0.007416418
0.00929808
0.01151727
0.01264796
0.01286977
0.0127374
0.01222756
0.01132179
0.01013709
0.00861768
0.007240426
0.005845076
0.004569352
0.008722894
0.009171979
0.009451453
0.009276259
0.009164068
0.008882566
0.008421878
0.007790758
0.007015953
0.006268109
0.005603034
0.005061812
0.004713457
0.004624582
0.004830507
0.005353615
0.006276195
0.007749794
0.01003592
0.01214469
0.01295795
0.01307437
0.01289625
0.01233826
0.01136049
0.01015255
0.008613408
0.007551582
0.005901596
0.004444257
0.008827063
0.009298802
0.009011961
0.008856111
0.008687097
0.008324618
0.00777599
0.007044454
0.006222901
0.005503427
0.004902557
0.004508348
0.00439644
0.004620707
0.005251291
0.006438679
0.008340625
0.01081872
0.0126265
0.01322952
0.01324197
0.01302996
0.01244554
0.01137585
0.01017913
0.008776873
0.007665994
0.005728341
0.008559145
0.008972624
0.008572572
0.008263393
0.007927732
0.007442638
0.006789036
0.006007469
0.005289486
0.004705123
0.004317324
0.004221771
0.004502406
0.005280328
0.006820808
0.00914762
0.01154179
0.01301756
0.01342039
0.01334634
0.01312841
0.01255762
0.01138456
0.01037972
0.009378968
0.007567924
0.007862656
0.008143259
0.007550394
0.007168216
0.006765348
0.006242043
0.005574964
0.004901697
0.004376724
0.00404155
0.004011569
0.004393708
0.005417896
0.007397552
0.009902981
0.01209235
0.0132504
0.01348412
0.01333442
0.0131312
0.01267295
0.01158708
0.0110041
0.009229796
0.006784088
0.0068884
0.006606884
0.006058342
0.005536109
0.004936726
0.004341948
0.003879839
0.003658232
0.003743467
0.004302345
0.005751541
0.008024227
0.01058101
0.01236078
0.01331533
0.01342286
0.0131872
0.01326218
0.01303694
0.01222306
0.0108002
0.005412797
0.005448636
0.005129553
0.004564107
0.004069752
0.003672356
0.003351592
0.003268808
0.003508708
0.004400942
0.006218446
0.008750758
0.01103244
0.01240331
0.01328151
0.0133031
0.01320415
0.01355209
0.01291351
0.01194506
0.004184651
0.004053892
0.003873575
0.003464196
0.003150301
0.002959343
0.002979093
0.003406542
0.004637048
0.006821956
0.009354398
0.01134906
0.01262738
0.01352388
0.01352166
0.01349381
0.01335666
0.01256928
0.002813293
0.002741145
0.002688827
0.002747642
0.002817673
0.003389162
0.004957887
0.007405327
0.009935404
0.01190909
0.01310367
0.0132464
0.01308522
0.0127345
0.002619462
0.003700557
0.005533717
0.00787333
0.009975308
0.01137112
0.00180247
0.002049408
0.002809474
0.003808207
0.004001113
0.004927139
0.005522791
0.00586211
0.006024733
0.005892826
0.001469037
0.001439611
0.001737778
0.00221789
0.00262949
0.003335434
0.004786145
0.005549012
0.005816213
0.006465629
0.007094956
0.007690035
0.007963134
0.00794078
0.007211694
0.006432391
0.002045439
0.001930155
0.002284501
0.002679103
0.002978713
0.003268313
0.003821041
0.006307423
0.008052318
0.007608585
0.008113858
0.008705889
0.009181574
0.009137013
0.008843731
0.008318335
0.008119732
0.007192079
0.003823943
0.002988356
0.002461873
0.002554079
0.0031009
0.003693432
0.004143327
0.0045415
0.005084513
0.007646103
0.01140671
0.009894041
0.009901852
0.01051486
0.010949
0.01090059
0.01051748
0.009744448
0.009074867
0.008272052
0.007451804
0.006507622
0.004931068
0.004011124
0.003155284
0.003023299
0.003645191
0.004695992
0.005374509
0.00561435
0.005797134
0.006258066
0.008606019
0.01366017
0.0125102
0.01180124
0.01209507
0.01244509
0.01237666
0.01195012
0.01120254
0.01029656
0.009143198
0.008165293
0.007669958
0.006847278
0.005455445
0.004983741
0.004047745
0.003559482
0.003961066
0.005269743
0.006539089
0.007119181
0.007259291
0.007408837
0.00811342
0.01068399
0.01577905
0.01511755
0.01360343
0.01341602
0.01354813
0.01338864
0.01290344
0.01217638
0.01130546
0.01028016
0.009163534
0.008308255
0.007777138
0.006791418
0.005610276
0.005565344
0.004852375
0.004177541
0.004161027
0.005277061
0.007028752
0.008323976
0.008776062
0.008766788
0.008802832
0.009702458
0.01286555
0.01806125
0.01700484
0.01507872
0.01450359
0.01425559
0.01393956
0.01338185
0.01267921
0.01193463
0.01115764
0.01028677
0.009258532
0.00840729
0.00783607
0.007028784
0.00553212
0.005833819
0.005409943
0.004828868
0.004454437
0.004938684
0.006750663
0.008947252
0.01017044
0.01044223
0.01028128
0.01031931
0.01196131
0.015923
0.01937483
0.01761795
0.01599573
0.01521854
0.014609
0.01414313
0.01353851
0.01286301
0.01222852
0.01166804
0.01110038
0.01036752
0.009401407
0.008557433
0.008085026
0.007337729