/*--------------------------------*- C++ -*----------------------------------*\
  =========                 |
  \\      /  F ield         | OpenFOAM: The Open Source CFD Toolbox
   \\    /   O peration     | Website:  https://openfoam.org
    \\  /    A nd           | Version:  6
     \\/     M anipulation  |
\*---------------------------------------------------------------------------*/
FoamFile
{
    version     2.0;
    format      ascii;
    class       volScalarField;
    location    "50";
    object      p;
}
// * * * * * * * * * * * * * * * * * * * * * * * * * * * * * * * * * * * * * //

dimensions      [1 -1 -2 0 0 0 0];

internalField   nonuniform List<scalar> 
203709
(
308309.6
308197.8
308255.6
308462
308354.5
308361.9
308340.6
308292.6
308372.3
308583.8
308759.5
308852.1
308251.8
308271.5
308306.8
308346.9
308494.1
308621.9
308726.6
308801.2
308832.3
308929.2
308976.1
308927.2
308401.2
308179.5
308178.8
308367.2
308583.6
308802.6
308982.8
309097.8
309148.4
309139
309072.8
308961.9
308944.4
309048.3
308425.1
308182.8
308303.6
308526.7
308784.6
309039.6
309255.6
309397.8
309454
309428.8
309324.5
309161.8
309004.4
309107.7
308578.8
308342
308224.6
308362.4
308588
308864.5
309146.4
309390.3
309564.5
309649.6
309638.8
309531.6
309344.3
309129.5
309071.4
309135.1
308397.3
308136.2
308179.9
308320.8
308544.2
308836.6
309156.6
309443.2
309650.5
309755.2
309759.5
309661
309463.5
309201.4
308950.8
308979.7
308298
308207.6
308075.2
308136.1
308265.1
308492.1
308811.2
309154.7
309453.8
309676.7
309802.1
309812.5
309716.8
309516.4
309224.1
308905.4
308750.6
308706.5
308082
308003.5
308070
308170.2
308323.9
308563.5
308889
309220.3
309489.1
309692.6
309816.1
309822.9
309718.7
309512.7
309200.7
308835
308504.7
308431.5
308071.1
308019.4
308140.7
308298
308500.9
308757
309054.4
309343.3
309564.5
309722.9
309809.4
309794.8
309676.6
309456.7
309132.9
308756.3
308417.7
308342.3
308263
308223.2
308242.6
308432.8
308672.3
308939.8
309208.5
309454.6
309640.7
309749.2
309782
309735.9
309598.7
309357.3
309029.2
308677.8
308493.5
308443.6
308382.2
308309.5
308501.5
308752.8
309024.2
309278.1
309488.8
309640.6
309716.1
309715.7
309644.3
309480.9
309220.9
308899.7
308592.2
308575.4
308502.2
308438.6
308487.2
308721.8
308988.6
309236.2
309432
309560.4
309615.5
309596.7
309500
309312.8
309041.7
308745.5
308605.2
308626
308463.3
308397.1
308600.4
308848.8
309082.2
309266.8
309382.5
309426.3
309401.8
309293.7
309102.5
308836.6
308579.5
308604.5
308421.9
308379.4
308461.5
308668.3
308860.2
309017.7
309118.9
309159
309140.4
309049.3
308889.3
308657
308525.7
308549.4
308457.6
308562.1
308629.8
308646.1
308748.4
308811.5
308850.2
308865.2
308821.4
308825
308731.5
308626.8
308690.2
308682.4
308634.2
308534.4
308572.7
308742.7
308842.8
308881.3
308609.9
308486.3
308526.6
308719.7
304402.3
304514.7
304808.1
305044.7
305150.4
305132.7
305034.4
304864.6
304650.2
304587.7
304423.8
304522.7
304638.8
304815.1
305091.7
305300.8
305398.9
305406
305353.8
305234.5
305057.8
304947.2
304855.2
304704.2
304755.4
304662.4
304763.6
305010.7
305265.4
305545.3
305701.9
305743.5
305777.5
305827
305799.7
305647.5
305470.3
305224.9
305027.8
305039.9
305009.5
304954.9
305035.5
305228.9
305472.1
305670.9
305762.5
305827.6
305673.5
305727.8
306005.5
306095.8
306156
306058.9
305801.4
305518.3
305296.7
305245.6
305085.1
305171.6
305306.8
305505
305636.3
305690.5
305787.8
305646.8
305530.6
305212.6
305290
305780
306048.6
306337.8
306344
306297.4
306084.5
305733
305438
305275.1
304939.8
305209.6
305479.9
305742.7
305774
305717.9
305551.1
305443.5
305138.7
305165.8
305225.5
305329.5
305474.7
305633.7
306094
306290.4
306466.4
306425.8
306248.3
305822.2
305425.7
305150.2
305182.4
305484.4
305833.9
306025.5
305885
305413.4
305011.9
305014.3
305110
305256.7
305402.9
305522.9
305614.7
305682.8
305747.4
305826.1
306218.4
306602.1
306596.9
306250.2
305770.2
305435.7
304955.8
305336.7
305755
306124.2
306131
305752.8
305033.3
304909.3
304989.7
305166.1
305372.9
305564.8
305710.5
305794.5
305820.2
305803.9
305786.2
305874.1
306453
306678.5
306531.1
306058.3
305612.9
305274.1
305002.5
305421.9
305925.7
306218.4
306094.4
305540.8
304908.9
304842
304955.7
305168
305412.7
305636.4
305808
305909.6
305934
305890.7
305815.8
305803.2
306248.2
306621.1
306578
306178.7
305670.1
305310.9
305157.8
305510.7
305997.8
306118.3
305778.2
304989.6
304746.4
304731.1
304865.2
305103.1
305385.4
305643.9
305844
305965.4
305998.9
305948.7
305839.1
305735.3
305762.8
306284.4
306441.8
306225
305732.6
305413.7
305263.5
305544.2
305928.1
305922
305468.1
304792.2
304628.5
304632.9
304784.8
305053.2
305359.6
305632.9
305843.9
305978.2
306017.4
305963.1
305832.3
305669.5
305580.9
305960
306243.6
306134.5
305701
305417
305309.3
305540
305834.5
305636.1
304973.5
304706.1
304614.6
304655.6
304829.9
305108.8
305408.9
305660.6
305849.7
305974.1
306007.9
305943.8
305796.6
305597.3
305429.3
305426.7
305890.9
305963.3
305592.8
305328.3
305292.9
305514.4
305804.7
305618.5
304981.2
304768.9
304730.3
304815.8
305005.3
305263.1
305526.4
305738.4
305887.3
305972.6
305981.6
305900.1
305737.2
305523.5
305340.8
305325.1
305785.8
305835
305446.6
305168.8
305208.9
305457.8
305824
305858.9
305457.5
304929.7
304890
304998.2
305191.8
305424.2
305648.2
305821.7
305926.5
305966
305942.1
305838.4
305661.2
305455.3
305324.9
305662
305929.2
305752.4
305272.3
304953.8
305054
305345
305788.7
305954
305726.5
305115.5
305024.9
305120.7
305305.8
305515.8
305707
305848.8
305923.7
305932.9
305880.9
305756.5
305574
305399.2
305360.5
305828
305909.9
305629.8
305063.6
304696.9
304843.3
305174
305640.4
306000.9
306012
305604.9
305135.6
305171.3
305330.3
305518.3
305686
305805
305862.7
305857.1
305788.1
305653.2
305482.2
305375.3
305729
306039.3
305896.9
305415.5
304834.6
304430.3
304753.8
305054.4
305456.4
305898.3
306025.1
305800.9
305234.1
305192.4
305300.8
305451
305591.4
305692.1
305742.1
305736.4
305670.7
305551.4
305418.4
305393.1
305870.1
305990.9
305759
305209.9
304708.1
304343.8
304900.9
305190.3
305632
305957.5
305962
305627.4
305296.7
305316.6
305382.1
305469.1
305541.5
305589.3
305604.2
305579.2
305532.8
305482.9
305745.1
306012.3
305910.2
305483.5
304958.2
304618.4
304707.1
304960.4
305324.4
305728.5
305914.1
305990.5
305882.9
305783.5
305442.1
305423.1
305428.2
305475.1
305552.5
305628.1
305983.1
306058.5
306108.1
305955.3
305691.8
305206.2
304783
304484.1
304892.4
305065.6
305358
305727.9
305978.9
306102.3
306176.7
305993.2
305839.7
305475.8
305521.1
305964.9
306182
306383.4
306273.2
306097.8
305786.9
305355.2
305011.3
304811.4
304953.9
305058.3
305310.7
305634.5
305951
306123.8
306160.4
306160.7
305985.6
306032.8
306296.2
306355.5
306324.9
306121.6
305764.8
305394.8
305105.8
304994.8
304870.1
304930.2
305173.5
305480.7
305727.3
305954.3
306059.9
306091.7
306139.4
306200.4
306150
305926.8
305653.9
305324.2
305052.7
305001.6
304658.4
304874.9
305053.5
305226.1
305467.6
305650.8
305757.9
305805.7
305787.7
305655.6
305416
305230.1
305057.6
304857
304743
304873.7
305152.1
305375
305508.6
305549.5
305486.7
305304.7
305056.6
304965.1
300586.5
300645.9
300838.1
300894.4
300808.2
300667.4
300497.9
300479.8
300462.2
300684.8
301030.6
301150.4
301287.7
301490.4
301564.5
301483.5
301341.4
301171.2
301072.8
300995.2
300674.7
300498.2
300945.3
300973.7
301223.1
301472.2
301680.5
301933.8
302151.4
302245
302174.5
302041.1
301865.3
301668
301498.9
301257.9
301009.2
301040.5
300667.7
301086.7
301369.2
301522.1
301632.4
301785.2
301804.7
302037
302239.5
302330.9
302289.2
302189.3
302045.3
301886.3
301906.7
301736.7
301609.2
301442.9
301197
300838.4
300783.7
301074.6
301509.1
301747.1
301823.6
301697.8
301659
301477.5
301638
301790.2
301855.7
301847.2
301803.8
301736.9
301672.1
301900.3
301933.9
301998.4
301855.3
301604.8
301192.5
301008.6
300795.7
301144.2
301644.6
301957.5
302032.2
301730
301398.9
301406.2
301483
301579.6
301674.5
301726.9
301752.9
301780.7
301810.8
301817
301798.9
301769.1
302001.6
302203.4
302062.6
301752.2
301303
301068.6
301274.9
301678.8
302074.8
302247.7
301965.4
301554.8
301474.1
301453.1
301473.8
301530.2
301560.1
301570.5
301623.3
301737.4
301859.4
301940.5
301972.5
301956.8
301938.3
302207.2
302389.3
302185.3
301829
301503
301253.8
301651.7
302048.6
302333.3
302164.6
301798.9
301646.7
301521.5
301457.3
301423.5
301419.9
301421.8
301427.1
301501.5
301657.2
301819.7
301965.4
302066.8
302104.2
302105.9
302111.4
302353.3
302466.8
302204.9
301855
301534.1
300824
301317.7
301913
302304.7
302235.8
302001.3
301897.2
301694.1
301488.7
301359
301296.4
301282.6
301326.8
301396.3
301497.5
301629.4
301771.2
301931.7
302061.8
302163.9
302244
302277.1
302249.6
302417.5
302497.9
302143.1
301569.7
301091.2
301045.8
301617.8
302097.1
302308.8
302092.7
302112.6
301967
301679.9
301387.5
301208.7
301170.9
301226.7
301338.6
301466.7
301587.5
301697.4
301798.4
301899.3
302006.5
302158
302337
302452.4
302435.8
302337.6
302564.8
302391.2
301906.2
301318.5
301389.5
301883.3
302297.9
302311.5
302162.4
302173.5
301975.2
301619.6
301266.7
301099
301095.8
301199.6
301356.1
301520.3
301666.3
301775.5
301847.9
301897.7
301953.2
302069.5
302285.5
302472.2
302523.6
302451.1
302611.8
302645.1
302208.7
301677.7
300925.7
301471.8
302044.8
302256.6
302040.7
302153.3
302133.9
301869.8
301473.5
301123.9
300973.7
300988.8
301121
301313.9
301511.4
301679.9
301803.7
301873.4
301898.4
301909.1
301963.5
302126.8
302319.6
302434.2
302418.1
302345.3
302594.5
302367.4
301743.2
301093.2
300930.3
301554.1
302210.5
302361.5
302022.8
302048.5
301970.7
301670
301239.8
300930.3
300806
300837.3
300997
301227.9
301458.7
301655.1
301797.4
301873.4
301887.4
301864.7
301855.2
301928.1
302105.5
302253.3
302289.3
302282.9
302630.6
302464.1
301750
301041.9
301077.9
301685.9
302332.7
302439
302006.4
301915.8
301739.4
301426.1
301039.8
300779.2
300664.7
300708.6
300897.3
301158.1
301407.3
301615.2
301766.9
301847.7
301854.8
301808
301749.2
301747.7
301865.6
302015.2
302113.8
302173.6
302582.1
302443.6
301734
301043
301165.1
301759.7
302396.3
302473.5
301987.2
301828.6
301575.4
301245.7
300943.9
300737.6
300649.4
300722.3
300928
301183.3
301416.9
301603.3
301740.3
301813.6
301809.7
301743.6
301650.7
301594.6
301644.1
301796.2
301940.3
302030.4
302461.7
302322
301607.9
300927.1
301163.6
301759.5
302391
302458.3
301961.8
301795.1
301544.5
301235.8
300985.4
300836.6
300798.2
300891.2
301082
301303.7
301498.6
301644.5
301742.9
301786.6
301762.8
301679.7
301570.6
301497.9
301530.7
301668.7
301795.7
301869.1
302284.8
302124.3
301391.4
300699.3
301085.4
301688.2
302315.7
302390.6
301923.6
301801.6
301625.4
301367.7
301118.2
300996.3
300992.7
301094.2
301264.3
301448.4
301603.1
301707.5
301762.2
301769.7
301721.6
301623.7
301516.3
301466.5
301535.7
301640.7
301690.9
301704
302070.9
301876.6
301121.4
300404.4
300957.9
301564.2
302182.1
302276.7
301870.3
301829.7
301741.5
301532.9
301280.2
301149.1
301150
301246.3
301393.4
301546.1
301669.8
301745.6
301771.6
301751.5
301683.1
301578.4
301490
301485.3
301588.1
301658.7
301626.1
301550.6
301846.8
301617.5
300854.8
300120.9
300952.9
301481.5
302004
302136.9
301818.2
301839.7
301819.9
301678.2
301456.5
301281
301255
301330.5
301452.8
301580
301682
301741.7
301754.5
301721.7
301645.7
301548.8
301498
301557.8
301654.5
301672.7
301574.9
301438.1
301649.1
301384.3
300718.7
300049.9
301382.6
301831
302152.1
302049
301817.2
301846.7
301777.2
301593.9
301399.5
301337.6
301378.3
301466.5
301565.7
301649.2
301702
301715.9
301688.4
301624.3
301552.1
301541.2
301634.3
301708.5
301670
301534.3
301656.3
301668.2
301230.7
300678.8
301057.3
301573.3
301965.5
302059.8
301770.3
301817.4
301801.7
301688.1
301545.3
301459.6
301454.1
301487.7
301545.5
301605.1
301655.6
301685.4
301686.8
301664.3
301634.5
301649.3
301704.5
301723.9
301644.8
301508.3
301706.5
301527.3
301040
300428.7
300854.2
301287
301792.2
302079.1
301970.6
301770.9
301782.6
301756
301709
301668.7
301628.2
301585.5
301583.1
301603.1
301652.9
301717.9
301774.9
301823.2
301828.9
301802.5
301775
301724.6
301635.9
301763.8
301799.1
301438.2
300847.6
300310.7
301254.5
301576.1
301889.8
302126.4
302010.5
301768.1
301781.9
301819
301844.6
301826.4
301784
301736.4
301703.7
301752.5
301868.6
301972.7
302017.9
301996.7
301915.7
301819.8
301745.5
301927.1
301983.9
301688.2
301310.4
300892.4
301236.8
301581.7
301944.1
302152.3
302000
301758.3
301819
301894
301937.4
301945.9
301919.2
301904.6
301952.4
302051
302130.9
302121.8
302042
301925.6
301821.2
302018.7
302128
301870.1
301457.7
301063.5
300804.3
301102.5
301579.8
301922.5
302093
301937
301750.8
301838.5
301925.4
301995.1
302042.7
302088.7
302134.7
302172.2
302173.3
302099.9
301986.5
301872.2
302030.6
302162.6
301961
301580.1
301061.7
300697.2
300800.1
301070.5
301523.6
301826.1
302021.6
302011.9
302036.9
301872.1
302001.2
302127.6
302217.7
302263.9
302254.5
302167.6
302036.8
302193.3
302161.3
302156.8
301952.1
301637.1
301152.9
300846.7
300707.6
301130.7
301469.3
301697.7
301890.9
302115
302157.9
302375.3
302565.3
302688.6
302736.5
302686.8
302529.7
302325.3
302291.8
302072.8
301891.5
301677.2
301339.8
300903.7
301076.9
301143.1
301454.7
301756.3
301995
302250.8
302463.9
302598.6
302638.8
302566.1
302390.5
302167.4
301974.3
301703.5
301418.9
301418.2
300641.4
300893.3
301283
301440.5
301597
301804
301936.3
301968.7
301895.9
301739.8
301632.4
301553
301232.8
301058.5
300871.3
300950.1
301157.3
301291.1
301317.8
301244.5
301119.7
301157.8
296683.2
296615.2
296614.9
296558.1
296480.5
296551.1
296467.8
296714.8
297134.5
297451.6
297431.6
297445.4
297446.8
297374.2
297282.2
297273
297348.1
297087
296705.8
296478.1
296519.8
296966
297185.4
297395
297647.1
297855.3
297806.5
297916
297929.4
297840.7
297735.8
297647.5
297743.8
297584.9
297368.7
297175.5
296966.8
296539
297043.7
297268.5
297523.9
297716.6
297755
297903.6
297923.8
297746.8
297859.4
297889.8
297797.2
297684.9
297603.9
297829.8
297843.2
297714
297691.7
297509.4
297274
297111.5
297415.3
297587.6
297815.6
298007.9
297789.7
297549.6
297603.5
297702.9
297832.3
297982.3
298034.2
297953.3
297836.2
297722.4
297640.9
297576.7
297536.8
297773.1
297993
297819.6
297638.6
297558.9
297549.7
297713
297962.2
298030.3
297992.5
297634.9
297579.2
297584.2
297652.7
297789.4
297938.9
297998.7
297936.4
297841.7
297739.5
297654.9
297614.3
297607.3
297647.2
297991.3
298040.9
298008.3
297826
297776.3
297527.7
297763.1
297986.5
297933.5
297771.8
297737.3
297638.5
297554.7
297520.5
297548.6
297659.6
297783.3
297839.9
297812.6
297763.9
297708.9
297664.8
297659.4
297668.5
297700
297760.6
297794.6
297986.2
298089.4
297944.7
297822.8
297248.4
297734.6
298065.6
297994.8
297830.1
297834.9
297770.3
297625.8
297493.3
297439.4
297464.5
297545.1
297639.2
297700.9
297716.9
297723
297728.1
297728.8
297729.2
297734.2
297772.7
297834.6
297869.3
297886.6
298096.9
298229.1
297968.3
297586.1
296800.6
297500.4
298013.9
298196.1
297908.6
297923.8
297910.2
297792
297618.2
297474.1
297404.3
297392.9
297445.8
297525.1
297585.4
297633.1
297691.4
297752.7
297801.4
297831.6
297846.2
297867.6
297921.7
297972.8
297987.6
298016
298357.3
298226.1
297764
297140.2
297279.6
297802
298263.3
298232.8
297975.1
297992.2
297948.1
297821.4
297653.6
297488.1
297367.2
297338.3
297373.1
297436.3
297498.3
297569.1
297661.4
297758.6
297847.1
297915
297957.4
297986.5
298017.9
298057.6
298083.3
298100.8
298403.4
298472.9
298036.6
297548.8
296859.7
297534.9
298037.6
298103.4
297964.1
298001.5
298021.2
297995.8
297887.9
297681.8
297468.6
297330.7
297282.2
297305.6
297374.9
297460.2
297556.6
297665.6
297776
297882.9
297974.1
298048.8
298109
298146.6
298157.8
298164.3
298171
298168.9
298327.2
298266
297742.3
297088.4
297121.8
297771.9
298099.6
297910.8
297974
298030.7
298069.7
298076.5
297926.8
297666.3
297421.6
297262.1
297211.9
297251.6
297348.3
297466.9
297583.1
297692.8
297799.5
297904.1
298006.4
298115.1
298222.9
298294.2
298301.8
298275.5
298270
298240.8
298176.8
298346.6
297962.2
297286.6
297544.1
298016.5
298248.1
297971.5
298002.1
298046.5
298109.9
298100.6
297917.9
297623.3
297343.3
297169.9
297123.2
297179.3
297298.5
297439.2
297580.1
297701.8
297801.6
297887.1
297971.9
298078
298213
298334.6
298392.1
298380.1
298359.8
298337.8
298290.4
298523.7
298213.9
297669
297829.8
298181.2
298238.7
298028.6
298022
298016.2
298065.5
298045.5
297839.7
297512.9
297210.3
297026.5
296977.9
297045.1
297189.6
297360.3
297522.5
297662.4
297768
297842.5
297902.9
297978.3
298092.2
298219.1
298315.1
298353.5
298360.7
298380.6
298367.9
298524.9
298402.4
297933.4
297085.9
297758.4
298079.6
297996.7
298077.1
298056.3
297988.5
297963.1
297889.1
297671.2
297333.5
297017.5
296832.8
296785.7
296873.2
297050.4
297251.6
297441.6
297600.7
297715.6
297785.1
297824.8
297864.4
297938.9
298050.7
298155.3
298225.3
298278.6
298355.2
298354.7
298212.9
298217.9
297785.1
296998.1
297018.9
297761.7
298147.1
298034.9
298132.9
298090.5
297964.7
297860.6
297715
297472.1
297150
296859.2
296668.7
296620.2
296730.4
296939.9
297161.9
297364.3
297531.6
297651.5
297716.9
297739.1
297746.7
297780.1
297862.9
297965.2
298055.2
298138.1
298248.2
298258.9
298102.3
298121.6
297637.3
296819.6
297091.6
297829
298203.5
298073.4
298168.3
298107.6
297944.6
297792.1
297601.4
297349.8
297064.8
296807.7
296628.9
296607.6
296737.9
296944.5
297155.8
297338.2
297488
297597.6
297652.6
297658
297639.7
297639.1
297690.4
297783.9
297880.7
297970.6
298084
298093.3
297928
297962.9
297491.2
296691.4
297104.1
297840.4
298211
298076.2
298164.9
298096.4
297924.2
297762.9
297571.4
297338.8
297098.1
296895.4
296769.8
296773.3
296892.5
297069.2
297244
297386.5
297498
297575
297607
297593.6
297557.8
297539.2
297572.4
297647.6
297725
297795
297887.2
297874.2
297692.2
297722.3
297247
296459
297072.3
297809.1
298179.6
298046.8
298123
298054.9
297898
297762.3
297605.9
297409.5
297205.2
297048.6
296969.8
296991
297096
297237.8
297372.6
297476
297545.7
297584.2
297587.7
297554.3
297509.8
297490.2
297520.5
297569.2
297603.1
297629.5
297682.4
297639.3
297440.1
297443.8
296964.1
296189.8
297176.2
297839.8
298143
298022.7
298061.8
297993
297865.5
297773.6
297665.5
297509
297332
297200
297145.7
297173
297261.4
297374.6
297479.6
297555.9
297598.2
297608.9
297588.4
297540.4
297496.7
297486.5
297516.6
297536.9
297521.2
297494.6
297503.4
297441.5
297259.1
297234.5
296797.3
296126.4
297923.8
298262.5
298275.6
298003.8
297929.3
297835.4
297780.3
297715.9
297601.9
297454.1
297330.4
297279.3
297299.6
297369.7
297460.9
297546.2
297607.6
297637.2
297634.7
297602.5
297550.3
297516
297520.2
297541.2
297531.3
297476.1
297412
297385.8
297330.2
297455.7
297308
296840.2
297663.2
298108.6
298286.2
297935.8
297885.5
297827
297775.7
297742.1
297670.1
297554.3
297440.8
297384.7
297390.7
297440
297510.6
297581.2
297636.1
297664.9
297663.3
297633.2
297586.9
297563.4
297572.5
297578.7
297542
297468.3
297409.5
297358.9
297294.3
297518.3
297213.9
296655.5
297291.9
297867.7
298135.5
297872.2
297853.3
297814
297761.1
297740.8
297701.5
297626.2
297544
297493.2
297484.6
297508.3
297554.9
297610.3
297662.8
297699.6
297711.3
297696.2
297661.6
297640.3
297632.3
297615.3
297563
297492.8
297451.8
297399.6
297323
297480.4
297104.9
296395.3
297092.1
297648.9
298076.8
298079.1
297855.2
297807.2
297766.7
297735.1
297710.7
297677
297642.5
297619.3
297607.3
297607.5
297628
297665.2
297716.1
297766.9
297799.2
297802.1
297772.3
297733.1
297694.9
297654.6
297605.2
297562.9
297526.7
297499.3
297641.2
297551.6
297028.3
296286.2
297424.1
297868.1
298253.3
298157.8
297822.9
297793.1
297763.1
297726.8
297712
297716.6
297727.7
297733.5
297737.2
297746.1
297769
297817.8
297878.9
297919.9
297915.7
297870
297807.3
297747.4
297705.5
297683.4
297653.8
297625.5
297899
297916.6
297450.1
296900.2
296992.8
297587.5
298024.2
298143.7
297803
297785.3
297786.6
297755.8
297728.3
297745.3
297784
297821.4
297852
297877
297907.9
297953.2
298001.2
298021.9
297986.3
297915.3
297839.7
297783.5
297769.2
297755.3
297710.7
297684.9
297971.1
297786.1
297261.1
296517.5
297373.5
297768.3
298036.3
297935
297752.2
297769.5
297770.1
297744.7
297749.5
297797.6
297859.5
297926.4
297988.1
298041.9
298082.7
298101
298076.4
298002.6
297918.6
297849.6
297820.9
297819.5
297791.2
297744.3
297894.2
297947
297605.5
297069.1
297580.6
297768.2
297961.7
297908.9
297759
297773.7
297763.3
297781.4
297825.7
297888.7
297990.2
298091.9
298168.2
298206
298191.4
298114.7
298010.6
297941.3
297891.6
297866.3
297870.6
297843.4
297974.5
297996.9
297756.5
297469.8
297568
297715
297962.5
298050.3
298061.6
297776
297795.3
297860
297956.9
298092.3
298225.6
298320.2
298354.2
298307.8
298193.3
298067.1
297979.6
297929.4
297928.2
298232.6
298219.9
298116.4
297854.6
297651.9
297432.3
297609
297862.4
298102.7
297947.3
297774.4
297876.6
298001.1
298133.7
298272.1
298370.1
298393.4
298333.5
298222.2
298117.7
298024.5
297958.2
298174.3
298359
298140.3
297892.2
297709.3
297074.5
297331.6
297631.9
297888.1
297982.9
298178.1
298227.1
298060
298168.2
298255
298271.9
298221
298154.7
298381.3
298384.5
298243.5
298208.3
298021.4
297748.5
297546
296590.2
297087
297371.8
297649.3
297946.6
298171.9
298136.3
298260.6
298357.6
298379
298325.7
298260
298380.1
298239.9
298028.1
297837.8
297630.9
297209.6
296665.2
296969.9
297448.5
297793
297788.9
297838.4
297940.5
297969.2
297930.7
297958.6
298089
297873.6
297541.1
297371.6
297062.6
297044
297158.1
297208.4
297211.4
297379.6
292535.3
292800.3
293016.4
293076.2
293090.9
293064.8
292991
292914.6
292742.3
292513.9
292616.5
292956.9
293325.9
293495.6
293650
293784.4
293623.1
293580.2
293529
293481.2
293633
293554
293448.7
293301.3
292925.8
292581.9
293389.3
293363.4
293616.2
293697.5
293902.8
294022
293956.7
293633.2
293554.4
293478.9
293454.2
293782.7
293896.4
293831.2
293649.6
293562.6
293309.4
293349.4
293186.9
293679.8
293839.3
293750.2
293743.4
293566.4
293643.4
293695.6
293702.5
293711.3
293671.6
293579.7
293518.9
293522
293557.2
293551.4
293500.7
293683.8
293692.2
293792.2
293645.5
293149
293503.1
293805.3
294039.6
293890.4
293637
293580.9
293575.5
293629.4
293675.9
293714.1
293779.2
293776.7
293682.6
293595.2
293548.3
293548.2
293537.1
293502
293511.1
293571.3
293838.5
294006.4
293796.4
293541.4
293640.8
294014.5
294260.3
294088.4
293792
293705.4
293615.8
293569.5
293591
293649.1
293731.3
293829
293850.3
293768.2
293669
293593.5
293547.1
293517.6
293507.2
293550.9
293640.1
293744.5
294068.6
294279.1
294085.7
293795.4
293559.5
294046.6
294369.2
294201.5
293864.8
293792.7
293722.9
293627.5
293571.7
293565
293608.7
293697.4
293804.1
293836.9
293771.4
293681.8
293609
293557.1
293531.2
293533.9
293577.7
293670.2
293757.1
293861.8
294242.6
294466.7
294217.3
293839.4
293293.6
293898.2
294332.7
294240.7
293912.2
293817.7
293764.3
293708.8
293626.5
293551
293512
293529.3
293605.9
293706
293749.5
293708.1
293651.8
293605.7
293573.7
293563
293572.3
293607.6
293670.8
293740.4
293830.5
293971.2
294354.3
294508
294155.8
293668.6
293839.7
294182.4
294206
293951.1
293867.5
293815.2
293780.8
293721
293615.4
293502.3
293431.7
293423.9
293491.3
293582.2
293635.9
293637.3
293625.3
293616.6
293612.8
293615.8
293628.6
293660.7
293711.1
293766.4
293835.2
293937.8
294073.1
294380
294415.9
294159.4
293643
294061.5
294085.2
293961.7
293934.6
293874.6
293846.8
293818.1
293736.6
293599.1
293448.2
293351.8
293331.8
293373
293466.7
293540.7
293579.8
293609
293638.1
293665.1
293688.1
293709.4
293737.8
293779.7
293826.9
293877.6
293952.4
294060.4
294130.3
294294.1
294308.8
293975.8
292921.8
293645.5
294016.3
293882
293929.8
293928.2
293894.1
293883.6
293855.2
293760.9
293599
293436
293301.7
293252.9
293304.3
293393.9
293476.4
293541
293602.2
293662.7
293718.7
293765.4
293802.2
293834.5
293868
293904.2
293941
293989.9
294062.8
294093.1
294069
294221.6
293878
293188.5
293303.8
293939.4
294051
293874.5
293897.8
293901.8
293906.1
293916.5
293902.5
293808.5
293624.6
293412.4
293272.2
293224
293261
293344.5
293437.4
293526.8
293616.1
293700.9
293778
293845.3
293900.9
293945.2
293978.4
294000.7
294018.9
294040.2
294063.6
294072.5
294051.2
294219.2
294110.7
293477.6
293710.3
294060.1
293911.5
293904.5
293895
293903.8
293924.9
293957.3
293971.5
293846.4
293606
293386.5
293234.6
293178.6
293210.2
293299
293410.3
293519.1
293621.2
293722.5
293819.6
293909.5
293991.6
294061.3
294105.4
294119
294118.7
294119.5
294114.4
294100
294087.8
294059.2
294180.3
293801.8
292963.2
293899.4
294279.1
293994.9
293964.6
293926.3
293919.7
293936.3
293983.5
293983.6
293834.4
293576.2
293329.9
293157.7
293088.7
293115.8
293209.3
293331.9
293463.6
293587.6
293699.1
293799.4
293891.6
293983
294077.7
294161.1
294207.4
294211.6
294203.9
294191.3
294173.5
294165.1
294136
294362
293916.1
292960.2
293237.2
294047.7
294373.8
294019.5
293985.2
293953.1
293929.4
293915.6
293931.9
293923.6
293766.8
293485.3
293210.7
293014
292927.5
292949.4
293055.7
293202.2
293356.1
293503.9
293631.5
293735.2
293820.2
293899.2
293985.5
294075.2
294153.4
294203.3
294226.1
294233.1
294222.2
294192
294160
294435.9
294018.7
293153.4
293447.4
294152.1
294276.8
293987
293972.5
293970.7
293937.6
293884.8
293842.4
293779.4
293615.5
293332.1
293026.9
292812.4
292715.2
292745.8
292876.5
293051
293232.3
293401.7
293544.2
293652.2
293730
293791.8
293858.7
293936.9
294015.7
294086.7
294145.2
294189.9
294188.1
294129.3
294074.2
294294.2
294095.4
293299.4
293554
294020
293951.9
293963.6
293979
293991.3
293945.7
293857
293761.2
293639
293444.2
293163.2
292870.5
292640.3
292527.4
292573.3
292734.9
292931
293125.3
293303.9
293453.2
293562.4
293631.7
293675.1
293718.8
293779.1
293850.1
293922.3
293993
294059.2
294068.8
293999.9
293912.1
293827.8
293835.9
293315.4
293662.4
294072.3
293952
293973.7
293992.9
294005.1
293948.2
293835.9
293708
293553.7
293347.5
293087.2
292816.1
292587.9
292495.4
292561.1
292723.6
292911.7
293089.3
293249.4
293386.4
293486.5
293543.3
293568
293588.6
293627.8
293684.8
293748.2
293811.2
293871.9
293879.1
293806.4
293712.2
293627
293701
293275.1
293683.9
294094.2
293968.8
293983.4
293995.6
294001.5
293938.2
293818.9
293683.8
293528.1
293336.9
293114.8
292893.7
292718.6
292655.8
292715.4
292851.8
293006.5
293146.2
293267.5
293370.7
293444.5
293481.2
293487.4
293488.4
293508
293544.5
293585.8
293626.1
293661.8
293647.6
293557.5
293463.3
293385.4
293486.5
293104.2
293636.9
294094.2
294007.7
293997.1
293989.2
293980.3
293913.5
293800.9
293679.7
293544.2
293383
293203.5
293036
292915.7
292880.9
292934
293039.8
293156.3
293258.4
293340.1
293403.3
293443.8
293455
293444.1
293430.2
293433.7
293445.3
293454.2
293460.7
293463.8
293419.2
293308.2
293211.2
293152.5
293248.5
292858.3
293599.1
294278.4
294373.1
294042.3
293989.6
293951.8
293880.1
293781.1
293684.2
293578.4
293450.2
293307.6
293180.2
293097.8
293080.7
293125.6
293207
293296.1
293372.3
293427.5
293461.7
293474
293462.7
293437.9
293415.1
293405
293392.2
293368.1
293340.3
293314.5
293255.2
293153.2
293073.8
293312.1
293249.9
292660.7
293438.6
294206.6
294489.9
294084.2
294000.4
293919.3
293842.9
293761.7
293689.1
293613
293516.8
293405.4
293304.4
293241.7
293230
293265.9
293330.9
293403.3
293465.4
293507.2
293525.8
293521.1
293495.6
293463.1
293436.1
293414.5
293382.2
293334.6
293284.8
293242.3
293189.1
293132.4
293086.2
293403.5
293145.1
292445.6
293230.5
294091.4
294413.1
294065.8
293977.5
293878.3
293807.8
293744.2
293686.5
293633.3
293565.9
293482.4
293401.8
293350
293339.6
293367.5
293420.4
293482.2
293538
293576.2
293590.2
293578.9
293546.9
293511.2
293480.6
293450.4
293406.8
293351.2
293299.8
293253.8
293209.5
293186.9
293161.1
293409.8
293071.4
292231.5
293969.2
294224.2
293991.4
293917.1
293842.6
293784.5
293728.9
293677.7
293637
293592.1
293535.8
293480
293442.9
293434.9
293454.8
293496.8
293550.3
293603.6
293643.4
293659.6
293648.4
293613.6
293574.3
293536.7
293500.4
293455
293406.3
293367.8
293332.6
293295.1
293269.3
293243.8
293363.5
293028.7
293622.9
294138.3
294156.6
293896.2
293853.6
293792.9
293730.7
293681.9
293643.8
293610.5
293577.8
293549.7
293533.2
293531.8
293547.3
293580.3
293626.4
293677.7
293720.2
293739.8
293728.1
293687.2
293640.2
293595.3
293556.5
293519.4
293488.6
293469.4
293461.8
293444.8
293403.3
293570
293424.8
292796.5
293303
293884.6
294140
293920.9
293901.4
293842.6
293753.8
293700.8
293664.5
293633.9
293613.8
293607.3
293611.6
293624.2
293646
293678.2
293720.6
293768.8
293809.4
293824.6
293801.8
293749.7
293694.5
293647.7
293614.9
293593.1
293578.8
293582.6
293619.2
293614.6
293560.3
293680.8
293299.3
292542.6
293947.4
294205.3
294144.6
293953.2
293874.7
293774.4
293718.2
293687.9
293661.6
293643.4
293647.1
293668.4
293699.7
293737.8
293780.6
293826.6
293870.1
293898.8
293896.1
293851.2
293788
293730.8
293691.2
293672.8
293663
293657.8
293678.6
293738.1
293763
293884.5
293842.7
293380.2
294008.6
294252.2
294211.3
293914.2
293805.4
293738.7
293707.9
293688.3
293672.5
293678
293709.2
293757
293815.8
293876.8
293931.1
293968.4
293977.7
293945.5
293876.6
293809.2
293758.8
293733.4
293729.3
293728.5
293736.6
293776.8
293851.6
294101
294057.8
293693.3
293460.9
293962.6
294337.1
294221.4
293879.2
293785
293744.1
293723.1
293705.9
293715.3
293752.8
293812
293890.3
293969.8
294032.2
294063
294048.5
293983
293900.1
293837.7
293797.8
293786.1
293801
293815.4
293844.1
293918.5
294230.9
294293.3
293830.7
293169.9
293580.6
294028.7
294342.4
294180.5
293856.7
293809.1
293779.5
293740.8
293750
293799.2
293874.7
293967.8
294059.7
294127.1
294148.9
294109.3
294025.7
293941.3
293880.6
293848.5
293857.9
293910.1
293944.6
293989.9
294308.1
294436.9
294068.1
293507.4
293566.4
293955.6
294231.5
294089.8
293828.9
293789
293759
293774.6
293843.6
293927.8
294015.9
294105.4
294167.6
294175.4
294127.3
294054.8
293991.8
293941.7
293910.9
293935.2
293993.2
294056.9
294330.2
294467.7
294173.1
293717.6
293390.9
293741.4
294033.2
293936.7
293736.2
293742.5
293801.6
293903.6
293975.9
294024
294087.4
294132.6
294133.1
294097.6
294064.3
294060.8
294041.4
293998
294003.1
294047.6
294289.3
294412.7
294142.9
293773.3
293075.6
293642.6
293883.7
293856.3
293911.8
293810.5
293940.4
294018.5
294038.3
294059.2
294090.1
294093.1
294079.3
294104.6
294147.2
294150.3
294105.2
294308.6
294313.5
294399
294219.2
293698.7
293412.7
293457.5
293790.4
293945.8
294216.3