/*--------------------------------*- C++ -*----------------------------------*\
  =========                 |
  \\      /  F ield         | OpenFOAM: The Open Source CFD Toolbox
   \\    /   O peration     | Website:  https://openfoam.org
    \\  /    A nd           | Version:  6
     \\/     M anipulation  |
\*---------------------------------------------------------------------------*/
FoamFile
{
    version     2.0;
    format      ascii;
    class       volScalarField;
    location    "50";
    object      p_rgh;
}
// * * * * * * * * * * * * * * * * * * * * * * * * * * * * * * * * * * * * * //

dimensions      [1 -1 -2 0 0 0 0];

internalField   nonuniform List<scalar> 
203709
(
122905.7
122974.7
123034.2
123063.9
122749.7
122825.5
122917.1
123011.4
123088.6
123152.6
123206.1
123229.6
122790.8
122747.8
122762.2
122832.3
122924.9
123025.9
123121.8
123211.1
123290.6
123354.8
123416.3
123429.5
122926.2
122790.6
122727.4
122741.5
122811.1
122916.4
123030.8
123141.8
123246.6
123346
123437.5
123519.3
123571.2
123581.7
122866.5
122708.2
122636.3
122644
122718.8
122838.2
122974
123108.5
123234.4
123349.6
123453.8
123548.5
123623.2
123656.3
122898.3
122732
122541.7
122447.8
122453.8
122545.5
122688.5
122852.9
123017.2
123169.5
123303.1
123418.5
123516.7
123595.2
123654.5
123679.8
122770.2
122536.4
122328.6
122211.7
122231.8
122350.6
122520
122712.4
122903
123076.4
123225
123349
123449.6
123525.8
123576.8
123607.4
122833.4
122706
122437.4
122220.2
122108.4
122120.9
122238.2
122410.9
122600.5
122795.2
122982.2
123139.8
123267.2
123367.4
123439.2
123483
123507.5
123500.7
122846.2
122702.6
122486.4
122291.5
122183.9
122190.2
122295.3
122442.1
122588
122746.6
122919.2
123070.3
123193.3
123286.6
123351.2
123387.1
123402.4
123407.2
122881.2
122772.6
122614.9
122469.3
122389.9
122396.1
122459.1
122558.3
122657.3
122772.1
122904.8
123033
123141.4
123221.4
123274.3
123299.9
123309.8
123314.6
122920.8
122857.4
122748.9
122649.7
122592.7
122593.8
122635.3
122701.8
122773.4
122848.3
122938.3
123037.6
123122.6
123182.2
123218.8
123231.9
123232.7
123228.4
122907
122860
122799
122760
122760
122791.7
122838.2
122888.3
122941.5
123005.2
123076
123135.1
123171.8
123188.8
123185.1
123176.5
122956.3
122948.1
122912.6
122889
122891.9
122919.9
122959.8
123001.7
123043.6
123089.1
123135.7
123171.3
123184.2
123180.2
123158.7
123142.4
122989.8
122995.3
122986.9
122993.8
123022.3
123060
123100
123136.5
123174.8
123207.2
123225.3
123217.6
123194
123163.3
123016.7
123048.3
123056
123074.5
123106.8
123146.5
123189
123225.3
123258.6
123281.6
123285.1
123254.4
123212.1
123167.9
123054.4
123087.5
123132.7
123173.8
123220.5
123264.6
123301.2
123331.5
123342.4
123325.3
123260.5
123231.1
123146.6
123204.9
123275.7
123323.3
123360
123381.9
123363
123334.7
123289.8
123345
123384.7
123399.2
122704.6
122738.3
122820
122907.4
122950
122948.8
122939.8
122932.6
122934.3
122947.5
122768.8
122654.5
122624.7
122678.9
122777.3
122884.1
122948.5
122969.7
122975.8
122976.7
122981.7
122991.6
123027.4
123067.7
122912.1
122752.9
122620.3
122578.7
122629.5
122745
122865.2
122942.7
122986.2
123014.4
123031.7
123047.5
123069.1
123090.9
123115.7
123177.2
123136.6
122968
122777.3
122633.6
122591.8
122649.2
122752.2
122883.6
122962.9
123020.7
123069.7
123093.7
123130.8
123160.4
123184.9
123211.3
123238.3
123294.9
123337.1
123221.2
123027
122832.7
122702.5
122649.3
122708.5
122794.1
122886.2
122976.2
123052
123129.8
123181.7
123235.3
123261.4
123304.3
123330.6
123352.4
123367.9
123406.2
123434.2
123396.2
123265.1
123079.2
122897.8
122754.2
122704.1
122724.9
122795.9
122890.7
122991.7
123085.7
123173.8
123253.4
123333.8
123391.2
123443.8
123463
123483.8
123494.7
123493.2
123508.6
123462.8
123405.5
123278.3
123092.1
122913.8
122770.2
122693.6
122702.2
122777.7
122887.1
123007.1
123123
123229.5
123327.8
123417.7
123496.5
123566.4
123614.5
123615.1
123626.3
123623.9
123596.2
123358.1
123436.8
123396.4
123260.2
123072.4
122874.9
122693.6
122612.3
122617.6
122694.7
122813.7
122952
123092.1
123223.7
123343.2
123449.9
123544.4
123625.2
123695.3
123728.2
123743.4
123736.8
123705.5
123688
123310.1
123344.1
123310.8
123177.1
122965.4
122770
122547.1
122440.5
122440.3
122528.3
122667.3
122826.4
122989.6
123145.5
123284.9
123406
123509.7
123596.6
123673.3
123713.9
123736.9
123745.3
123737.4
123722.4
123246.5
123243.1
123184.8
123051.1
122850.7
122572.7
122340.5
122215
122228.6
122335.6
122494.3
122675
122860.7
123037.6
123192.8
123323
123429.8
123513.9
123575.6
123616.8
123640.8
123654.1
123658.2
123653
123200.7
123172.2
123089.9
122926.6
122751.3
122452.2
122220.2
122105.6
122109.8
122216.3
122382
122561.4
122746.8
122931.8
123095.4
123229.2
123334.5
123412.8
123467.3
123509.9
123515.9
123533.4
123531.1
123526.7
123176.3
123134.3
123051.7
122914.9
122719.3
122482.6
122275.6
122159.1
122155.9
122260.2
122404.7
122547.3
122695.4
122861.4
123018.1
123146.3
123244
123313.3
123357.4
123382.9
123394.6
123394.8
123384.8
123373.6
123168.3
123123.6
123046.1
122934.1
122775.2
122598.1
122439.7
122349.4
122347.8
122415.2
122516
122618.7
122726.2
122850.5
122980.7
123091.5
123173.9
123228.9
123259.1
123273.9
123284.5
123263.5
123238.9
123218.3
123169.1
123129.7
123059.6
122969.2
122866.9
122725.4
122612.9
122548.3
122544.5
122589.6
122660.9
122734.8
122807.3
122891.6
122989.5
123074.1
123133.4
123169
123183.7
123191.1
123188.8
123147.2
123107.9
123077.1
123174.9
123142.7
123081.4
123012.7
122931.8
122836.3
122760.1
122716.4
122714.6
122747.9
122800.1
122854.9
122908
122967.3
123034.3
123090.8
123124
123136.8
123134.6
123130.1
123091.5
123054.9
123002.5
122962.7
123179.7
123156.8
123106.1
123047.4
122989.5
122941
122876
122847.1
122850.2
122879.7
122923.6
122969.8
123014
123058.8
123102.5
123132.1
123139.1
123130.2
123116.7
123096.1
123039.8
122987.3
122931.3
122886.1
123163.7
123156.1
123122.9
123078.9
123034.7
123002.5
122965.4
122948.9
122957.1
122987.3
123029.2
123073.9
123116
123153.4
123180.5
123187.7
123172.3
123143.7
123114
123061.7
123014.4
122957.2
122896
122845.9
123130.3
123124.2
123097.3
123066.8
123046.1
123037.7
123024.6
123040.7
123074.4
123119.2
123167.3
123210.8
123243.2
123257.8
123248.8
123216.4
123176.5
123130.5
123064.9
123006
122950.2
122905.3
123124.7
123113.1
123100.6
123082
123070.9
123077.6
123086.9
123117.8
123147.3
123196.3
123247.6
123292.5
123320.8
123327.5
123316.9
123271.8
123212.9
123138.5
123078.7
123021.8
122971.5
122933.5
123086
123088.4
123086.5
123086.1
123095.5
123122.3
123166.2
123209.7
123267.2
123312.7
123357
123390.3
123395.3
123374.3
123303
123228.1
123162.7
123103.3
123053.9
123020.6
123067.9
123082.5
123096.1
123113.3
123146.4
123187.8
123244.1
123308.6
123362.9
123409.5
123441.6
123437.2
123393.8
123325.1
123252
123189.6
123138.3
123113.3
123067.1
123095
123123.4
123164.2
123211.8
123271.8
123333.4
123395.1
123442.5
123471.4
123465.3
123415.4
123341.7
123276.5
123218.4
123195.6
123084.1
123117.4
123172.7
123228.4
123289.5
123354.8
123416.9
123464.6
123490.4
123476.6
123418.9
123348.2
123297.9
123279.7
123166.5
123224.8
123289.4
123354.3
123412.4
123453.6
123466.7
123443.5
123406.9
123382.7
122899
122939
122986.8
122967.4
122894.8
122831.8
122801.5
122799.8
122917.4
122889.4
122865.4
122884.6
122927.6
122993.3
122998.7
122934.3
122868.6
122832.3
122818.6
122830.6
122858.2
122904.9
122950.4
122908.9
122844.3
122812.3
122831.2
122890.4
122970.3
122996.5
122943.1
122893.2
122863
122852.6
122858.3
122872.9
122904.7
122982.7
123074.2
123042
122969.1
122874.8
122788.3
122733.7
122757.1
122833.7
122923.9
122965.3
122943.1
122918
122899.6
122893
122900.9
122904.8
122939.9
122986.5
123074.8
123166.1
123137.4
123120.5
123067.1
122971.5
122823.2
122693
122644.2
122671.8
122763.7
122863.6
122920.2
122929.8
122927.5
122923.7
122925.8
122942
122961.7
122996.5
123029.4
123085.4
123150.6
123283.3
123201.5
123197
123184.9
123116.6
122973.6
122795.3
122633.1
122573.3
122597.2
122692.5
122813.6
122893.2
122931.2
122951.7
122965.7
122980
122998.9
123021.3
123056.6
123098.9
123135
123189.9
123262.4
123406.9
123243.9
123268.2
123259.1
123178.9
123006.8
122802.2
122641
122557.7
122585.3
122684.1
122804.7
122894.1
122951.8
122992.8
123022.3
123052.4
123080.4
123107.5
123138.1
123176.4
123219.5
123252.4
123309.2
123391.3
123275.8
123295.4
123342.7
123351.6
123254.1
123064.6
122853.9
122690
122610.9
122630.7
122713.9
122820.4
122915.5
122988.5
123049.4
123097.4
123142.9
123179.5
123216.2
123247.9
123277.4
123310.5
123347.8
123370.1
123402.3
123502.6
123295.2
123296.9
123355.3
123430.9
123414
123306.6
123115.9
122910.7
122741.7
122658.7
122666.4
122738.5
122839
122941.1
123032
123113.1
123183.8
123247.7
123299
123345.7
123379.6
123406.2
123427
123448.7
123475.6
123469.7
123478.7
123531
123295.8
123311.9
123365.4
123459.7
123437.1
123334.4
123135.3
122925.1
122756.4
122667.5
122665.9
122735.2
122843
122962.5
123077.8
123182.7
123276.8
123360.4
123429.5
123485.5
123526.7
123548.9
123563
123569.6
123579
123563.5
123542.1
123530.2
123290.2
123303.1
123347.3
123415.2
123415.4
123325.9
123122.3
122896.3
122707.6
122606.1
122597.4
122665.1
122777.9
122911.5
123050.3
123183.4
123305.3
123414.4
123509.7
123590.1
123654.3
123689.2
123702.8
123696.1
123689.3
123691.6
123621
123562.5
123309.7
123276.4
123276.6
123295.3
123307
123307.3
123227.6
123029.1
122786.6
122570.1
122444.7
122426.7
122499.9
122630.5
122783.5
122943.6
123100.9
123245.3
123372.2
123480.9
123571.3
123643.9
123694.2
123728.7
123741.4
123737.4
123726.6
123660.2
123589
123520.7
123294.1
123265.9
123249.5
123242.8
123212.3
123170.2
123066.5
122878.1
122614.7
122361.3
122214.1
122211.5
122300.6
122448.7
122622.3
122804.9
122984.2
123146.1
123283.6
123396.1
123483.5
123548.3
123593.7
123626.2
123648.8
123659.9
123660.2
123626.3
123567.6
123498
123293.8
123259.9
123228.8
123201.3
123144.9
123071.4
122943.3
122749.5
122474.7
122226
122092.7
122075.4
122164.1
122323.6
122499.7
122683.3
122868.9
123039.9
123182.3
123294.1
123375.7
123431.7
123469.5
123489.9
123506.8
123514.1
123520.1
123497.5
123455.7
123401.4
123297.5
123258.1
123217.6
123177.3
123107.7
123024.1
122896.8
122713.1
122482.8
122266.6
122129.7
122104.2
122197.7
122337.3
122481
122628.5
122792.1
122955.4
123092.2
123196.5
123268.2
123312.4
123337.2
123348.3
123353.8
123351.3
123349.2
123317.9
123279
123232.7
123301
123261.4
123216.1
123169.2
123095.6
123013.4
122903.1
122753.9
122579.7
122416
122309.8
122293.5
122354.6
122452.1
122555.9
122662.1
122784.8
122916.8
123033.6
123121.2
123177.3
123205.9
123216
123216.1
123207.2
123191.7
123178.4
123132
123080.6
123029.7
123308.5
123269.9
123221.7
123172.3
123099.5
123023.7
122932.9
122822
122694.4
122579.7
122506.2
122493.5
122534.4
122603.6
122678.1
122751.5
122834.4
122929.6
123017.2
123078.5
123112.9
123123.2
123118.3
123103.3
123079.8
123050.3
123024.8
122961.6
122894.9
122832
123319.5
123280.7
123232.4
123183.1
123112.3
123044.3
122969.8
122887.7
122797.2
122719.7
122672.8
122666.4
122696.8
122748.4
122805
122860
122918.4
122982.2
123037.8
123069.1
123078.1
123068.5
123047.3
123014.5
122980.4
122939.2
122903.8
122827.5
122748.4
122675
123325.8
123279.6
123240.2
123195.3
123129.1
123067.7
123006
122943.9
122882.8
122829.6
122801.7
122803.2
122831.2
122875.6
122924.7
122971.6
123016.2
123057
123083.6
123085.4
123069
123040.9
123004.2
122960.4
122914.7
122866.9
122827
122745.1
122655.4
122576.5
123263.7
123237.8
123194.9
123145.9
123083.4
123033.8
122986.9
122946.5
122912.7
122899.6
122910.1
122940.8
122984.8
123033
123078.3
123115.3
123138.9
123140.4
123116.7
123078.2
123034
122983.6
122935.6
122885.6
122839.4
122796.1
122719
122649.4
123278.4
123229.5
123178.5
123140.3
123088.1
123049.2
123015.7
122989.4
122973
122971.5
122992
123028.7
123076.9
123128.7
123175.2
123206.6
123216.2
123197.4
123154.8
123100.3
123044.1
122987.5
122934.8
122886.4
122846.2
122788.8
122737.9
122688.8
123299.5
123218.7
123166.2
123129
123091.3
123053.1
123029.5
123015.4
123014.9
123026.3
123056.6
123098.3
123152.5
123208.8
123256.6
123282.9
123283
123252.4
123196.4
123127.8
123062.3
123005.8
122956.1
122918.4
122880.9
122831
122788
122751.9
123233.5
123158.3
123112.8
123084.7
123061.4
123039.1
123034.5
123043.2
123066.5
123106.1
123155.2
123215
123272.6
123320.6
123345.3
123342
123300.6
123227.9
123153.5
123089.6
123036.1
122997.5
122959.8
122919.6
122890.1
122862.7
123154.1
123106.3
123072.3
123059.5
123053.5
123050.2
123065.6
123097.7
123142.9
123199.8
123264.6
123324.8
123372.1
123394.7
123383.8
123331.7
123253.1
123180
123121.7
123080.9
123043.2
123001.7
122975.9
122966.4
123167.7
123098.6
123067.2
123052.6
123058.6
123070
123085.5
123123.2
123173.9
123236.4
123303
123364.5
123410.1
123430.6
123414
123352
123274.3
123209.7
123165.4
123128.9
123088.7
123060.9
123043.4
123039.2
123104.1
123065.6
123052.6
123057.4
123082.6
123108
123152.2
123202.1
123266.4
123334.3
123395.7
123441.3
123460
123433
123367.8
123307
123256.9
123217.8
123178.6
123157.6
123136.1
123138
123070.2
123052.4
123060
123081.3
123117.1
123172.3
123229.2
123296
123364.9
123427.5
123474.8
123486.5
123451.6
123396.8
123346
123294.9
123269.2
123256.3
123248.1
123254.2
123060.2
123083.7
123123.4
123174.2
123239.5
123307.5
123376.3
123438.8
123476.9
123475.3
123443.1
123404.9
123382.4
123361.5
123349
123388.1
123086.6
123121.8
123174
123246.4
123316.9
123385.2
123441.5
123470.4
123468.9
123448.7
123423.8
123429
123450.3
123495.3
123248.7
123313.4
123374.1
123417.7
123441.5
123452.8
123471.7
123522.8
122877.8
122896.7
122864.9
122790.8
122756.5
122756
122893.1
122871.7
122863.4
122873
122903.5
122936.1
122907.9
122831.6
122778
122757.1
122766.7
122792.1
122828.1
122870.3
123003.5
122947.4
122901.4
122868.3
122858.5
122883.6
122923.9
122972.1
122953.1
122876.3
122810.2
122779.6
122775.7
122782.1
122810.7
122849.3
122903.3
122974
123053.9
123004.5
122959.6
122918
122875.7
122852.2
122864.3
122908
122974.2
122979
122904.9
122825.9
122784.6
122777.5
122785.5
122809.1
122845.3
122889.3
122955.5
123065.1
123100.8
123058
123017.2
122973.1
122908.6
122836.9
122805.6
122819.7
122872.9
122950.1
122970.5
122911.2
122838.7
122797
122780.8
122783.7
122804.6
122845.7
122892.4
122951.4
123043.9
123182.5
123154.2
123109.4
123083.2
123042.4
122978.8
122882
122798.2
122750.6
122759.5
122818.1
122902.1
122939.2
122900.3
122850.8
122819.1
122804.9
122805.7
122821
122855.6
122910
122971
123047.8
123153.1
123320.5
123206
123157.4
123134.8
123107
123056.8
122976.2
122857
122735.6
122665.8
122665.7
122735.2
122828.9
122884.4
122881.1
122862.5
122847.8
122842.6
122848.3
122863.7
122890.9
122931.6
122989.8
123066.5
123153.4
123273.6
123453.6
123248.8
123199.2
123182.5
123168.7
123149.2
123099
122990.2
122829.2
122666.3
122574.8
122578.6
122646.2
122757.7
122843.2
122876.3
122886
122890.5
122897.3
122909.3
122927.3
122952.4
122984.2
123030.4
123095.7
123176.6
123270.5
123380.3
123553.1
123275.2
123232.4
123211.6
123213
123213.4
123208.3
123153.4
123018.1
122824.8
122655.2
122544.9
122529.2
122617.7
122739
122837.2
122893.4
122925.5
122948.3
122969
122989.4
123011.3
123035.8
123063.9
123097.8
123145.1
123209
123288.2
123366
123458.2
123594
123264.9
123239.4
123236.4
123246.4
123265.9
123276
123222.4
123076.1
122870.4
122678.3
122575.7
122567.5
122645
122757
122857.6
122929.4
122981.3
123022
123057.3
123088.2
123116.4
123141.9
123166.1
123191.7
123222.9
123265.1
123321.4
123378.7
123434.4
123512.1
123298.7
123260
123251
123251.9
123272.8
123316.9
123340.3
123296.2
123127.9
122908.5
122722.4
122617.8
122608.8
122674.9
122777.4
122881
122969.6
123044.8
123108.8
123163.1
123207
123242.6
123270.3
123291.5
123308.9
123326.6
123349.5
123375.3
123405.9
123437.3
123446.9
123516.4
123291.3
123263.1
123253
123251.4
123278.2
123336.8
123392.9
123338.3
123137.9
122918
122735.5
122630.2
122615.2
122675.7
122779.8
122896.8
123008.2
123107.9
123196.6
123274.5
123338.1
123385.3
123416
123434.5
123445
123449.8
123455.3
123457.9
123459
123461.4
123438.4
123454.7
123295.3
123264.4
123249.5
123240.2
123257
123301
123364.3
123318.5
123126.8
122894.3
122696.9
122578.9
122554.4
122610.1
122714.9
122841.1
122974.4
123104.6
123225.3
123333.8
123427.3
123502.4
123554.9
123582.6
123589.1
123581.1
123571.5
123561
123535.5
123507
123459.6
123430.7
123300
123268.2
123242.8
123220.2
123215.8
123223.9
123243.8
123203.1
123029.6
122781.8
122565.9
122426.9
122390.2
122445
122563.8
122708.6
122863.1
123019.2
123166.2
123296.5
123406.9
123495.2
123562.2
123612.2
123648.6
123661.1
123652.1
123632.1
123601.3
123555.1
123513.5
123431
123346.9
123298.8
123266.8
123228.3
123197.4
123172.8
123146.3
123113
123032.2
122859.5
122614.2
122362
122196.9
122174.6
122241.8
122376.4
122541
122718.4
122897.4
123064.4
123208.6
123325.5
123413.4
123476.1
123521
123556.9
123585.7
123601.1
123603.6
123588.2
123543.5
123491
123392.8
123314.8
123344.4
123304.6
123268.5
123221.6
123180.1
123139.9
123090
123023.7
122913
122729.1
122471.8
122218.3
122067.5
122025.7
122092.5
122242.2
122412.9
122592.8
122777.2
122953.8
123104.9
123223.3
123307.2
123362
123397.2
123420.2
123439.8
123454.3
123464.9
123462.2
123439.1
123389.2
123303.7
123236.1
123358.7
123318.7
123276.1
123220.8
123171.2
123121.5
123059.6
122980.6
122865.3
122695.6
122473
122249.8
122092.8
122041.6
122119.7
122251.5
122394.2
122539.8
122699.8
122866.5
123012.4
123123.9
123198.4
123241.5
123264.1
123274.4
123280.4
123281
123280.3
123274
123251.6
123208.5
123141.3
123080.8
123377.9
123336
123287.8
123225.8
123170.3
123115.5
123049.9
122971.5
122868.2
122729.5
122559
122388.3
122265
122230.3
122279.8
122371.2
122474.7
122579.6
122699.7
122831.8
122954.6
123048.1
123106.3
123133.1
123140
123135.5
123125.3
123109.7
123093.9
123069.8
123033.7
122990.6
122920.4
122867.9
123401
123355.8
123305.2
123236.8
123176
123117.8
123052.3
122980.4
122893.9
122787.9
122665.1
122545.4
122459.6
122434
122465.9
122530.1
122604.2
122678.6
122760.4
122853.2
122943.3
123007.8
123042.5
123049.1
123038.3
123016.9
122990.2
122958.1
122925.8
122883
122829.5
122774.6
122689.7
122640.4
123427.1
123368.1
123323.4
123252.7
123186.5
123125
123060.5
122996.1
122925.5
122846.5
122760.4
122680.9
122626.1
122610.3
122633.6
122681.7
122738.6
122795.5
122854.1
122915.9
122971.5
123003.1
123010
122994.9
122965.8
122928.3
122886.8
122841
122794.7
122736.8
122670.7
122606.8
122492
122451
123375.7
123332
123268
123190.4
123128.9
123068.7
123011.7
122955
122896.7
122838.4
122787.7
122755.2
122749.6
122771.9
122814
122864
122913.5
122959.2
122998.9
123024.7
123024.8
123004
122968.9
122923.7
122874.5
122822.3
122767.6
122713.3
122649.8
122582.5
122521.5
122419
123402.8
123335.1
123263.2
123182.8
123121.3
123067.5
123017.4
122973.4
122932.3
122894.7
122864.8
122850.3
122856.4
122883.5
122926.3
122976
123023.9
123062.7
123086.1
123087.1
123060
123016.1
122964.8
122908.7
122852.9
122796.6
122740.1
122684.8
122628.5
122577.2
122503.6
122434.6
123453.2
123339.8
123257.5
123173.9
123107.7
123057.3
123013.2
122979
122951.4
122929.7
122917.4
122919.3
122937.9
122972.6
123020.1
123073.2
123121.9
123155.5
123165.6
123146.1
123097.6
123037.4
122975.1
122914.5
122857.5
122803.7
122752.5
122703.6
122665
122631.3
122576.5
122532.3
123517.8
123354.9
123258.9
123179.2
123101.2
123045.3
123005.5
122977.2
122959.3
122950.5
122952.9
122968.5
122998.9
123042.2
123096.3
123153.5
123202.7
123231
123229.9
123194.2
123130.3
123059.9
122992.7
122933.1
122880
122833.1
122791.8
122761.4
122743.8
122718.3
122690.5
122659.6
123388.6
123275.1
123178.7
123108.3
123038.7
122999.6
122977
122965.6
122965.9
122978.5
123004.4
123044.2
123095.8
123156.2
123216.4
123264.5
123287.3
123277
123228.4
123153.3
123079.5
123014.3
122959.2
122912.4
122872.6
122846.1
122842.1
122823.4
122814.5
122806.4
123448.7
123290
123183.2
123106.3
123039.4
122998.8
122978.7
122973.2
122979.3
122998.7
123032.7
123079.9
123138.1
123202.8
123264.1
123309
123326
123307
123247.3
123168
123097.3
123038.9
122990.8
122950.6
122923.1
122911.6
122913
122908
122914
122916.6
123345.7
123198
123107.2
123050.3
123007.4
122985.5
122983.4
122994.9
123018.4
123057.7
123110.5
123173.7
123240.4
123300.1
123340.4
123351.6
123323.1
123254.7
123178.8
123117.8
123069.2
123029.5
123001.6
122989.6
122991.8
122989.8
122996.9
123000.7
123225
123120.8
123057.2
123024.3
123000.3
122998.5
123013.6
123041.4
123084.4
123140.1
123206
123272.9
123329.9
123366.6
123370.2
123329.1
123260.5
123196.5
123147.2
123111.2
123086.8
123073.6
123075.3
123073.2
123083.1
123087.9
123134.1
123068
123035.5
123020.3
123024.2
123034.6
123065.1
123112.4
123171.2
123238.5
123305.2
123361.3
123393.4
123384.3
123336.5
123277.3
123225.8
123191.5
123177.2
123181
123174.7
123173.4
123188.1
123201.1
123078
123041.7
123029.1
123039.1
123059.8
123090.4
123138.2
123199.2
123267
123333.1
123385.3
123406
123389
123348.5
123306.8
123275.8
123263.5
123275.3
123281.2
123290.3
123309
123341.5
123049
123039
123046.4
123077.5
123116.2
123167.9
123229.5
123295.3
123358.7
123403.4
123417.4
123403.6
123378.9
123369.4
123361.6
123367.6
123386.7
123419.4
123440.5
123509.1
123045.8
123055.3
123082.2
123124.8
123179.5
123250.5
123320
123380.6
123423.1
123440.6
123436.9
123432.8
123448
123465.8
123494.7
123530.4
123580.3
123654.6
123090.9
123128
123184.1
123247.1
123319.4
123376.5
123418.1
123443.6
123461.8
123481.7
123540.6
123605.4
123685.7
123778.9
123309.7
123362.7
123411.9
123460.6
123527.5
123626.5
122868.9
122863.8
122862.9
122851
122796.3
122746.9
122745
122765.7
122799.4
122834.4
122990.7
122925.5
122878
122858.4
122861.7
122876.5
122884.2
122833.7
122764.2
122735.9
122737.4
122760.9
122794.8
122833.2
122871.1
122921.4
123031
122970.1
122909.8
122870
122854
122862.1
122881
122901.8
122864.6
122779.1
122729.3
122721.2
122735.1
122764.3
122796.4
122830.2
122881.2
122947.3
123176.4
123085
123008
122949.3
122897.6
122850.9
122832
122844
122875.1
122912.1
122890.9
122802.4
122734.3
122704.4
122703.6
122723.5
122756.5
122803.6
122851.7
122916
123003.1
123097.3
123208.9
123122.3
123052.5
122996.3
122936.6
122884.6
122838.7
122815.5
122824
122859.6
122909.7
122909.9
122827.5
122745.4
122703.5
122692.9
122704.9
122731.9
122769.6
122820.7
122894.8
122968
123067.1
123206.4
123242.3
123156.6
123090.4
123040.4
122984.5
122932.1
122874.6
122819.4
122788
122792.8
122832.3
122891.9
122907.1
122840.4
122758.5
122713.5
122696.2
122700.8
122722
122757.2
122804.6
122873.3
122961.2
123053.2
123179.8
123356
123259.4
123186.1
123125.3
123080.6
123033.2
122988.4
122936.2
122867.7
122796.1
122748
122745
122787.3
122856.7
122884.7
122837.5
122770.9
122733
122715.8
122715.6
122731.5
122763.3
122810.6
122875.1
122956.2
123057.7
123165.7
123311
123504.5
123272.1
123209.3
123157.7
123117.9
123076.6
123043.4
123007.2
122950.1
122858.6
122753.8
122676.9
122660.9
122708.3
122792.3
122841
122821
122784.5
122762
122751.4
122752.4
122765.3
122791.1
122832.1
122891.5
122968.9
123058.8
123169.3
123282.8
123430.3
123622.1
123234.9
123188
123152.2
123116.8
123093.3
123075
123044.4
122968.4
122839.4
122691.9
122586.5
122562
122616.2
122714.2
122790.9
122812.2
122808.6
122804.2
122804.4
122810.4
122823.4
122844.8
122876.6
122924.5
122992.4
123076.5
123168.6
123273.4
123382.4
123529.8
123269.5
123220.9
123186
123151.4
123131.6
123124.7
123122.1
123092.3
122993.8
122827.2
122650.5
122535.1
122499.5
122557.9
122676.7
122774.6
122825.3
122848.2
122862.1
122874.4
122888
122903.7
122923
122948
122982.9
123034.4
123103.7
123180.7
123263.9
123355.3
123444.8
123596.7
123282.9
123246.1
123215.3
123183.2
123161.1
123154.2
123163.1
123176.5
123152.5
123040
122855.4
122664.4
122530.9
122506.3
122572.9
122685.9
122788.2
122856.8
122901.4
122934.2
122960.9
122983.8
123004.3
123023.7
123043.9
123068.3
123102.5
123150.6
123207.6
123266.1
123331.1
123396.4
123467.6
123548.4
123276.3
123245.1
123217.5
123188.7
123173.9
123176.2
123201.1
123234.5
123224.1
123094.5
122884.9
122689.8
122566.8
122542.6
122600.9
122702.8
122806.2
122891
122959.6
123016.1
123062.1
123098.2
123125.5
123145.9
123161.6
123177
123196.2
123222.5
123256
123292.3
123328.9
123364
123401.3
123441.4
123281.9
123250.7
123215.9
123191.3
123178.5
123185.1
123222
123291
123275.5
123103
122884.9
122696.5
122578.4
122550.3
122601.7
122701
122814.3
122919.9
123012
123093.2
123164
123221.2
123261.4
123285
123296.8
123304
123308.9
123316.1
123325.9
123337.4
123346.5
123351.2
123366.8
123371.1
123320.3
123285.1
123256.1
123217.2
123189.8
123172.3
123171.7
123197.2
123262.6
123249.6
123090.4
122862
122661.3
122532.2
122494.1
122537.9
122634.1
122752
122877.7
123001.5
123117.7
123222.2
123311.1
123379.6
123422.5
123440.2
123438.8
123430.4
123421.6
123412.1
123399.6
123381
123362.2
123352.2
123318.9
123326.4
123326.1
123291.8
123258.9
123218.3
123186.1
123158.3
123141
123136.4
123150.5
123132.3
122986.6
122747.2
122535.1
122387.6
122335.8
122373.5
122479.2
122614.4
122761.3
122913.4
123059.6
123190
123298.8
123382.1
123442
123486
123514
123518.5
123505.3
123485.5
123460.8
123422.7
123389.4
123352.3
123299.9
123274.4
123340.9
123303.1
123265.9
123221.5
123180.2
123141.5
123107
123072.8
123035.9
122967.4
122810.5
122580.3
122336.9
122162.5
122121.4
122167.2
122288.4
122442.8
122612.9
122789
122957.9
123106
123224.9
123310.5
123367.5
123406.7
123438.7
123463.7
123476.7
123474.8
123459.9
123425.9
123387
123345.8
123301.7
123231.9
123358.5
123319.2
123270.5
123223.7
123175.3
123127.7
123080.3
123026
122958.6
122856.1
122683.4
122439.8
122189.2
122026.6
121964.1
122009.9
122148
122311.5
122485.3
122667.3
122846.2
123003.5
123126.6
123210.3
123260.3
123289.3
123307.8
123324.9
123339.1
123349.1
123352
123336.1
123301.6
123258.7
123220.5
123168.3
123382.9
123340.2
123283.6
123229.8
123174.2
123119.8
123064.6
123000.6
122921.2
122812.3
122651
122436.2
122212
122040
121967.9
122032.3
122154.8
122293.3
122436.3
122592.9
122759.4
122911.6
123029.1
123104.5
123143.1
123159.1
123163.6
123165.1
123164.9
123166.5
123165.7
123155.5
123130.1
123098.3
123071
123046.7
123410.3
123365.9
123302.2
123240.3
123177.1
123117
123057.8
122991.7
122913.3
122814.2
122681.6
122514.4
122340.6
122206.1
122155.5
122192.9
122277.7
122379.4
122483.9
122600.7
122731.8
122857.7
122955.9
123014.7
123036.3
123035.6
123023.4
123006.8
122988.3
122971.7
122955
122929.9
122899.4
122869.3
122851.6
122852.3
123440.9
123391.8
123324.3
123255.1
123183.6
123117.6
123055.8
122991.3
122920.3
122837.3
122735.8
122615
122492
122397.5
122361
122384
122443.2
122516.2
122591.4
122672.4
122763.5
122853.5
122921.1
122954.6
122954.3
122933.9
122903.2
122868
122830.5
122793.9
122755.1
122707.7
122660
122619
122601.1
122622.5
123480.7
123415.5
123349.8
123265.9
123189.1
123119.4
123056.1
122994.2
122931.8
122865.3
122790.3
122706.9
122625.2
122564
122539.9
122556.4
122600.6
122657
122715.5
122774.7
122835.4
122890.2
122922.9
122926.8
122903.6
122863.1
122815.4
122764
122710.9
122658.1
122601.2
122537.6
122476.9
122402.8
122389.1
122425.4
123528.9
123444.2
123359.9
123264.4
123184.3
123111.7
123049.7
122993.7
122941.4
122890
122836.9
122781.6
122729.4
122691.5
122679.3
122696.7
122735.9
122785.8
122837.1
122884.3
122923.9
122949.3
122950.2
122925.7
122882.3
122825.7
122766.2
122704.8
122643
122582
122518.7
122452.1
122388.9
122324.9
122296.4
122343.4
123597.2
123475.2
123376.4
123266.2
123177.3
123098.7
123035.2
122983.7
122939.7
122900.9
122865
122830.7
122800.4
122781.9
122783.6
122807.2
122848
122897.8
122947.3
122987.9
123012.2
123014.1
122988.5
122941.3
122882.9
122817.5
122753.1
122689.8
122628.2
122569.3
122513.2
122458.5
122406.9
122366.2
122330.3
122366.7
123529.4
123397.3
123272.1
123173.5
123089.6
123021
122968.7
122928.6
122898.1
122875
122857.4
122846.4
122846.2
122861.5
122893.3
122939
122991.7
123041.6
123077.1
123089.1
123071.9
123025.5
122963
122896
122829.8
122768
122710.6
122658.4
122612
122572.5
122537.6
122508.6
122487.6
122469.4
123582.3
123422.4
123297.9
123178.7
123087.7
123013.8
122958.2
122920.2
122895.5
122880.9
122875.4
122878.6
122892.3
122919.2
122959.6
123011.3
123067.4
123117
123147
123147.8
123114.6
123052.5
122982.5
122913.4
122851.9
122797.8
122751.7
122715.2
122689.2
122669.2
122655.2
122657
122637
122640.3
123663.9
123474.4
123316.9
123190.5
123090.4
123014.4
122955.8
122917.2
122895.7
122886.9
122888.9
122901.8
122925.6
122961.7
123010
123067.2
123125.6
123173
123196.3
123186.3
123139.3
123067.1
122995.6
122931.4
122877.4
122833.1
122799.8
122780.5
122773.8
122769.7
122776.3
122784.4
122790.9
122789.7
123566.7
123345.8
123214.1
123103.6
123021.6
122962.4
122922.4
122901.3
122895.9
122902.6
122921.7
122952.7
122996
123050.2
123111.1
123169.4
123212.4
123227.7
123206.7
123147.6
123072.9
123005.8
122950.3
122906.1
122873.2
122853.9
122849.5
122855.5
122868.2
122895.2
122905.9
122910.5
123378.2
123226.7
123120
123034.2
122976.1
122936.1
122914.5
122910.2
122920.3
122942.9
122979.1
123027.5
123085.8
123147.9
123203.6
123240.2
123246.7
123213.2
123145.4
123076.3
123019.4
122975.1
122943.1
122924.1
122918.4
122924.2
122938
122964.9
122978.2
123002.2
123403.2
123241.7
123127.6
123056.2
122994.5
122956.9
122936.3
122932.4
122944
122969.1
123008.5
123060.2
123120.5
123181.8
123233
123262.5
123257.1
123209.7
123144.2
123087.3
123043.6
123014
122997.4
122992
122996.9
123009.2
123033.8
123044.7
123069.2
123080.8
123249
123139.8
123063.1
123017.3
122979.9
122962
122960.3
122972.7
122999.9
123041.5
123095.3
123156
123215.3
123261.9
123281.2
123260
123208.6
123155
123113.9
123087.5
123076.5
123074.6
123079.3
123092.7
123120
123129.1
123149.5
123154.3
123144
123072.2
123026.9
123002.9
122986.1
122987
123003.6
123034
123077.3
123131.5
123191.6
123248.7
123287
123292
123264.1
123222.5
123185.6
123163.7
123157.3
123165
123174.2
123195.6
123223
123239.2
123265.5
123277.3
123076.6
123035.4
123015.2
123012
123013.4
123033.9
123068.8
123114.9
123169.4
123228.8
123281
123308.6
123306.8
123284.2
123258.9
123242.1
123239.7
123251.6
123278.6
123307.7
123349
123377.1
123414.3
123438.9
123044.2
123026.2
123028.3
123038.7
123062.2
123099.3
123148.3
123206.2
123264.6
123311.1
123334.5
123334.8
123324.5
123321.2
123324.2
123346.8
123379.1
123438.3
123479.2
123530.9
123586
123648
123037.2
123048.2
123079.8
123125
123179.9
123238.3
123294.1