/*--------------------------------*- C++ -*----------------------------------*\
  =========                 |
  \\      /  F ield         | OpenFOAM: The Open Source CFD Toolbox
   \\    /   O peration     | Website:  https://openfoam.org
    \\  /    A nd           | Version:  6
     \\/     M anipulation  |
\*---------------------------------------------------------------------------*/
FoamFile
{
    version     2.0;
    format      ascii;
    class       volScalarField;
    location    "50";
    object      p_rgh;
}
// * * * * * * * * * * * * * * * * * * * * * * * * * * * * * * * * * * * * * //

dimensions      [1 -1 -2 0 0 0 0];

internalField   nonuniform List<scalar> 
203709
(
123018
123084.3
123142.9
123171.6
122832.4
122905.9
123005.2
123100
123179.7
123249.3
123305.1
123331.2
122868.8
122811.5
122823.1
122886.6
122979.3
123084.5
123189
123286.6
123372.4
123446.2
123517.4
123544.1
123019.5
122862.6
122775.7
122769.3
122824.8
122927.7
123045.8
123161.1
123273.7
123379.9
123475.3
123559.4
123626.8
123666
122966.9
122780.4
122672.1
122642.6
122692.6
122803.7
122944.6
123087.2
123218.5
123337
123441.1
123531.1
123602.7
123650.5
123057.1
122858.6
122627
122478.5
122423.3
122476.8
122609.5
122778
122952.3
123113
123251.6
123367.5
123461.4
123533.5
123589.6
123614.4
122941.4
122675.1
122420.3
122227.9
122155.4
122222.5
122389.9
122594.9
122802.4
122989.3
123146.6
123273.8
123372.7
123444.2
123491.6
123524.2
123006.8
122871.5
122558.8
122259.8
122027.2
121952.3
122042.9
122226.7
122443.6
122667
122875.4
123046.6
123180.5
123281.7
123350.7
123391.6
123415.7
123415.2
122968.1
122809
122530.1
122231.6
122010.2
121947.5
122037.8
122208.7
122400.7
122604.6
122806.4
122975
123106.8
123202.6
123265.2
123298.4
123312.3
123318.1
122956.9
122825.9
122601.7
122359.6
122187.6
122141.7
122203.6
122331.6
122475.9
122634.8
122799.6
122946.7
123064.4
123146.7
123197.3
123219.6
123226.1
123229.4
122971.7
122888.2
122727.6
122557.5
122435.6
122401.1
122440.5
122526.4
122629.9
122739
122855
122969.8
123062
123122.5
123155.5
123164.2
123159.8
123153.1
122926.7
122849.8
122743.3
122661
122636
122664
122721.7
122791.7
122867.5
122949.4
123031.2
123093.9
123129.8
123141.7
123133
123121.4
122981.6
122956.1
122890.1
122838.6
122824.4
122848.5
122894.7
122948.6
123003.9
123059.9
123112.7
123149.3
123159.1
123149
123123.1
123105.6
123005.8
122995.7
122970.3
122966
122991.2
123032.1
123078.8
123122.7
123166.9
123202.7
123220
123207
123178.8
123147.1
123042.6
123065.6
123061.1
123072.4
123102.7
123144.2
123190.5
123230.7
123267
123291.7
123292.8
123256.1
123211.3
123169
123079
123106.1
123148.2
123187
123234.9
123281.1
123319.7
123351.4
123362.4
123342.7
123274.1
123247.5
123170.4
123228
123301
123349.1
123386.9
123408.8
123388.5
123361.1
123320.5
123376.2
123416.2
123429.7
122861.3
122903.2
122984.9
123067.1
123095.5
123078.6
123059.4
123045.8
123043.2
123051.7
122887.7
122801.8
122791.4
122850.5
122947.7
123041.8
123092.2
123100.4
123098.2
123094.4
123096.8
123103.9
123136.8
123169.7
122992.3
122864.4
122749.2
122728.4
122784.5
122896.4
123008.8
123077.9
123113
123135.9
123151.9
123167.9
123190.5
123212.9
123232.7
123280.2
123163.2
123022.3
122861.2
122743.6
122700
122766.1
122876.9
123005
123080.7
123135.9
123184.2
123211.6
123253
123288.9
123318.8
123346.3
123365.1
123400.3
123322.7
123235.9
123074.8
122900.4
122784.3
122736.7
122800
122885.8
122981.3
123071.4
123149.1
123232.2
123289.6
123351.4
123391.5
123446.3
123479.6
123501.2
123504.3
123514.5
123406.5
123414
123303.5
123135.7
122964.2
122828.6
122771.8
122791.4
122855.4
122950.8
123056.1
123160.2
123260.1
123351.1
123442.9
123512.4
123577.3
123614.8
123641.7
123647.6
123630.9
123614.3
123465
123471
123347.4
123172.1
122996.5
122839.8
122743.2
122733.7
122794.8
122900.2
123023
123143.1
123258.4
123367.8
123467.3
123557.8
123644.4
123713
123744.2
123764.5
123757.9
123716.1
123417.8
123493.4
123473.2
123351.2
123176.9
122975
122765.1
122648
122615.8
122667.6
122778.1
122918.5
123064.4
123200.1
123322.2
123430.8
123525.9
123606.7
123676.3
123726.5
123759.4
123777.8
123768.6
123734.8
123393.5
123462
123444.4
123313.1
123107.3
122889.4
122628.7
122468.2
122407.6
122455.7
122581.6
122743.5
122915.2
123078.8
123222.3
123343.3
123443
123524.2
123598.2
123635.3
123673.7
123698.9
123707.9
123699.8
123337.3
123371.6
123349.5
123231.9
123017.8
122705.9
122430.7
122232
122152
122207
122359.7
122550.1
122750.4
122940.4
123104
123237.1
123341.8
123421.6
123480.6
123523.9
123556.6
123577.2
123589.9
123590.9
123286.6
123288.5
123237.2
123099.8
122918.6
122575.9
122270.7
122036.1
121951.1
122025.9
122195.6
122398.4
122609.7
122815.5
122992.5
123132.7
123238.5
123314.2
123366.7
123411.1
123421.6
123442.3
123442.6
123439.3
123252.7
123233
123169
123043
122831
122534.9
122233
122006.8
121933.6
122012.3
122173
122355.1
122544.6
122740.1
122914.5
123051.3
123151.1
123218.6
123260.6
123285.7
123298.3
123297.6
123285.3
123271.6
123235.2
123205.1
123137.3
123024.8
122839.1
122598.4
122349.2
122167.5
122109.8
122167.1
122290.6
122432.7
122582.2
122738.5
122888.1
123007.6
123091.7
123144.9
123172.3
123184.5
123192.9
123168
123137.3
123110.4
123229.3
123198.3
123132
123037
122908.6
122714.7
122533.4
122402.7
122359.5
122397.6
122484.2
122586.9
122692.1
122803
122917
123007.9
123067.5
123100
123111.2
123114.6
123108
123060.4
123012.8
122972.9
123231.3
123203.7
123142.8
123069.8
122966.6
122833.1
122710.6
122622.7
122593.5
122620.1
122681.4
122755
122830.1
122907.7
122985.9
123045.1
123076.7
123085.3
123078.8
123069.5
123025.6
122982.6
122922.5
122872.7
123234
123213.8
123162.5
123097.9
123026.8
122955
122856.6
122798.7
122783
122806.6
122855.5
122913.2
122970.9
123026.6
123076.6
123106.4
123109.9
123096.5
123079
123053.7
122993.5
122936.1
122873.8
122818.7
123215.9
123211.5
123177.3
123128
123074.8
123025
122967.7
122933
122928.5
122954
122998.5
123050.1
123100.1
123143.4
123173.5
123179.1
123159.1
123126.7
123093.4
123038.9
122989
122929.8
122864.1
122804
123184.8
123179
123148.2
123109.1
123076.7
123057.1
123030.9
123038.5
123068.9
123115.1
123167.2
123214.9
123249.9
123265.7
123254.2
123216.6
123174.2
123125.9
123060.6
123001.1
122945.5
122898.8
123176.9
123167
123152.4
123127.9
123108.7
123105.6
123107.9
123134.5
123160.9
123210.6
123263.8
123310.6
123339.6
123346.7
123333.4
123282.6
123222.4
123148.8
123090
123034.7
122986.8
122948
123133.7
123136.9
123132
123126.4
123130
123152.2
123192.4
123235.2
123293.5
123339.2
123384.2
123418.1
123423.3
123398.3
123322.7
123248.8
123184.8
123127.7
123081.6
123050.3
123113
123127.7
123138.3
123151.8
123181.6
123220.9
123276.8
123341
123395.9
123442.9
123475.5
123471.4
123422.6
123352.2
123281.2
123221
123173.7
123152.2
123110.6
123137.7
123164
123202.7
123249
123308.6
123370.2
123432.2
123480
123509.7
123502.6
123448
123374.8
123312.5
123257.7
123239.8
123126.3
123158.9
123212.9
123267.6
123328.4
123393.7
123456.2
123504.6
123531.2
123515.4
123455.4
123386.9
123340.8
123325.8
123206.7
123264.8
123329.2
123394.2
123452.8
123494.9
123508.6
123484.3
123448.6
123427.4
122989
123038.7
123095.3
123070.4
122982.4
122920.1
122888.7
122885.4
122949.2
122949.5
122952.9
122986.9
123043.8
123114.1
123112.2
123030.5
122963.4
122924.4
122907.4
122918.4
122943.1
122987.7
122968.7
122952.3
122927.2
122926.3
122963.7
123032.5
123108.6
123125.9
123055.4
122998.8
122963.7
122949.5
122952.1
122963.2
122991.1
123068.8
123075.5
123048.7
122999.7
122946.2
122897.9
122880.1
122915.5
122998.9
123082.4
123110.8
123069.6
123034.1
123009.7
122999.1
123004
123003.2
123034.8
123076.1
123161.4
123248.7
123138.1
123117.4
123081.2
123020.4
122926.6
122832.1
122808.7
122843
122939.4
123035
123071.3
123063.5
123051
123041.6
123040.7
123053.9
123071.4
123102.7
123129.2
123179.1
123236.2
123361
123203.7
123187.4
123179.2
123134.5
123040.2
122902
122770.4
122725.4
122765.4
122854.8
122969.3
123036.8
123063.4
123077.2
123088.1
123101.8
123120.8
123142.8
123175
123213
123239.8
123284.7
123344.8
123475.7
123238.2
123252.1
123251.1
123200.9
123063.7
122886.6
122756.3
122689.5
122710.2
122814.7
122936
123021.6
123074.9
123114.5
123145.5
123179
123211.1
123241.3
123271.8
123306.1
123341.8
123360.5
123401.5
123464.5
123281.9
123284.5
123322
123342.2
123261.2
123112.1
122937.2
122778.3
122706.8
122727.6
122814.6
122924
123019.8
123094.6
123160.3
123215.8
123271.1
123317.9
123362.2
123397.3
123425.3
123450.9
123475.7
123476.5
123485
123557.6
123311
123300
123337.8
123408.3
123409.8
123332.6
123186.7
122989.9
122822.7
122736.7
122739.8
122807.7
122908.4
123014.9
123116.2
123211.5
123297.1
123376.1
123440.6
123498.4
123540
123567.5
123581.5
123590.7
123598.2
123565.3
123548.1
123574.5
123314.3
123323.6
123362.2
123446.2
123466
123394.5
123223
123014
122836.2
122729.1
122707.9
122762.2
122864.5
122987.1
123108
123223.5
123334.4
123436.9
123527.3
123606.9
123671.2
123709.2
123718.4
123710.1
123699.1
123655.8
123611.5
123582
123317.4
123336.1
123392.4
123465.5
123483.4
123409.6
123224.6
122997.8
122787.2
122650.1
122602.6
122642.4
122744.4
122878.7
123024.9
123164.3
123291.4
123405.4
123505.2
123590.9
123664.7
123722.9
123760.7
123771.6
123763.8
123740.7
123663.5
123600.9
123338.6
123311
123324.4
123366.5
123409
123437.5
123370.4
123174.1
122917.1
122661.2
122480.6
122401.1
122430.7
122543.4
122697.9
122866.6
123033.7
123183.8
123311.7
123417
123501.8
123571.6
123625.1
123671.7
123702
123712.1
123705.4
123650.5
123581
123496.6
123326.6
123307
123305
123323.3
123327.1
123325.5
123255.3
123064.4
122764.6
122465.5
122248.3
122146.2
122179
122315
122495.5
122692.2
122885.3
123056.7
123197.9
123308.7
123392
123454.2
123500.8
123538.4
123565.5
123585.4
123592.5
123561.8
123504.6
123432.7
123328
123303.2
123286.1
123281.2
123252.7
123212.1
123115.6
122927.8
122620.3
122303.9
122051.3
121935.9
121983.1
122140.5
122335.6
122543.9
122750.6
122935.8
123085.1
123197.5
123276.2
123330
123368.1
123391.3
123408.8
123418.4
123424.4
123399.1
123354.4
123295.1
123332.7
123301.8
123273.5
123251.2
123202
123138.3
123026.2
122837.6
122561.3
122256.7
122005.6
121906
121962.4
122110.4
122288.6
122475.6
122669.1
122850.9
122996.8
123102.8
123172.2
123213.7
123236.8
123247
123249.4
123244.5
123239.1
123199.4
123150.7
123096.6
123337.4
123304.9
123269.4
123235.8
123175.7
123104
122995.1
122828.1
122603.3
122356.2
122155
122075.6
122117
122230.9
122370.3
122516.7
122671.7
122823.9
122949.9
123039
123092.2
123117.2
123123.6
123119.4
123104.3
123082.3
123061.2
123000.9
122934.2
122869.6
123345.9
123313.3
123272.9
123232.9
123168.5
123097.2
123002
122870.4
122700.1
122522.3
122380.8
122322.9
122351
122431.1
122531.4
122636.1
122745.8
122857.7
122951.9
123013.4
123043.6
123049.2
123038.9
123017.3
122985.9
122947.8
122910.6
122829.7
122741.5
122659
123358.2
123324.8
123282.4
123239.7
123174.1
123107.5
123027.7
122929
122806.6
122685.7
122593.6
122556.3
122576.2
122633.8
122707
122782.9
122859.6
122934.9
122993.8
123022.8
123027.2
123012
122984.5
122944.5
122902.7
122852.9
122805.8
122711.7
122609.3
122516
123363.7
123325.4
123290.7
123250
123187.1
123125.5
123058.9
122984.9
122902.1
122819.8
122763.3
122744.1
122763.5
122810.6
122869.7
122929.5
122985.1
123032.4
123059.5
123057.5
123037
123003.2
122960.6
122910.9
122859.1
122805
122756.8
122663.2
122556.7
122457.5
123310.3
123289.8
123250.5
123203.1
123139.9
123085.8
123029.9
122974.7
122922.4
122890.9
122887.1
122911.2
122956.2
123010.4
123063.1
123106.1
123132.9
123133
123105.3
123063.9
123014.5
122960.2
122908.5
122855.5
122808.7
122760.8
122681.3
122602.9
123323.8
123281.8
123234.7
123198
123145.2
123102.5
123062
123025.6
122997.1
122982.9
122993.7
123025.7
123074.1
123129.2
123179.6
123213.6
123224.3
123203.5
123157.5
123100.6
123041.2
122983.1
122929.4
122881.2
122842.4
122790.3
122741.9
122692.2
123341.4
123268.2
123219.9
123185.3
123146.8
123105.9
123077.2
123055.9
123046.8
123050.1
123074.6
123113.3
123167.4
123225.2
123274.8
123301.8
123302.1
123269.1
123209.7
123139.6
123074
123018
122969.8
122936.2
122901.4
122861.1
122825.6
122793.2
123278.2
123208.7
123165.8
123137.4
123111.9
123085.8
123076.1
123079.3
123097.8
123133.9
123181.5
123241.5
123299.6
123348.1
123373.1
123369.7
123324.8
123249.3
123175.3
123113.1
123061.7
123026.9
122992.4
122960.8
122941.7
122916.5
123202.3
123156.9
123122.9
123108.5
123099.9
123093
123104.8
123133.8
123176.9
123233.1
123297.8
123358.4
123406
123429
123417.6
123361.1
123281.2
123210.2
123154.5
123117.1
123082.3
123047.5
123029.3
123025.2
123216.8
123147.9
123116.1
123100.2
123104.3
123113.4
123126.4
123162.1
123211.5
123273.6
123340.2
123402.1
123448.1
123469.3
123451
123385.2
123308.7
123246.2
123205.2
123171.5
123136.2
123114.1
123103.8
123103.4
123153.2
123113.2
123098.9
123102.1
123125.7
123149.5
123192.5
123241.6
123305.6
123373.6
123435.4
123481.9
123501.1
123471.9
123405.1
123346
123298.1
123261.9
123226.6
123209.6
123193.2
123198.1
123117.8
123098.1
123103.6
123123.7
123158.3
123212.7
123269
123335.5
123404.7
123467.9
123516.5
123528.5
123492.2
123437.2
123388.1
123339.7
123317
123307.4
123302.9
123311.8
123103.3
123125.2
123163.8
123213.8
123278.6
123346.6
123415.9
123479.7
123519.8
123518.6
123485.7
123447.9
123427
123408
123398.6
123440.8
123127.4
123161.6
123212.9
123284.4
123355.2
123424.4
123482.9
123513.7
123512.3
123491.6
123467.6
123474.8
123497.9
123545.1
123285.9
123351
123413.9
123459.8
123484.2
123495
123513.8
123565.6
122949.4
122961.1
122915
122853.9
122825.8
122826
122918.2
122905
122910.8
122936.5
122985.2
123016.7
122972.8
122897.6
122850.5
122830.8
122840.4
122862.4
122893.7
122933.5
123020.7
122966.1
122926.5
122908.6
122917.5
122962.4
123018.6
123074.1
123042.9
122952.6
122890.4
122860.1
122854.4
122856.2
122881
122916.4
122971.1
123042.3
123068
123016
122974.2
122945.6
122926.6
122927.8
122957.9
123017
123090.9
123083.7
122990.6
122915.2
122873
122862.3
122867.1
122887.2
122920.3
122961.1
123025.9
123139.3
123114.7
123064.7
123021.2
122984.5
122941.7
122903
122901.6
122938.2
123005
123085.3
123093
123012.2
122939.6
122895
122875.6
122874.9
122891.4
122927.8
122972.1
123027.6
123119
123260.2
123171.7
123116.1
123080.8
123041.8
122994.6
122933.2
122887.7
122874.6
122905.6
122975.5
123059.8
123081.7
123019.9
122964.2
122927.3
122909.1
122906.1
122917
122947.3
122996.7
123054.1
123127.8
123229.2
123395.7
123228.2
123167.3
123131.9
123098.1
123057.1
123004
122929.7
122853.4
122816.2
122837.1
122912.9
123002.9
123041.1
123014.4
122985.5
122964.8
122955.6
122957.6
122969.3
122992.6
123028.5
123081.2
123151.4
123232.9
123346
123520.7
123274.5
123213.6
123183.1
123158.5
123132.8
123096.8
123026.6
122916.3
122800.1
122735.4
122750.5
122827.5
122927.4
122995.5
123012
123012.9
123012.9
123017.5
123027.7
123043
123064.4
123091.7
123131.4
123188.6
123260.1
123345.3
123444.7
123607.8
123301.5
123251.1
123220.2
123207.4
123194.1
123185.5
123148.8
123053.3
122909.4
122764.1
122686.6
122683.4
122763.5
122883
122974.2
123022.4
123050.5
123072.4
123094.3
123116.4
123138.2
123160.1
123183.4
123210.9
123248.4
123300.3
123366.9
123431.1
123511.3
123635.8
123286.3
123254.5
123241
123237.9
123242.3
123248.8
123209.1
123103.5
122946.3
122784
122673.5
122675.5
122757
122871.8
122971.7
123042.9
123097.9
123144
123186.1
123223.2
123255.1
123280.5
123300.7
123318.5
123339.1
123366.3
123405.7
123447.7
123487.3
123552.2
123321.2
123279.1
123265.2
123257.4
123263.5
123293.3
123312.6
123287.1
123180.3
122993.2
122809.7
122703.2
122691.6
122755.2
122857.6
122964.2
123060.8
123149
123226.6
123293.4
123348
123391
123421.4
123439.9
123449
123454.6
123460.6
123465.9
123477.1
123492.2
123486.2
123543.3
123313
123283.3
123271.1
123265.1
123282.9
123330.8
123377.9
123366.8
123222.5
123007.5
122821.2
122701.9
122668.9
122714.3
122811.2
122929.9
123046.2
123156.2
123262.9
123361.9
123447.1
123515.4
123564.6
123590.8
123592.2
123582.5
123568.1
123548.4
123529
123514.2
123472.4
123476.8
123317.7
123287.9
123274.8
123269.8
123292.4
123344.1
123407.6
123383.2
123224.2
122996
122783.2
122633.2
122571.2
122596.9
122687.8
122812.4
122953.5
123091.8
123220.2
123336.2
123436.3
123519
123586.6
123641.9
123675.3
123676.8
123655.9
123627.8
123587.9
123546.1
123480.3
123441.2
123323.8
123296.1
123275.3
123263
123274.6
123306.1
123353.5
123336.6
123176.9
122922.3
122667.4
122474.7
122377.9
122386.3
122482
122625.7
122788.2
122955.4
123110.2
123243.6
123352.3
123436.7
123502.8
123557.5
123606.7
123640.6
123649.6
123633.2
123602.7
123559.1
123508.4
123415.6
123369.1
123323.7
123297.4
123266.7
123247.9
123242.1
123243.3
123247.2
123207.4
123054.7
122782.6
122479.9
122250
122126.3
122134.2
122249
122416.4
122606.7
122800.2
122978
123127.3
123243.7
123328.4
123389.4
123435.3
123473.7
123508.4
123532.3
123540.8
123526.1
123481.5
123427.9
123336
123263.6
123367.6
123331.5
123301.2
123262.8
123233.4
123210.8
123185
123149.8
123073.3
122907.1
122631.8
122321.2
122056.5
121910.6
121927.8
122066.5
122250.8
122453.7
122659.6
122851.2
123010.2
123129.6
123210.8
123263.5
123298.6
123323.1
123343.1
123357.2
123368
123359.8
123330.6
123274.8
123202.1
123159.2
123382.8
123346.8
123310.1
123263.2
123224.3
123188.9
123145.1
123086.5
122990.1
122822.7
122567.9
122269.6
122000.3
121870.5
121900.5
122032.3
122204.2
122387.3
122577.7
122763.1
122918.8
123032.2
123103.8
123143.6
123163.8
123171.9
123174
123169.8
123164.3
123148.5
123117.3
123070.3
123009.8
122982.2
123403.1
123365.2
123322.9
123268.6
123222.2
123178.2
123124.6
123057.2
122960.2
122812.1
122601.7
122357.9
122141.9
122037.1
122055.9
122157.2
122292.4
122435.5
122587.7
122740.5
122873.3
122967.9
123022
123043.8
123045.9
123035.7
123018.1
122993.8
122967
122929
122881.6
122830.6
122767.7
122753.6
123427.5
123386.7
123341.5
123280.1
123226.7
123176.3
123118.4
123051.6
122964.8
122845.8
122688.6
122512
122359.2
122283
122294.5
122365
122461.8
122565.6
122673.8
122783.9
122881.2
122945.1
122974.4
122974.1
122956.8
122927.3
122890.9
122847.8
122800.7
122738.8
122668.6
122599.9
122535.2
122538
123453
123401.7
123362.1
123297.1
123236.7
123180.8
123121.2
123058.6
122985.4
122894.7
122783.2
122664.2
122564.4
122514.9
122523.6
122574.1
122645.1
122721.6
122798.1
122871.7
122931.1
122959.9
122961.4
122937.9
122902
122855.7
122804.3
122747.6
122687
122610.9
122527.9
122448.7
122355.3
122398.3
123410.8
123373.9
123315.4
123242.5
123184.8
123126.8
123069.7
123009.5
122941.9
122865.9
122789.6
122729.3
122701.2
122712.3
122754.6
122813
122874.4
122931
122977.4
123004.3
123000.7
122975.3
122931.7
122880.4
122823.6
122763.4
122700.3
122636.2
122562.6
122489.5
122415.8
122322.7
123437.9
123378
123312.8
123237.1
123178.8
123126.1
123075.2
123027.9
122979.8
122930
122883.5
122850.5
122841
122859.9
122902.1
122956.6
123011.4
123056.2
123083
123083.5
123052.8
123005.9
122947.5
122887.3
122826.4
122765.5
122705.5
122647
122589.5
122540.5
122477.6
122419.8
123487.6
123382.8
123307.1
123227.8
123164.6
123115.9
123071.3
123034.3
123001.3
122971
122947
122936.1
122944.5
122973.7
123020.6
123076.2
123128.5
123165
123176.4
123155.8
123104.4
123042.7
122976.2
122913.8
122854.9
122800.4
122750.3
122705.9
122673.5
122646.8
122609.8
122580.4
123551.1
123397.3
123307.6
123231.4
123155.7
123101.1
123060.4
123029.7
123007.5
122992.6
122987.5
122995.4
123019.8
123059.9
123113.5
123171.9
123222.7
123252.1
123251.3
123214.2
123148.1
123077.3
123009.3
122949.9
122897.8
122853.6
122817.1
122796.3
122791.4
122774
122765.5
122740.4
123431.7
123322.8
123229.7
123160.7
123091.7
123051.9
123027.3
123012.6
123008.7
123016.6
123037.9
123074.2
123124.1
123184.3
123245
123293.5
123316.6
123306.3
123256
123179.6
123106.4
123042.8
122989.6
122945.6
122910.1
122891.5
122901.2
122891.5
122897.2
122899.7
123495.5
123338.9
123233.6
123157.4
123090.4
123049.1
123027.4
123019.5
123022.6
123039
123070.3
123115.5
123172.8
123237.4
123298.8
123344
123361.2
123342.3
123280
123200.9
123132.3
123076.3
123031.1
122994.1
122972.3
122969.3
122981.9
122990.4
123007.7
123014
123398.5
123249.1
123157.8
123099.8
123055.8
123032.6
123028.8
123038.3
123059.8
123097.5
123149.2
123211.9
123278.6
123338.4
123379.2
123391.3
123361.6
123291.7
123217.3
123158.6
123112.8
123076
123052
123045.8
123056.9
123063.7
123081.9
123091.6
123279.4
123171.7
123105.9
123071.3
123045.9
123042.7
123056.4
123082.9
123125
123180.1
123245.8
123312.8
123370.3
123408.2
123412.5
123370.2
123301.2
123239
123191.8
123158.4
123137.3
123127.7
123135
123139.2
123157.6
123166.5
123186.8
123116.4
123081.5
123064.5
123067.2
123076.5
123106
123152.7
123211.1
123278.4
123345.5
123402.7
123436.9
123428.4
123379.7
123320.5
123270.6
123238.5
123226.7
123233.5
123230.4
123233.2
123253.4
123269
123127
123087
123072.2
123081
123100.5
123130.2
123177.4
123238.2
123306.1
123373.2
123427.9
123450.9
123433.9
123392.9
123351.5
123321.7
123311.4
123325.5
123333.8
123346.4
123368.2
123402.7
123093.9
123081.2
123086.9
123117
123154.5
123205.5
123266.8
123333.2
123398.8
123446.4
123462.1
123448.5
123423.2
123413.9
123407.3
123415.1
123436.3
123471.5
123495.6
123566
123087.3
123094.9
123120
123161.4
123215.5
123286.4
123356.8
123419.8
123464.6
123483.7
123480.1
123475.5
123491.1
123510
123540.6
123578.5
123631.1
123707.9
123127.6
123163.5
123218.8
123282.3
123355.5
123414.6
123458
123483.9
123501.4
123521.1
123581
123647.3
123728.9
123823.7
123345.8
123399.4
123448.3
123495.5
123561.2
123659.5
122915
122914.2
122918.5
122892.9
122837.8
122804.8
122807.1
122825.7
122854.9
122885.9
123011.7
122950.9
122912.6
122904.5
122916.9
122944.3
122939.8
122877.1
122823.3
122801.5
122803.2
122822.4
122852.1
122886.9
122922.1
122970.5
123051.7
122992
122935.3
122904.4
122902.6
122925.2
122959.4
122976.3
122917.5
122841.2
122798.8
122792
122803.5
122828.6
122856.5
122887
122934.7
123003.1
123202
123105.9
123026.5
122967.8
122922
122888.6
122886.7
122915.6
122960.8
123002.8
122963.8
122871.5
122810.7
122783
122779.9
122795.1
122823.2
122865.6
122911.3
122975
123065.8
123163.8
123240.6
123144.7
123067.7
123009.5
122951.7
122908.4
122879.1
122876.3
122904.2
122955.2
123014.4
123000.1
122906.1
122830.9
122790.4
122777.2
122784.6
122806.6
122839.6
122887.3
122959.1
123033.2
123134
123279.6
123280.4
123182.4
123105.1
123048.8
122990.7
122942.7
122898.8
122866.7
122862.1
122890.7
122946.4
123014.1
123015.4
122933.7
122855.1
122809.5
122789.5
122789.5
122805.5
122835.6
122879
122944.7
123030.8
123123.2
123250.9
123431.6
123299.9
123215.6
123142.2
123088.4
123033.6
122987.8
122943.9
122899
122860.7
122846
122868.4
122925.7
123001.1
123015.2
122950.4
122880.4
122839
122818.2
122813.6
122824.2
122850.6
122892.9
122953.4
123031.5
123130.1
123236.7
123380.9
123574.9
123311.1
123240
123177.6
123128
123076.3
123036.1
123000
122960
122905.2
122844.3
122806.3
122815.9
122875
122957.8
122991.7
122951
122905.6
122877.2
122862.6
122859.4
122867.2
122887.5
122922.9
122976.9
123049.2
123134.4
123240
123349.6
123493.1
123680.8
123265.4
123210.3
123166.3
123119.8
123085.6
123058.9
123032.1
122985.9
122904.2
122806.4
122739.1
122731
122797.7
122890.7
122947
122949
122935.7
122925.9
122922.7
122925.6
122934.5
122950.6
122976.6
123017.8
123078.5
123155
123240.1
123337.6
123440.1
123581.7
123297.8
123244.5
123203.9
123160.5
123129.6
123110.2
123097.9
123077.1
123014.6
122899.2
122760.6
122671.3
122661.6
122718.6
122830.8
122918.2
122957.8
122974.7
122986.2
122997.8
123010.3
123023.9
123039.2
123058.1
123085.7
123128
123186.9
123253.6
123326.8
123409.2
123489.8
123633.1
123308.3
123269.6
123235.1
123197.7
123167.7
123150
123145.4
123148.3
123132.9
123057.7
122914.2
122766.2
122647.4
122619.1
122695.5
122810.2
122909.6
122974.7
123019.9
123056
123087.4
123113.5
123134.6
123151.2
123165.4
123181.8
123205
123239.8
123282.7
123328.7
123382.3
123437.9
123501.5
123578.4
123298.9
123265.9
123236
123203.1
123181.8
123173.9
123185.1
123205.5
123202.7
123123.6
122961.7
122774.4
122657.6
122632.1
122691
122792.6
122896.8
122986.5
123065.3
123132.6
123188.1
123232.6
123264.6
123283.8
123294.5
123300.7
123307
123317.6
123333.7
123354
123377.8
123401.5
123429.8
123464.4
123302.9
123271
123235.1
123208.7
123192.7
123193.1
123218.7
123262.2
123284.4
123176.6
122968
122783.1
122656.3
122613.8
122651.6
122742.8
122855.3
122964.4
123065.9
123165.2
123256.3
123332.7
123389.5
123424.5
123436.7
123431.8
123422.5
123411.9
123402.2
123395.7
123389.5
123380.6
123387.5
123386.9
123340.1
123305.2
123277
123239
123212.8
123197.8
123200.9
123231.6
123292.2
123303.7
123180.3
122961.8
122751.8
122595.6
122522.8
122536.3
122615.8
122730.2
122862.4
122995.2
123121.2
123235.3
123331.2
123406.3
123464.6
123508
123527.7
123519.1
123497.8
123471.3
123443.5
123410.5
123377.5
123360.2
123324.7
123339.7
123345.4
123312.3
123281.2
123243.5
123215.3
123194.8
123189.3
123203.3
123240.5
123254.3
123133.1
122893.7
122646.1
122448.3
122338.3
122328.4
122406.9
122537.7
122692
122856.1
123012
123147.7
123256.2
123336.1
123395.2
123442.8
123484.4
123511
123512.6
123492
123462.9
123419.6
123379.1
123338.1
123284.4
123266.6
123360.2
123324.6
123289.8
123249.8
123214.5
123185.4
123166
123155
123150.5
123125.8
123006.6
122761.9
122468.2
122232.7
122093.7
122077.7
122170.2
122323.8
122505.6
122696.8
122878
123032.9
123152.3
123234.8
123289.9
123329.1
123361.9
123393.6
123414.1
123417.3
123402
123369.2
123331.5
123296.9
123257.6
123203.1
123378.1
123341.4
123296.5
123254.5
123213
123175.4
123142.5
123109.5
123070.6
123003.6
122860.2
122610.7
122313.6
122045.6
121876.8
121865.9
121982.8
122154.7
122349.7
122553.6
122748.6
122915.1
123039.9
123120.4
123167.8
123195.6
123214
123230.2
123243.9
123254.7
123252.1
123232.8
123200.9
123168
123150.8
123126
123403
123363.3
123311.1
123262.6
123214
123168.6
123125.6
123077.8
123019.1
122931.2
122780.5
122545.9
122260.3
121984.7
121828.7
121832
121946.2
122108.8
122287.2
122474.3
122660.5
122823.3
122943.1
123014.4
123048.5
123060.7
123061.2
123057.6
123051.2
123047.4
123040.9
123026.2
123000.2
122985
122990.6
123010.2
123431.6
123390.5
123331.3
123274.9
123218.3
123166
123116.1
123061.1
122995.1
122905.9
122770.5
122574.2
122338.6
122116.2
121990.1
121987.1
122075
122203.7
122344.1
122492.5
122645
122781.5
122881.2
122934
122948.5
122941.2
122921
122895.1
122865.8
122836.9
122809.1
122777
122751.6
122744.8
122779.1
122846.3
123463.3
123419.1
123356.1
123291.9
123226.3
123166.7
123111.8
123054.3
122989.9
122910
122800.8
122653
122480.9
122322.9
122232.3
122228.3
122288.8
122380.8
122483.4
122590.3
122699.1
122797
122863.9
122890.2
122879.9
122850.9
122809.5
122762.1
122711
122658.3
122601.4
122540.7
122501
122495.6
122567.3
122677.5
123503.7
123445.3
123385.1
123306.2
123234.3
123169.4
123110.7
123052.9
122993.8
122927
122844.2
122740.2
122623.8
122520.2
122461.2
122459.3
122502.3
122570.2
122646.6
122723.4
122796.2
122855.5
122886.2
122882.1
122847.4
122798
122738.9
122675
122608.5
122540.5
122467.6
122392.6
122332.4
122318.8
122410.3
122557
123551.7
123474.6
123397.7
123308.1
123232.6
123164
123105.4
123051.5
122999.9
122946.7
122886.6
122817
122742.6
122678.6
122643.2
122647
122684
122740.5
122802.7
122860.6
122907.4
122934.8
122933
122901.5
122847.1
122783.1
122713.9
122642.4
122570.6
122499.7
122427.9
122358.6
122303.9
122302.7
122402
122547.2
123618.7
123506.2
123415.3
123311
123227
123152.3
123091.8
123041.9
122997.7
122957
122915.9
122871.7
122827.1
122791.2
122776.8
122790.8
122829.5
122882.9
122938.7
122985.4
123013.7
123016.3
122988.4
122936.4
122869.1
122798.8
122728.3
122659.1
122593.3
122532.4
122477.5
122430.5
122398.8
122400.3
122473.9
122609.2
123560.6
123436.7
123317.4
123223
123142.2
123076.3
123025.3
122985.3
122953.5
122926.9
122902.2
122880.6
122868.5
122873.6
122899.4
122943.6
122998.1
123051.4
123090.2
123104.2
123087.2
123039.1
122974.5
122902
122833.5
122769.1
122710.6
122660
122619.1
122588.9
122568.6
122561.5
122569.2
122616.1
123616.6
123463
123343.2
123227.2
123138.6
123066.6
123012.1
122973.9
122947.6
122930.1
122919.7
122916.2
122922.8
122943.7
122980.7
123031.3
123088.3
123139.6
123171.2
123173.2
123140
123076.6
123005.9
122935.8
122874.2
122820.7
122777.3
122746.8
122731.1
122724.8
122726.7
122748.2
122744.3
122784.4
123702.3
123517.8
123363.5
123239
123140.3
123065.2
123007.1
122968.2
122945.6
122934.4
122933.3
122942.1
122961.7
122994.4
123040.7
123097.3
123156.1
123204.3
123228.5
123219.2
123172
123099.5
123028.5
122965.7
122913.4
122871.7
122843.2
122832.5
122838.5
122849.2
122871.2
122894.4
122917.4
122923
123615.4
123395.4
123264.4
123153.5
123071.4
123011.8
122971.4
122949.3
122942.3
122946.9
122963.5
122992.2
123033.6
123086.7
123147.3
123205.9
123249.4
123265.5
123245.1
123185
123111.3
123046.1
122993
122951.5
122922.1
122908.4
122913
122931.4
122959
122999.7
123019.3
123026.9
123436.1
123280.1
123170.9
123083.4
123024.1
122983.3
122960.7
122955.3
122964
122985.3
123020.2
123067.7
123125.5
123187.6
123243.6
123281
123288.6
123255.2
123187.1
123119.4
123064.9
123023.3
122994.3
122979
122978.9
122993.1
123018.1
123058.8
123081
123110
123471.1
123300
123180.2
123105.4
123041.6
123002.6
122980.8
122976.1
122986.8
123011.1
123050
123101.3
123161.6
123223.1
123275.1
123306
123302
123254.3
123188.9
123133.8
123092.3
123065.3
123051.7
123049.8
123059.6
123079.1
123114.1
123134.8
123166
123179.5
123312
123194.3
123112.4
123063.5
123024.3
123005.1
123002.4
123014.2
123041
123082.3
123136
123197.1
123257
123305.2
123326.9
123306.7
123254.8
123201.7
123162.3
123137.8
123129.2
123130
123137.9
123155.4
123189.1
123205.1
123232.4
123240.5
123200.4
123121.9
123072.3
123046.1
123027.8
123027.7
123043.6
123073.6
123116.7
123171.2
123231.8
123290.2
123331.6
123339.2
123311.5
123269.4
123233
123212.5
123207.8
123217.6
123229.1
123253.4
123284.4
123305.3
123336
123350.5
123126.3
123080.6
123057.5
123052.6
123052.8
123072.4
123106.7
123152.5
123207.3
123267.7
123322.8
123353.9
123353.6
123331
123305.2
123288.8
123287.5
123301.1
123329.9
123361.2
123405.1
123435.9
123476.6
123503.1
123088.8
123068.3
123067.9
123076.7
123098.9
123135.2
123183.9
123242
123302.4
123352.4
123378.4
123380.1
123369.5
123365.5
123368.8
123392.4
123426.3
123487.3
123530.4
123584.5
123642.3
123706.4
123075.6
123084.6
123115
123158.8