/*--------------------------------*- C++ -*----------------------------------*\
  =========                 |
  \\      /  F ield         | OpenFOAM: The Open Source CFD Toolbox
   \\    /   O peration     | Website:  https://openfoam.org
    \\  /    A nd           | Version:  6
     \\/     M anipulation  |
\*---------------------------------------------------------------------------*/
FoamFile
{
    version     2.0;
    format      ascii;
    class       volScalarField;
    location    "50";
    object      T;
}
// * * * * * * * * * * * * * * * * * * * * * * * * * * * * * * * * * * * * * //

dimensions      [0 0 0 1 0 0 0];

internalField   nonuniform List<scalar> 
203709
(
924.1284
924.1306
924.1332
924.1346
924.1189
924.1217
924.1261
924.1285
924.1304
924.1313
924.1319
924.1324
924.1075
924.1109
924.1153
924.1186
924.1217
924.1238
924.1252
924.126
924.1266
924.1271
924.1276
924.1281
924.0961
924.0997
924.103
924.1069
924.1099
924.1122
924.1139
924.1152
924.1163
924.1174
924.1185
924.1197
924.121
924.1227
924.0984
924.1018
924.1054
924.1093
924.1134
924.1171
924.12
924.1221
924.1237
924.125
924.1261
924.1269
924.1271
924.1261
924.1009
924.1046
924.1112
924.1167
924.1214
924.1268
924.1324
924.1365
924.139
924.1409
924.1425
924.1439
924.1451
924.1459
924.1462
924.1474
924.0868
924.0875
924.0898
924.0935
924.0999
924.1132
924.1269
924.136
924.1408
924.1441
924.1469
924.1491
924.1508
924.1519
924.1519
924.1508
924.1049
924.0889
924.0813
924.071
924.0485
924.0668
924.0875
924.1117
924.1294
924.1377
924.1429
924.1471
924.1507
924.1532
924.1548
924.1548
924.1534
924.1518
924.116
924.1033
924.0924
924.0813
924.0703
924.0655
924.0707
924.0933
924.1203
924.1329
924.14
924.1459
924.151
924.1547
924.1569
924.1571
924.1558
924.1532
924.1277
924.1187
924.1095
924.1009
924.0944
924.09
924.0894
924.0959
924.1117
924.1274
924.1364
924.1437
924.1507
924.1557
924.1586
924.1589
924.1576
924.155
924.1351
924.1311
924.125
924.1191
924.1145
924.1106
924.1082
924.1095
924.116
924.1248
924.1329
924.1411
924.1498
924.1564
924.1602
924.1606
924.1591
924.1568
924.138
924.1348
924.1311
924.1277
924.1244
924.1216
924.1206
924.1223
924.1262
924.1317
924.1389
924.1486
924.1569
924.1616
924.162
924.1606
924.1437
924.1423
924.1398
924.1372
924.1343
924.131
924.1283
924.1272
924.1283
924.1318
924.1381
924.1479
924.1572
924.163
924.1633
924.1619
924.146
924.1443
924.1421
924.1393
924.1359
924.1326
924.1305
924.1303
924.1326
924.1382
924.1483
924.1578
924.1643
924.1645
924.1505
924.1487
924.1463
924.1432
924.1395
924.1359
924.1332
924.1321
924.1338
924.139
924.1496
924.1591
924.1655
924.1655
924.1517
924.1488
924.1457
924.1418
924.1381
924.1351
924.1337
924.1352
924.1406
924.152
924.1606
924.1665
924.1469
924.1433
924.1396
924.1364
924.1351
924.1369
924.1427
924.1539
924.1396
924.1371
924.1364
924.1383
924.0523
924.0527
924.063
924.1009
924.1275
924.1361
924.1382
924.1389
924.1392
924.1393
924.0507
924.0479
924.0409
924.0505
924.0815
924.1106
924.1293
924.1359
924.1378
924.1383
924.1385
924.1385
924.1387
924.1389
924.0547
924.0559
924.0546
924.0576
924.0734
924.0979
924.1179
924.1305
924.1353
924.1368
924.1373
924.1375
924.1376
924.1377
924.1377
924.1381
924.055
924.0606
924.0682
924.0723
924.079
924.0914
924.1077
924.1228
924.1308
924.1342
924.1354
924.1358
924.1359
924.136
924.1362
924.1363
924.1364
924.1368
924.0542
924.0623
924.0741
924.0834
924.0905
924.0965
924.1074
924.1161
924.1239
924.1297
924.132
924.1329
924.1335
924.1337
924.1337
924.1338
924.134
924.1342
924.1342
924.1344
924.0724
924.061
924.0717
924.0836
924.0931
924.1008
924.1055
924.1111
924.1181
924.1232
924.1265
924.1281
924.1288
924.1292
924.1295
924.1301
924.1303
924.1304
924.1306
924.1308
924.1308
924.1307
924.0664
924.0675
924.0769
924.0861
924.0932
924.0989
924.1051
924.1101
924.1144
924.1174
924.1194
924.1204
924.1212
924.1218
924.1223
924.1228
924.1233
924.1244
924.1246
924.1253
924.126
924.1267
924.1314
924.1033
924.0737
924.083
924.0909
924.0967
924.1021
924.1067
924.1107
924.1145
924.1181
924.121
924.123
924.1244
924.1251
924.1251
924.1242
924.1222
924.1198
924.1155
924.1162
924.116
924.1161
924.1093
924.1334
924.1207
924.0882
924.081
924.0939
924.1012
924.1095
924.1155
924.1206
924.1261
924.1316
924.1358
924.1387
924.1408
924.1424
924.1435
924.1439
924.1432
924.1412
924.1408
924.1382
924.1337
924.1302
924.1283
924.1363
924.1296
924.1074
924.0878
924.085
924.0875
924.0902
924.0941
924.1006
924.1129
924.1256
924.1349
924.1402
924.144
924.1472
924.1496
924.1512
924.1518
924.1512
924.1498
924.1476
924.1442
924.1403
924.1363
924.1394
924.1351
924.1222
924.1057
924.0908
924.0835
924.0746
924.0546
924.0696
924.0883
924.1101
924.1274
924.1364
924.1423
924.1473
924.1513
924.1539
924.1552
924.1548
924.1529
924.151
924.1474
924.1425
924.1371
924.1424
924.1393
924.1326
924.1218
924.1075
924.0958
924.0846
924.0731
924.068
924.0735
924.0931
924.1174
924.1307
924.1389
924.1457
924.1516
924.1556
924.1575
924.1573
924.1558
924.1532
924.1495
924.1439
924.1372
924.1451
924.1427
924.1389
924.1329
924.1238
924.114
924.1048
924.0976
924.0933
924.0926
924.098
924.1107
924.1246
924.1348
924.1433
924.1513
924.1567
924.1593
924.1593
924.1578
924.1551
924.1512
924.1449
924.1371
924.1476
924.1456
924.1431
924.1398
924.1359
924.1298
924.1239
924.1193
924.1156
924.113
924.1129
924.117
924.124
924.1316
924.1404
924.1504
924.1576
924.1609
924.161
924.1594
924.1568
924.1527
924.1458
924.137
924.1502
924.1484
924.1464
924.1451
924.1419
924.1389
924.1356
924.1327
924.1298
924.1268
924.1247
924.1246
924.1269
924.1313
924.1388
924.1493
924.1584
924.1623
924.1624
924.1607
924.1583
924.1541
924.1465
924.1368
924.1537
924.1516
924.1496
924.148
924.1463
924.1447
924.1427
924.1406
924.1383
924.1354
924.1324
924.1303
924.13
924.1324
924.1387
924.1492
924.1591
924.1637
924.1638
924.1621
924.1597
924.1552
924.1472
924.1369
924.1601
924.1569
924.154
924.1516
924.1503
924.1483
924.1467
924.145
924.1428
924.14
924.1367
924.1339
924.1324
924.1338
924.1396
924.1503
924.1603
924.1651
924.165
924.1638
924.1611
924.1565
924.1481
924.1373
924.1636
924.1603
924.1572
924.1545
924.1527
924.1506
924.1485
924.1461
924.1432
924.1398
924.1365
924.1344
924.1355
924.1413
924.1525
924.162
924.1665
924.1663
924.165
924.1625
924.158
924.1507
924.175
924.1705
924.1664
924.1624
924.159
924.1554
924.1522
924.1488
924.1453
924.1415
924.1379
924.1357
924.1373
924.1436
924.1555
924.1641
924.1678
924.1678
924.1663
924.164
924.1597
924.1524
924.1768
924.1731
924.1689
924.1643
924.16
924.1557
924.1508
924.1465
924.1422
924.1384
924.1366
924.1394
924.1465
924.1587
924.1672
924.1691
924.169
924.1677
924.1654
924.1616
924.1783
924.1744
924.1696
924.1642
924.1583
924.1528
924.1475
924.1423
924.1387
924.1379
924.1415
924.1511
924.1618
924.1688
924.1704
924.1703
924.1689
924.1669
924.1777
924.1731
924.1673
924.1609
924.1542
924.1477
924.1426
924.1394
924.1399
924.1447
924.154
924.1656
924.1706
924.1717
924.1715
924.1701
924.1742
924.169
924.1623
924.155
924.1483
924.1433
924.141
924.1427
924.149
924.1596
924.1686
924.1722
924.1728
924.1727
924.1607
924.1546
924.1488
924.1445
924.1432
924.1462
924.1539
924.1644
924.1709
924.1738
924.0816
924.085
924.0922
924.1232
924.1353
924.1366
924.1369
924.1369
924.0883
924.0824
924.078
924.0766
924.0792
924.086
924.12
924.1357
924.1376
924.1381
924.1383
924.1388
924.139
924.1389
924.096
924.0878
924.0783
924.0723
924.0698
924.0719
924.0819
924.1233
924.1359
924.1381
924.1387
924.139
924.1393
924.1394
924.1394
924.1396
924.1116
924.1061
924.0948
924.0818
924.0712
924.0616
924.0589
924.0633
924.0907
924.1254
924.1359
924.1381
924.1388
924.139
924.1392
924.1392
924.1394
924.1396
924.1404
924.1407
924.1149
924.1121
924.1022
924.087
924.07
924.0604
924.0543
924.0512
924.0697
924.1029
924.1275
924.1357
924.1377
924.1382
924.1383
924.1384
924.1386
924.1388
924.1392
924.1399
924.1403
924.1407
924.1214
924.1164
924.1115
924.0958
924.0738
924.0638
924.0583
924.0533
924.0671
924.0873
924.1121
924.1291
924.1352
924.1368
924.1372
924.1372
924.1372
924.1374
924.1377
924.1383
924.1388
924.1392
924.1395
924.1397
924.1215
924.1182
924.1089
924.0819
924.0674
924.0644
924.0675
924.0749
924.085
924.1019
924.1189
924.1299
924.1342
924.1354
924.1357
924.1358
924.1358
924.1359
924.1362
924.1367
924.1373
924.1376
924.1377
924.1379
924.131
924.1246
924.1206
924.0987
924.0745
924.0677
924.0773
924.0852
924.0915
924.1005
924.112
924.1227
924.1296
924.1324
924.1334
924.1337
924.1338
924.1339
924.1341
924.1343
924.1346
924.1349
924.1352
924.1351
924.1346
924.134
924.1398
924.133
924.1273
924.1174
924.0956
924.0684
924.0776
924.0883
924.0959
924.1021
924.1092
924.117
924.1234
924.1274
924.1292
924.1299
924.1303
924.1306
924.1308
924.1311
924.1314
924.1316
924.1318
924.1319
924.1318
924.1314
924.1308
924.1295
924.1404
924.1349
924.1301
924.1174
924.0929
924.0743
924.0839
924.0923
924.0992
924.1054
924.1109
924.1158
924.1194
924.1216
924.1227
924.1233
924.1239
924.1244
924.125
924.1257
924.1263
924.1268
924.1272
924.1275
924.1276
924.1274
924.1268
924.1264
924.1417
924.1371
924.1326
924.1255
924.1035
924.0814
924.0897
924.0969
924.1026
924.1073
924.1115
924.1152
924.1187
924.1215
924.1236
924.1249
924.1254
924.125
924.1238
924.1219
924.1202
924.1192
924.1198
924.1205
924.121
924.1212
924.1212
924.1216
924.149
924.1445
924.1401
924.1358
924.1304
924.1146
924.0897
924.091
924.1007
924.1089
924.1152
924.1206
924.1259
924.131
924.1351
924.1381
924.1402
924.1417
924.1426
924.1424
924.1411
924.1386
924.1359
924.1316
924.1261
924.1223
924.1204
924.1173
924.1159
924.1131
924.1496
924.1464
924.1427
924.1389
924.1344
924.1242
924.1041
924.0915
924.0893
924.092
924.0961
924.1024
924.1134
924.125
924.1339
924.1395
924.1434
924.1467
924.1491
924.1504
924.1503
924.1489
924.1467
924.1438
924.1396
924.1354
924.1299
924.1239
924.1193
924.1161
924.1506
924.1481
924.145
924.1418
924.1379
924.1314
924.1179
924.103
924.092
924.0825
924.0647
924.0731
924.0899
924.1092
924.1257
924.1351
924.1413
924.1465
924.1508
924.1534
924.1539
924.1526
924.1501
924.1471
924.1426
924.1373
924.131
924.1235
924.1161
924.1114
924.1518
924.1496
924.1471
924.1444
924.1411
924.1368
924.1287
924.1172
924.1053
924.0937
924.081
924.0736
924.0769
924.0932
924.1151
924.1288
924.1374
924.1445
924.1509
924.1551
924.1562
924.155
924.1524
924.1489
924.1442
924.1382
924.1303
924.1204
924.1093
924.1006
924.1532
924.1512
924.1491
924.1468
924.1441
924.141
924.1363
924.1292
924.1206
924.1116
924.1036
924.0983
924.0964
924.1
924.1102
924.1228
924.1329
924.1416
924.1501
924.1564
924.1582
924.1569
924.1542
924.1505
924.1457
924.1392
924.1299
924.1179
924.1034
924.0921
924.1552
924.1532
924.1512
924.1491
924.1468
924.1444
924.1415
924.1376
924.1327
924.1273
924.1226
924.1192
924.1164
924.1155
924.1181
924.1237
924.1305
924.1386
924.1487
924.1573
924.1599
924.1587
924.1559
924.1522
924.1472
924.1404
924.1298
924.1157
924.0979
924.0848
924.1588
924.1561
924.1539
924.1518
924.1497
924.1477
924.1455
924.1432
924.1404
924.1375
924.1348
924.1324
924.1298
924.1275
924.1266
924.1278
924.1312
924.1376
924.1475
924.1579
924.1615
924.1603
924.1576
924.154
924.1488
924.1415
924.13
924.114
924.093
924.0793
924.1665
924.1623
924.1587
924.1559
924.1534
924.1512
924.1492
924.1474
924.1456
924.1438
924.142
924.1402
924.1378
924.1351
924.1327
924.1317
924.133
924.1382
924.1478
924.1588
924.163
924.1618
924.1592
924.1557
924.1505
924.143
924.1303
924.1129
924.0891
924.0756
924.1701
924.1661
924.1636
924.1598
924.1566
924.1539
924.1517
924.1498
924.1482
924.1467
924.1449
924.1425
924.1396
924.1367
924.1346
924.135
924.1397
924.1494
924.1603
924.1644
924.1633
924.1609
924.1575
924.1524
924.1448
924.1315
924.1131
924.0906
924.1811
924.1769
924.1734
924.1689
924.165
924.1615
924.1584
924.1556
924.1532
924.151
924.1486
924.1459
924.1427
924.1394
924.1368
924.137
924.1419
924.152
924.1626
924.1659
924.1648
924.1627
924.1597
924.155
924.1467
924.1355
924.1153
924.0913
924.1883
924.1847
924.1812
924.1782
924.1742
924.1704
924.1665
924.1628
924.1592
924.1559
924.1525
924.1489
924.145
924.1411
924.1383
924.139
924.1448
924.1556
924.1651
924.1674
924.1665
924.1647
924.1622
924.1583
924.1504
924.1396
924.1193
924.0932
924.1899
924.1867
924.1841
924.1811
924.1773
924.1734
924.1691
924.1646
924.1602
924.1557
924.151
924.1463
924.1419
924.1395
924.1413
924.1485
924.1597
924.1676
924.169
924.1681
924.1667
924.1648
924.161
924.1556
924.1451
924.1242
924.1902
924.1878
924.1853
924.1822
924.1784
924.174
924.1689
924.1635
924.1579
924.1521
924.1466
924.1421
924.1407
924.1442
924.153
924.1639
924.1697
924.1705
924.1698
924.1687
924.1668
924.1644
924.1595
924.1514
924.1923
924.1901
924.1876
924.1848
924.1813
924.1769
924.1716
924.1655
924.1589
924.1523
924.1463
924.1425
924.1427
924.1481
924.158
924.1675
924.1714
924.1721
924.1715
924.1703
924.169
924.1669
924.1629
924.1548
924.1905
924.1884
924.1856
924.1824
924.1777
924.1724
924.1661
924.1588
924.1517
924.1461
924.1436
924.1458
924.1529
924.1633
924.1702
924.1731
924.1736
924.173
924.1721
924.1706
924.169
924.1654
924.188
924.1858
924.1822
924.1778
924.1723
924.1652
924.1578
924.1511
924.1466
924.1458
924.1498
924.1587
924.1673
924.1724
924.1746
924.175
924.1745
924.1735
924.172
924.1706
924.1807
924.1766
924.1708
924.1643
924.1572
924.1513
924.1481
924.149
924.1547
924.1634
924.1703
924.1742
924.1759
924.1763
924.176
924.1749
924.1743
924.1696
924.1639
924.1569
924.1522
924.1505
924.153
924.1597
924.1671
924.1728
924.1759
924.1771
924.1775
924.1774
924.1564
924.1537
924.1535
924.1574
924.1638
924.1703
924.175
924.1777
924.1075
924.1118
924.1296
924.132
924.132
924.1318
924.1126
924.111
924.1085
924.1069
924.1058
924.1073
924.128
924.1335
924.1338
924.1339
924.1347
924.1351
924.1355
924.1354
924.1126
924.1123
924.1116
924.1081
924.1044
924.101
924.0995
924.1019
924.1252
924.1343
924.1354
924.1356
924.1361
924.1365
924.1369
924.1371
924.1374
924.1372
924.1138
924.1121
924.1113
924.1083
924.1018
924.0963
924.0947
924.0938
924.0966
924.1193
924.1345
924.1364
924.1367
924.1371
924.1374
924.1378
924.1381
924.1385
924.1387
924.139
924.1176
924.1132
924.1113
924.1088
924.1052
924.0983
924.0916
924.0873
924.0868
924.0908
924.1166
924.1342
924.1368
924.1372
924.1373
924.1375
924.1379
924.1384
924.1389
924.1394
924.14
924.1405
924.1252
924.1174
924.113
924.1104
924.1067
924.0985
924.089
924.0809
924.076
924.0754
924.0849
924.1178
924.1338
924.1365
924.1369
924.1369
924.1369
924.1371
924.1376
924.1386
924.1395
924.1403
924.1409
924.1415
924.1345
924.1248
924.1177
924.1136
924.1098
924.1009
924.0885
924.0771
924.0683
924.0632
924.067
924.0906
924.1208
924.1333
924.1358
924.1362
924.1359
924.1356
924.1356
924.136
924.137
924.1384
924.1398
924.1406
924.141
924.1414
924.1433
924.1335
924.1251
924.1185
924.1146
924.1071
924.0922
924.0777
924.0673
924.0596
924.06
924.079
924.1024
924.1238
924.1328
924.1348
924.1349
924.1347
924.1343
924.1341
924.1345
924.1355
924.137
924.1385
924.1395
924.1399
924.14
924.1397
924.1495
924.1416
924.1338
924.126
924.12
924.1152
924.101
924.082
924.0699
924.0653
924.0695
924.0785
924.0942
924.1122
924.126
924.1319
924.1333
924.1335
924.1333
924.1331
924.133
924.1334
924.1342
924.1354
924.1366
924.1375
924.1379
924.1378
924.1372
924.136
924.1475
924.1414
924.1343
924.1271
924.1218
924.1134
924.0928
924.0735
924.072
924.0798
924.0866
924.095
924.1067
924.1186
924.127
924.1306
924.1315
924.1316
924.1316
924.1316
924.1318
924.1321
924.1327
924.1334
924.1342
924.1348
924.1351
924.135
924.1344
924.1333
924.1533
924.1478
924.1421
924.1354
924.1288
924.1235
924.1118
924.0831
924.0735
924.084
924.0925
924.0989
924.1061
924.1141
924.1213
924.1259
924.128
924.1286
924.1288
924.129
924.1292
924.1295
924.1299
924.1304
924.1309
924.1313
924.1316
924.1317
924.1316
924.1308
924.1298
924.1266
924.1528
924.1485
924.1434
924.1371
924.1309
924.1253
924.1114
924.0765
924.0821
924.0913
924.0984
924.1045
924.1101
924.1152
924.1192
924.1215
924.1227
924.1232
924.1236
924.124
924.1244
924.125
924.1256
924.1263
924.127
924.1275
924.1278
924.1279
924.1277
924.127
924.1261
924.1238
924.1528
924.1493
924.1447
924.1391
924.1333
924.1281
924.1157
924.0846
924.0888
924.0967
924.1026
924.1074
924.1116
924.1154
924.1188
924.1216
924.1238
924.1251
924.1255
924.125
924.1237
924.1218
924.1203
924.1199
924.1207
924.1216
924.1224
924.1229
924.1232
924.1231
924.1225
924.1201
924.1529
924.15
924.146
924.1411
924.1359
924.1311
924.1213
924.0964
924.0901
924.1001
924.1084
924.115
924.1206
924.1256
924.1304
924.1344
924.1373
924.1394
924.1408
924.1414
924.1408
924.1389
924.1357
924.1318
924.1267
924.122
924.1201
924.1191
924.1182
924.1183
924.1175
924.1162
924.1565
924.1539
924.1511
924.1475
924.1432
924.1386
924.1342
924.127
924.1092
924.0944
924.0909
924.0937
924.098
924.1041
924.114
924.1244
924.133
924.1385
924.1425
924.1457
924.148
924.1489
924.1479
924.1456
924.1425
924.139
924.1346
924.1296
924.1245
924.12
924.117
924.115
924.1133
924.1114
924.1565
924.1545
924.1521
924.1489
924.1453
924.1413
924.1372
924.132
924.1205
924.106
924.0952
924.0869
924.0726
924.076
924.0911
924.1085
924.1241
924.1337
924.1401
924.1453
924.1496
924.1519
924.1514
924.1487
924.145
924.1407
924.1357
924.1301
924.1238
924.1173
924.1127
924.11
924.1085
924.1073
924.1572
924.1553
924.1532
924.1505
924.1474
924.1439
924.1403
924.1363
924.1293
924.1188
924.1078
924.0973
924.0856
924.0775
924.0795
924.0932
924.1129
924.1271
924.1357
924.1429
924.1493
924.1536
924.1536
924.1505
924.1461
924.1409
924.135
924.1282
924.12
924.11
924.0995
924.0932
924.0929
924.0938
924.1587
924.1567
924.1547
924.1523
924.1496
924.1466
924.1435
924.1402
924.1359
924.1294
924.1215
924.1134
924.1059
924.1009
924.0988
924.1014
924.1099
924.1213
924.131
924.1396
924.1481
924.1546
924.1555
924.1521
924.1471
924.1411
924.1343
924.1267
924.1171
924.1047
924.0909
924.0789
924.071
924.0721
924.162
924.1593
924.157
924.1547
924.1522
924.1496
924.1468
924.144
924.141
924.1372
924.1325
924.1276
924.1233
924.1205
924.1182
924.1172
924.119
924.1236
924.1296
924.1369
924.1463
924.1552
924.1572
924.1537
924.1483
924.1417
924.1342
924.1255
924.1151
924.1011
924.085
924.0705
924.0607
924.0574
924.1695
924.1654
924.1618
924.1587
924.1559
924.1533
924.1506
924.1481
924.1456
924.143
924.1403
924.1375
924.1351
924.1333
924.1312
924.1292
924.1281
924.1286
924.1312
924.1366
924.1455
924.1555
924.1588
924.1553
924.1499
924.1431
924.1349
924.1253
924.1139
924.099
924.0816
924.0655
924.0568
924.0553
924.1728
924.1704
924.1662
924.1625
924.1589
924.1557
924.1529
924.1503
924.1481
924.146
924.1442
924.1426
924.1411
924.1391
924.1368
924.1345
924.1331
924.1336
924.1376
924.1462
924.1564
924.1602
924.157
924.1518
924.1452
924.1367
924.1264
924.1142
924.0985
924.0802
924.0636
924.0577
924.183
924.1799
924.1758
924.1719
924.1681
924.1641
924.1603
924.157
924.1542
924.1519
924.15
924.1483
924.1464
924.1442
924.1415
924.1386
924.1363
924.1359
924.1395
924.1481
924.1583
924.1618
924.1587
924.1538
924.1475
924.1391
924.1287
924.1162
924.0997
924.0792
924.0644
924.0595
924.1908
924.1877
924.1845
924.1811
924.1775
924.1738
924.17
924.1662
924.1628
924.1597
924.1568
924.154
924.1511
924.1481
924.1449
924.1414
924.1386
924.1381
924.142
924.1511
924.1608
924.1635
924.1604
924.1562
924.1505
924.1428
924.133
924.121
924.104
924.0819
924.0656
924.0605
924.1954
924.1926
924.1906
924.1878
924.1848
924.1817
924.1782
924.1746
924.1708
924.1671
924.1634
924.1595
924.1556
924.1515
924.1473
924.1432
924.1401
924.1401
924.1452
924.155
924.1638
924.1651
924.1623
924.1589
924.1544
924.148
924.1394
924.1285
924.1115
924.0871
924.0674
924.0609
924.1955
924.1939
924.192
924.1895
924.1868
924.1839
924.1807
924.1771
924.1731
924.1688
924.1641
924.1591
924.1539
924.1488
924.1441
924.1413
924.1426
924.1493
924.1595
924.1666
924.1667
924.1644
924.1619
924.1587
924.1539
924.1471
924.1378
924.1192
924.0958
924.0701
924.1973
924.1956
924.194
924.192
924.1897
924.1872
924.1844
924.1811
924.1772
924.1727
924.1674
924.1615
924.1553
924.1493
924.1445
924.1429
924.146
924.1542
924.1641
924.1689
924.1684
924.1666
924.1649
924.1629
924.1597
924.1545
924.1452
924.1308
924.105
924.0717
924.1961
924.1947
924.1931
924.1912
924.1889
924.1863
924.1832
924.1794
924.1747
924.1691
924.1625
924.1556
924.1494
924.1453
924.1453
924.1504
924.1597
924.1681
924.1708
924.1703
924.1689
924.1679
924.1667
924.1646
924.161
924.1532
924.1415
924.1132
924.1945
924.1932
924.1915
924.1895
924.1869
924.1839
924.1801
924.1753
924.1693
924.1624
924.1553
924.1495
924.1468
924.1488
924.1557
924.1651
924.1708
924.1726
924.1723
924.1714
924.1707
924.1699
924.1684
924.1651
924.1601
924.1487
924.1924
924.191
924.189
924.1867
924.1838
924.1798
924.1748
924.1685
924.1616
924.1548
924.1501
924.1492
924.1532
924.1614
924.1689
924.1731
924.1744
924.1743
924.1738
924.1734
924.1725
924.1708
924.1686
924.1641
924.1899
924.1883
924.1859
924.1827
924.1787
924.1734
924.167
924.1603
924.1545
924.1513
924.1524
924.1583
924.1659
924.1718
924.1751
924.1762
924.1763
924.176
924.1753
924.1745
924.1729
924.1707
924.1865
924.1842
924.1811
924.1766
924.1711
924.1652
924.1592
924.1547
924.1533
924.1565
924.1629
924.1694
924.1742
924.1769
924.1779
924.1781
924.1777
924.177
924.1761
924.1744
924.1818
924.179
924.1745
924.1692
924.1638
924.1588
924.1558
924.1564
924.1608
924.1667
924.1724
924.1763
924.1785
924.1793
924.1795
924.1792
924.1783
924.1777
924.1712
924.1672
924.1627
924.159
924.1579
924.1598
924.1643
924.1698
924.1748
924.1779
924.1797
924.1805
924.1808
924.1808
924.1605
924.1629
924.1673
924.1725
924.177
924.1799
924.1149
924.1135
924.1122
924.1198
924.1274
924.1277
924.1281
924.1288
924.1293
924.1295
924.1127
924.1138
924.1149
924.1148
924.1137
924.1113
924.1161
924.1285
924.1299
924.13
924.1304
924.1307
924.1312
924.132
924.1326
924.1326
924.1132
924.1129
924.1138
924.114
924.113
924.1117
924.1104
924.1108
924.1272
924.1314
924.1316
924.1318
924.1321
924.1327
924.1334
924.134
924.134
924.1343
924.1249
924.1174
924.1134
924.1128
924.1131
924.1126
924.1108
924.1086
924.1068
924.1068
924.1234
924.1319
924.1328
924.1327
924.1329
924.1334
924.1341
924.1349
924.1353
924.1358
924.1364
924.1366
924.1359
924.1238
924.1166
924.1131
924.1121
924.1116
924.1095
924.1064
924.1039
924.1023
924.1026
924.1169
924.1317
924.1334
924.1335
924.1334
924.1337
924.1342
924.135
924.1358
924.1369
924.1377
924.1383
924.1389
924.1466
924.1334
924.1228
924.1158
924.1125
924.111
924.109
924.1052
924.1008
924.0972
924.0957
924.0969
924.1114
924.1309
924.1336
924.1339
924.1336
924.1336
924.1338
924.1345
924.1356
924.137
924.1384
924.1395
924.1403
924.1412
924.1538
924.143
924.1316
924.1215
924.115
924.1117
924.1092
924.1044
924.0976
924.0909
924.0863
924.0845
924.0888
924.1087
924.1299
924.1333
924.1335
924.1332
924.1327
924.1324
924.1327
924.134
924.1361
924.1382
924.1398
924.1409
924.1417
924.1425
924.1578
924.1503
924.1408
924.1298
924.1205
924.1145
924.1111
924.1057
924.0967
924.0866
924.078
924.0727
924.0725
924.0839
924.1121
924.1293
924.1325
924.1326
924.132
924.131
924.1302
924.1301
924.1314
924.1341
924.1372
924.1392
924.1406
924.1414
924.1418
924.1416
924.1548
924.148
924.1386
924.1285
924.1199
924.1144
924.1099
924.0997
924.0864
924.0749
924.0663
924.0615
924.0708
924.094
924.1168
924.129
924.1314
924.1313
924.1305
924.1295
924.1285
924.1284
924.1297
924.1324
924.1357
924.1381
924.1394
924.1401
924.1403
924.14
924.1573
924.1525
924.1459
924.1373
924.1279
924.1199
924.1149
924.107
924.0908
924.076
924.0677
924.0645
924.073
924.0863
924.1048
924.1207
924.1285
924.1302
924.1299
924.1292
924.1285
924.1281
924.1281
924.1292
924.1314
924.134
924.136
924.1373
924.1379
924.1379
924.137
924.1348
924.1591
924.1559
924.1514
924.1449
924.1367
924.1279
924.1207
924.1152
924.1016
924.0807
924.071
924.0749
924.0822
924.0895
924.1007
924.1133
924.1231
924.1276
924.1287
924.1285
924.1281
924.1278
924.1277
924.1282
924.129
924.1303
924.1318
924.1332
924.1342
924.1347
924.1345
924.1336
924.132
924.1286
924.1583
924.1551
924.1506
924.1445
924.1369
924.1287
924.1221
924.1152
924.0938
924.0738
924.0801
924.0891
924.0955
924.1023
924.1103
924.118
924.1233
924.1257
924.1264
924.1264
924.1264
924.1264
924.1266
924.127
924.1276
924.1285
924.1292
924.1299
924.1304
924.1307
924.1306
924.13
924.1281
924.1256
924.1577
924.1547
924.1504
924.1447
924.1377
924.1301
924.1238
924.1151
924.0821
924.0807
924.0898
924.0969
924.1028
924.1083
924.1135
924.1177
924.1204
924.1216
924.1221
924.1224
924.1226
924.1229
924.1233
924.1239
924.1245
924.1252
924.1258
924.1263
924.1265
924.1266
924.1265
924.1259
924.1244
924.1226
924.16
924.1575
924.1547
924.1505
924.1453
924.139
924.132
924.126
924.1176
924.0884
924.0879
924.0962
924.1023
924.1071
924.1112
924.115
924.1184
924.1215
924.1237
924.1251
924.1256
924.125
924.1234
924.1214
924.1198
924.1194
924.1202
924.121
924.1218
924.1222
924.1225
924.1225
924.1221
924.1209
924.1191
924.1159
924.1593
924.1573
924.1546
924.1507
924.1461
924.1405
924.1343
924.1286
924.1213
924.0996
924.0896
924.0994
924.108
924.1147
924.1203
924.1251
924.1298
924.1336
924.1365
924.1385
924.1399
924.1402
924.1391
924.1366
924.1327
924.1281
924.1231
924.1197
924.1186
924.1182
924.118
924.1182
924.1181
924.1172
924.116
924.1135
924.1589
924.1571
924.1546
924.1511
924.1471
924.1423
924.1369
924.1316
924.1255
924.1104
924.0954
924.0919
924.095
924.0996
924.1057
924.1144
924.1238
924.132
924.1375
924.1414
924.1445
924.1466
924.147
924.1451
924.1417
924.1379
924.1339
924.1295
924.1248
924.1208
924.1175
924.1155
924.1145
924.1136
924.1123
924.1108
924.1593
924.1574
924.1549
924.1519
924.1483
924.1442
924.1396
924.1349
924.1298
924.1199
924.1064
924.0963
924.0893
924.078
924.0782
924.092
924.1077
924.1225
924.1323
924.1387
924.1438
924.148
924.1499
924.1481
924.1438
924.1387
924.1335
924.1283
924.1231
924.1183
924.1144
924.1112
924.1096
924.1087
924.1078
924.1072
924.1605
924.1585
924.1562
924.1534
924.1501
924.1465
924.1425
924.1383
924.134
924.1276
924.118
924.1079
924.0986
924.0882
924.0804
924.0813
924.0932
924.111
924.1252
924.134
924.1411
924.1475
924.1515
924.1501
924.1446
924.138
924.131
924.1241
924.1172
924.1097
924.1017
924.0966
924.0954
924.0961
924.0974
924.0993
924.1632
924.1608
924.1585
924.1559
924.1529
924.1495
924.1459
924.1422
924.1384
924.1339
924.1278
924.1206
924.1133
924.1063
924.1018
924.1001
924.1023
924.1097
924.1201
924.1294
924.1376
924.146
924.1524
924.1518
924.1454
924.1373
924.1286
924.1199
924.1112
924.1022
924.0916
924.0809
924.0738
924.0754
924.0796
924.0857
924.1684
924.1654
924.1627
924.1598
924.1568
924.1535
924.1501
924.1466
924.1432
924.1397
924.1357
924.1313
924.1267
924.1228
924.1206
924.1189
924.1183
924.1196
924.1235
924.1289
924.1355
924.1442
924.1527
924.1534
924.1464
924.1373
924.1272
924.1167
924.1063
924.0958
924.0843
924.0728
924.063
924.0585
924.0632
924.0715
924.1763
924.1737
924.17
924.1667
924.163
924.1592
924.1555
924.152
924.1487
924.1455
924.1425
924.1396
924.137
924.1348
924.1334
924.1319
924.1304
924.1293
924.1294
924.1314
924.1358
924.1438
924.153
924.1548
924.1476
924.1381
924.127
924.115
924.1031
924.0914
924.0794
924.0683
924.0604
924.0574
924.0575
924.0631
924.1854
924.1825
924.1789
924.1757
924.1721
924.1681
924.1638
924.1595
924.1556
924.1523
924.1494
924.147
924.145
924.1435
924.142
924.1403
924.1381
924.1359
924.1343
924.1343
924.1374
924.1449
924.1541
924.1562
924.1491
924.1398
924.1284
924.1155
924.1024
924.0898
924.0777
924.0673
924.0611
924.0602
924.0613
924.0619
924.1928
924.1896
924.1868
924.1839
924.1808
924.1773
924.1736
924.1697
924.1658
924.1622
924.1588
924.1559
924.1533
924.1509
924.1486
924.1461
924.1433
924.1403
924.1378
924.1369
924.1397
924.1471
924.1561
924.1576
924.151
924.1424
924.1316
924.1185
924.1049
924.0918
924.0794
924.0687
924.0627
924.0627
924.0651
924.0651
924.1953
924.1931
924.1906
924.1879
924.1849
924.1817
924.1782
924.1747
924.1712
924.1677
924.1643
924.1609
924.1575
924.1541
924.1506
924.1469
924.1433
924.1402
924.1392
924.1424
924.1504
924.1588
924.1592
924.1532
924.1455
924.1355
924.1232
924.1097
924.0964
924.0833
924.0713
924.0638
924.0638
924.0674
924.1983
924.1968
924.1947
924.1924
924.1897
924.1869
924.184
924.1811
924.178
924.1748
924.1712
924.1673
924.1632
924.1588
924.1542
924.1495
924.1451
924.1418
924.1414
924.1458
924.1544
924.1618
924.1609
924.1554
924.1492
924.1412
924.1306
924.1181
924.1048
924.0904
924.0756
924.0644
924.063
924.0678
924.1998
924.1984
924.1968
924.1948
924.1925
924.19
924.1874
924.185
924.1824
924.1795
924.1761
924.1721
924.1675
924.1622
924.1566
924.1511
924.1462
924.1432
924.1442
924.1501
924.159
924.1646
924.1626
924.1579
924.1535
924.148
924.1399
924.1294
924.1169
924.1016
924.0831
924.0655
924.0611
924.0661
924.1992
924.1978
924.1962
924.1941
924.1918
924.1894
924.1871
924.1848
924.1821
924.179
924.175
924.17
924.1642
924.1579
924.1518
924.1469
924.1451
924.1478
924.1551
924.1635
924.167
924.1644
924.1607
924.1579
924.1548
924.1495
924.1416
924.1311
924.1167
924.0953
924.0694
924.0577
924.1977
924.1965
924.1948
924.1927
924.1904
924.1882
924.1858
924.1833
924.1802
924.1762
924.1711
924.1649
924.1582
924.1521
924.1481
924.1479
924.1525
924.1605
924.1674
924.1689
924.1665
924.1637
924.1622
924.1609
924.158
924.1528
924.1452
924.1333
924.1093
924.079
924.1974
924.1963
924.1948
924.1931
924.1909
924.1886
924.1862
924.1835
924.1803
924.1762
924.171
924.1646
924.158
924.1525
924.15
924.1517
924.1577
924.1656
924.1703
924.1708
924.169
924.1671
924.1665
924.1661
924.1646
924.1616
924.1567
924.1457
924.1267
924.0861
924.1952
924.1941
924.1927
924.1909
924.1886
924.1861
924.1832
924.1798
924.1755
924.1701
924.1638
924.1577
924.1534
924.1526
924.1561
924.1632
924.1694
924.1725
924.1729
924.1719
924.1708
924.1706
924.1704
924.1694
924.1676
924.1634
924.1569
924.1389
924.193
924.1919
924.1902
924.1883
924.1856
924.1825
924.1787
924.1741
924.1686
924.1627
924.1575
924.1548
924.1558
924.161
924.1675
924.1723
924.1746
924.1751
924.1748
924.1744
924.1741
924.1737
924.1727
924.1708
924.1681
924.1627
924.1903
924.1891
924.1871
924.1846
924.1813
924.1773
924.1724
924.167
924.1617
924.1578
924.1568
924.1597
924.1652