/*--------------------------------*- C++ -*----------------------------------*\
  =========                 |
  \\      /  F ield         | OpenFOAM: The Open Source CFD Toolbox
   \\    /   O peration     | Website:  https://openfoam.org
    \\  /    A nd           | Version:  6
     \\/     M anipulation  |
\*---------------------------------------------------------------------------*/
FoamFile
{
    version     2.0;
    format      ascii;
    class       volScalarField;
    location    "50";
    object      alphat;
}
// * * * * * * * * * * * * * * * * * * * * * * * * * * * * * * * * * * * * * //

dimensions      [1 -1 -1 0 0 0 0];

internalField   nonuniform List<scalar> 
140018
(
0.6270173
0.9889129
0.9654909
0.5907821
0.6576951
1.085712
1.473929
1.811465
1.774248
1.389927
1.001296
0.5938529
0.5318976
0.9058621
1.367016
1.803979
1.975052
2.057433
2.038777
1.92366
1.741316
1.313467
0.9279379
0.5399513
0.5059542
1.153193
1.590669
1.747492
1.855472
1.986452
2.064144
2.077443
2.028024
1.924795
1.763304
1.569072
1.135458
0.5070154
0.8783974
1.611068
1.835091
1.913411
1.917389
1.90481
1.970268
2.004893
1.98835
1.935141
1.851604
1.739272
1.534228
0.8436437
0.5176483
1.278766
1.828159
2.006533
2.066008
2.069278
2.04276
2.003699
1.978993
1.97185
1.957459
1.935275
1.900545
1.819107
1.306701
0.5551277
0.9088441
1.695737
1.99287
2.126426
2.176758
2.186912
2.1798
2.167659
2.150647
2.126035
2.10805
2.081403
2.022798
1.932973
1.6679
0.9091028
0.4478602
1.237867
1.842054
2.077431
2.180545
2.215546
2.215184
2.19885
2.174101
2.141946
2.106144
2.073096
2.045668
2.016004
1.96149
1.804698
1.273899
0.534794
0.7499616
1.552572
1.933728
2.131639
2.224379
2.2533
2.252521
2.235078
2.203724
2.170001
2.142135
2.121152
2.113984
2.111889
2.079122
1.964329
1.680383
0.9196807
0.7352599
1.550454
1.950685
2.154063
2.253745
2.287547
2.290548
2.276891
2.249343
2.218939
2.195427
2.180437
2.178875
2.179337
2.145388
2.026809
1.733592
0.9416737
0.4878872
1.246283
1.890492
2.134
2.255409
2.303399
2.310487
2.299967
2.28041
2.252748
2.226401
2.212326
2.210374
2.202009
2.150591
1.980084
1.412991
0.5996742
0.9952967
1.790456
2.075809
2.229947
2.299215
2.315023
2.308368
2.293536
2.268773
2.242992
2.225987
2.214095
2.187478
2.098209
1.851447
1.055462
0.6284568
1.487825
1.983718
2.169369
2.26923
2.299591
2.301432
2.292894
2.27282
2.248123
2.222271
2.190869
2.131324
1.973207
1.432469
0.6414847
1.063202
1.844399
2.062434
2.19525
2.249916
2.266827
2.268443
2.255713
2.230592
2.189036
2.126718
2.017204
1.784621
1.021803
0.6349778
1.382443
1.846237
2.026462
2.131553
2.180556
2.200938
2.196553
2.160615
2.087185
1.961158
1.777508
1.309734
0.6099419
0.627535
1.045238
1.488947
1.866636
1.983734
2.043436
2.047649
1.970802
1.827906
1.416856
1.01347
0.6056261
0.6217595
1.035175
1.406718
1.723688
1.730878
1.389825
1.029797
0.6198547
0.553632
0.9141792
0.9280617
0.5709956
0.5698652
0.9916804
1.118125
1.208576
1.289687
1.365225
1.422975
1.433741
1.359464
0.8287034
0.5747686
1.025916
1.470566
1.826295
1.957529
2.068216
2.171222
2.273439
2.37222
2.431578
2.399621
1.953392
1.420164
0.815186
0.6514513
1.502069
2.022697
2.290577
2.503085
2.647783
2.784339
2.86589
2.850672
2.769649
2.710818
2.711086
2.623056
2.420971
1.799075
0.8157706
0.659162
1.569358
2.218773
2.607769
2.942187
3.286337
3.698801
3.600726
3.477583
3.329064
2.920943
3.31302
3.004242
2.840957
2.722846
2.439779
1.761606
0.7770706
0.6170226
1.489697
2.184576
2.680769
3.202508
3.788382
4.04998
4.075523
4.037139
3.868008
3.678161
3.171974
3.20003
3.050281
3.334421
2.997525
2.69979
2.352933
1.637744
0.6985234
0.5592781
1.359274
2.036854
2.588029
3.364082
4.070022
4.13124
4.469323
4.554687
4.306967
4.063635
3.84956
3.534819
3.405034
3.207334
3.25914
3.058712
3.091881
2.594376
2.174098
1.461026
0.6204428
1.003354
1.830562
2.362383
3.059126
3.644956
4.373791
5.121439
5.477569
5.566045
5.218694
4.569011
4.18302
3.889348
3.688063
3.478891
3.411496
3.238162
3.285226
2.926279
2.457806
1.987421
1.073621
0.5279433
1.359695
2.045041
2.646068
3.626194
3.811286
4.799045
5.114884
5.252854
5.304176
5.277204
4.80301
4.473754
4.221927
3.996803
3.768756
3.704817
3.610319
3.39141
3.669001
2.965752
2.50114
1.695932
0.7030723
0.9143929
1.735731
2.247452
3.022349
2.480135
3.389986
4.283943
4.508029
4.677631
4.857199
5.040909
5.169719
4.974206
4.735343
4.580856
4.549662
4.826312
5.209809
5.03411
4.376677
4.207753
3.197848
2.343496
1.151595
1.010945
1.874498
2.413476
3.368565
2.546893
3.550711
3.876202
4.06621
4.251074
4.483153
4.778007
5.115711
5.439804
5.654498
5.749891
5.861179
5.937536
5.683526
4.906651
3.309858
3.866391
2.711046
1.977831
0.9707688
1.068579
1.974798
2.565415
1.959138
2.55146
3.409318
3.638255
3.736901
3.799355
3.862137
3.938413
4.030829
4.130636
4.225953
4.299587
4.334728
4.317479
4.241156
3.978428
3.156036
2.366639
2.604607
1.92033
0.9746453
1.106678
2.062426
2.652621
2.171971
3.062978
3.488708
3.634896
3.667654
3.653467
3.622617
3.584124
3.555016
3.539778
3.555338
3.611137
3.704504
3.799065
3.828638
3.749684
3.558311
3.129164
2.783921
2.060019
1.052772
1.126369
2.147198
2.710489
2.586535
3.346707
3.742924
3.833273
3.801878
3.723722
3.631322
3.534478
3.460224
3.405408
3.389055
3.416137
3.480207
3.547381
3.579774
3.532489
3.350087
3.1051
2.898139
2.165614
1.114447
1.1249
2.163894
2.70253
3.581346
4.059004
4.178647
4.213032
4.097944
3.935063
3.768197
3.609532
3.504032
3.421503
3.373419
3.368856
3.40703
3.468418
3.520903
3.501007
3.385609
3.183453
2.880215
2.216157
1.156379
1.094893
2.10133
2.615397
3.297484
3.784644
4.367142
4.628612
4.521242
4.271741
4.004451
3.75115
3.610953
3.509981
3.441927
3.407674
3.414545
3.458937
3.50884
3.53585
3.503728
3.50541
2.752051
2.174862
1.151583
1.017244
1.972308
2.511882
3.015003
3.351104
4.039845
4.584662
4.795054
4.668844
4.322917
3.92702
3.734902
3.617655
3.537876
3.476996
3.442397
3.441196
3.448268
3.412445
3.303347
3.110741
2.568306
2.024155
1.063922
0.63293
1.563735
2.329007
2.811606
3.5052
3.700423
4.084878
4.509285
4.793188
4.652405
4.116785
3.837814
3.698327
3.621373
3.551525
3.473472
3.422497
3.393477
3.395189
3.465606
2.776767
2.306949
1.562486
0.6393123
1.136038
2.098575
2.613747
3.122672
3.234546
3.503864
3.945112
4.44347
4.67059
4.277219
3.902685
3.721896
3.652183
3.597215
3.467586
3.379267
3.217183
3.122104
2.993067
2.496727
2.017623
1.102277
0.6715861
1.539141
2.258475
2.705946
3.258064
3.276914
3.516421
3.859748
4.196189
4.160193
3.879864
3.648939
3.556904
3.577121
3.414647
3.369063
3.127851
3.145635
2.592708
2.155743
1.475066
0.6414957
0.7173296
1.611156
2.297955
2.671501
3.019922
3.394424
3.390741
3.600967
3.640985
3.583951
3.444385
3.34102
3.462471
3.243346
3.401341
2.956914
2.572854
2.194474
1.533575
0.675828
0.7220977
1.585809
2.192638
2.479447
2.660016
2.864471
3.143666
3.052703
3.100089
3.117572
3.036868
3.315876
2.962797
2.682925
2.436867
2.114039
1.515279
0.6768259
0.6832502
1.449339
1.935573
2.139108
2.292155
2.391962
2.52287
2.651492
2.712678
2.666756
2.531462
2.381292
2.183516
1.940431
1.422558
0.6555663
0.6124741
1.023361
1.397337
1.748668
1.837701
1.894261
1.938594
1.973256
1.981562
1.934052
1.822711
1.446343
1.048749
0.6045364
0.5516995
0.8891994
0.9460479
0.9674442
0.9807072
0.9943458
1.00441
0.9918913
0.9281665
0.5698736
0.7918729
1.347201
1.497836
1.56043
1.576761
1.551402
1.439867
0.8731949
0.7174182
1.321874
1.586609
2.115482
2.715449
2.945169
3.066411
3.122151
3.116211
3.001249
2.427381
1.85687
1.536627
0.8368038
0.769594
1.72008
2.436943
2.858364
3.240495
3.571919
3.843696
4.039417
4.17185
4.234683
4.193027
4.021497
3.657012
3.110772
2.176525
1.01516
0.606575
1.134227
1.761697
2.527977
3.167836
3.085743
3.493776
3.81758
4.069895
4.260647
4.402554
4.482708
4.44843
4.30717
4.071649
4.469606
3.546024
2.501608
1.589424
0.8438191
0.5854387
1.377957
2.059673
2.64977
3.098314
3.802193
3.983057
4.331522
4.575131
4.742868
4.827234
4.84144
4.797009
4.662358
4.49382
4.299805
4.634053
3.928106
3.946734
3.045222
1.998207
0.840251
0.5490642
1.333158
2.041252
2.716429
3.67746
4.443968
5.090393
5.433038
5.66182
5.793538
5.810106
5.701407
5.499353
5.239227
4.937842
4.64849
4.401528
4.610503
4.112592
4.068419
4.007283
3.003967
1.889315
0.751437
0.9895654
1.965444
2.713232
3.88319
4.991281
5.811809
6.430991
6.774796
6.872878
6.815786
6.663528
6.449199
6.114606
5.64049
5.222046
4.826776
4.479589
4.509759
4.174223
4.047923
3.976925
3.766241
2.68704
1.306571
0.6404247
1.620858
2.632503
3.654082
4.759118
5.630301
6.325212
6.847252
7.173417
7.274146
7.077879
6.769806
6.458979
6.104681
5.645185
5.274091
4.869191
4.516709
4.402727
4.127007
3.985129
3.937522
3.810385
3.325416
1.969651
0.7600056
0.5190212
1.409983
2.347869
3.059928
4.089047
5.017963
5.871422
6.609581
7.202251
7.563683
7.779752
7.69223
7.16686
6.547416
6.0037
5.519555
5.159376
4.821733
4.529048
4.318644
4.08095
3.942252
3.94726
3.888281
3.228799
2.933217
1.781588
0.6770235
0.9227747
1.93934
2.906948
3.602884
4.433394
5.270311
6.151783
6.868747
7.40438
7.708994
7.883337
7.947493
7.731928
6.871157
6.176078
5.652181
5.26777
4.953887
4.690401
4.449293
4.26543
4.233958
4.381555
4.396622
3.27436
4.002089
2.844382
1.401286
1.109901
2.270713
2.820994
3.560605
4.440876
5.490597
6.290802
6.747839
7.023159
7.029595
7.086824
7.180376
7.282922
7.025291
6.447078
5.989596
5.634075
5.346428
5.156109
5.016746
4.994337
5.358175
5.701654
5.72552
4.39729
3.012928
3.525453
1.756143
0.517185
1.487569
2.553912
2.981971
3.801556
4.709901
5.853558
5.893318
5.90894
5.968637
5.987264
6.134551
6.391104
6.724027
7.067449
7.053654
6.776176
6.503828
6.378902
6.586178
6.968249
7.286537
7.2067
6.925869
6.168764
4.99584
2.902683
3.543217
2.081671
0.7055019
0.865811
1.861073
2.713944
3.13888
3.95014
4.965186
5.895949
5.160824
5.184788
5.212245
5.294557
5.453629
5.702975
6.061047
6.515894
7.004528
7.412776
7.639202
7.803329
7.912928
7.678604
7.024912
5.789246
5.430277
4.965717
4.294225
2.782476
2.958992
1.981868
0.8931143
0.9517366
1.97087
2.807965
3.24108
4.085322
5.18422
5.180198
4.594016
4.78973
4.875599
4.931396
4.964987
4.980268
5.009193
5.079597
5.193182
5.33484
5.484211
5.608399
5.673562
5.670198
5.5173
4.949937
4.430432
4.4073
3.747553
3.096638
2.55865
1.915174
0.9834313
0.9893225
2.025988
2.865941
3.278619
4.120837
5.136857
5.105379
4.718978
4.816902
4.907693
4.954623
4.94866
4.871992
4.74686
4.628012
4.557804
4.562335
4.649593
4.799615
4.956032
5.032714
4.967806
4.756475
4.37237
3.874344
3.378793
3.016467
2.841678
2.07934
1.050781
1.006676
2.057181
2.902631
3.272567
3.970705
4.873254
5.082037
5.003549
5.151401
5.204993
5.221162
5.184226
5.059408
4.855889
4.644487
4.485028
4.41431
4.438171
4.529468
4.634076
4.689948
4.643892
4.457227
4.176222
3.859592
3.53088
3.209625
2.984665
2.154785
1.07023
1.00403
2.063446
2.915852
3.236496
3.782476
4.523631
5.022075
5.263579
5.545234
5.694507
5.675283
5.597666
5.418477
5.139686
4.848805
4.611589
4.466898
4.424337
4.464672
4.54439
4.610286
4.610446
4.553427
4.380134
4.124101
3.806986
3.422886
3.095184
2.198803
1.070756
0.9483861
2.005143
2.879338
3.151138
3.578326
4.105349
4.6118
5.01739
5.473232
5.918629
6.152916
6.127545
5.911576
5.542428
5.165997
4.855426
4.640852
4.529719
4.511283
4.553405
4.607045
4.65004
4.606343
4.449964
4.210003
3.898246
3.48674
3.124484
2.172365
1.020293
0.5961057
1.652258
2.773711
3.006623
3.351395
3.723937
4.115929
4.524738
4.996399
5.539831
6.091627
6.475391
6.437333
6.003873
5.523345
5.137239
4.858951
4.678911
4.587267
4.560514
4.553985
4.557863
4.469363
4.293581
4.047678
3.731207
3.328628
2.990903
1.785971
0.6324155
1.3023
2.587799
2.869441
3.141917
3.45653
3.728168
3.977854
4.311608
4.828184
5.466212
6.149626
6.627398
6.424962
5.858835
5.388981
5.057211
4.821286
4.658928
4.548347
4.478097
4.407742
4.272658
4.075411
3.821597
3.476107
3.104068
2.669098
1.352131
1.146109
2.323475
3.355726
3.485347
3.696339
3.871004
4.012205
4.13486
4.365601
4.793551
5.439906
6.139896
6.473592
6.095395
5.553603
5.170668
4.894643
4.68289
4.515982
4.394414
4.262463
4.099106
3.901575
3.681121
3.44151
3.29496
2.27597
1.123207
0.6623197
1.711089
2.776745
3.014358
3.226073
3.442053
3.579613
3.674263
3.815511
4.134486
4.68703
5.361395
5.907257
5.993018
5.572056
5.136001
4.814812
4.591006
4.424284
4.278322
4.111255
3.925617
3.679765
3.364598
3.029869
2.69101
1.649306
0.6274515
0.8105433
1.996028
3.159819
3.294681
3.426
3.550219
3.617941
3.680933
3.845912
4.169092
4.626742
5.100427
5.371062
5.296056
4.899814
4.572394
4.366259
4.226804
4.093648
3.915674
3.758886
3.523761
3.269878
3.016392
1.901028
0.7618787
1.287878
2.476416
3.306429
3.361326
3.430758
3.475976
3.497603
3.563393
3.723168
3.981959
4.289725
4.529213
4.625697
4.51071
4.23242
4.031921
3.931789
3.848147
3.619542
3.486239
3.291808
3.100757
2.306385
1.186328
0.700699
1.652452
2.486609
3.192643
3.151368
3.158708
3.158445
3.18804
3.28026
3.43629
3.620279
3.785393
3.908466
3.955362
3.841159
3.656069
3.569562
3.584098
3.24249
3.190957
3.067957
2.345412
1.534894
0.631686
0.7080133
1.608777
2.318903
2.916627
2.808585
2.821425
2.844986
2.903534
2.994807
3.097821
3.200909
3.304067
3.397567
3.398238
3.267499
3.131542
3.317464
2.862352
2.904587
2.254496
1.51947
0.645321
0.6644777
1.189055
1.797237
2.480141
2.941257
2.73747
2.673882
2.667257
2.700783
2.762314
2.840249
2.91565
2.931039
2.842413
2.736987
3.071192
2.513603
1.810435
1.158735
0.6172032
0.7204472
1.509573
1.995751
2.220345
2.393741
2.478334
2.513022
2.529944
2.557623
2.590332
2.579281
2.49051
2.336822
2.094102
1.519469
0.7137046
0.5611448
0.9556696
1.087173
1.387211
1.697799
1.763851
1.790683
1.81048
1.818616
1.769968
1.448455
1.151228
1.014911
0.5758907
0.4906805
0.7963068
0.8542356
0.8753582
0.8842795
0.8782365
0.8253287
0.5090161
0.9023236
1.508085
1.622317
1.630555
1.536959
0.9397754
0.8188028
1.489691
1.826267
2.16651
2.837578
3.537592
3.704874
3.724199
3.610863
2.969572
2.292093
1.932311
1.559231
0.8461232
0.7530905
1.500704
2.349021
3.316354
3.938883
2.868384
3.531826
4.1827
4.371555
4.404626
4.274748
3.741307
3.296446
4.237832
3.54772
2.491891
1.633175
0.817954
0.8240064
1.940535
3.069489
2.731125
3.611123
3.961904
3.361188
4.156369
4.822191
5.093689
5.208546
5.143051
4.720749
4.224091
4.941268
4.233221
3.198257
3.518418
2.228723
0.9692071
0.8427613
1.991372
3.179877
2.990062
2.913203
3.731197
3.953012
3.584214
4.338545
5.046805
5.438821
5.702814
5.799528
5.568672
5.287648
5.845981
5.168986
3.978851
4.184972
3.890421
2.498543
1.07453
0.8026572
1.96634
2.199337
3.064662
3.020487
3.07388
3.839271
4.040988
3.685292
4.368408
5.062486
5.472736
5.77369
6.001613
5.986512
5.97016
6.559286
6.035225
4.970207
4.862507
4.521697
3.236253
2.637345
1.07846
0.7336295
1.842463
2.114645
2.387471
3.267497
3.415799
3.611604
4.42408
4.745113
4.407704
4.813532
5.291367
5.59129
5.823082
6.002307
5.997811
6.039451
6.733766
6.540645
5.726847
5.56533
5.136861
3.814532
3.174632
2.523664
0.9818089
0.6292652
1.63777
2.029135
2.339248
2.774507
3.815757
4.431559
5.02599
5.913741
6.419799
6.357635
6.375142
6.385199
6.303753
6.202414
6.123994
5.980737
5.945822
6.486244
6.533846
5.977688
5.839229
5.449182
4.266747
3.422432
2.839495
2.168402
0.798157
0.5157605
1.421723
2.510745
2.318639
2.817838
3.553998
4.893188
6.26464
7.62704
8.807947
9.494386
9.560336
9.228421
8.661078
7.964149
7.273482
6.686096
6.20649
5.910959
6.102629
6.218217
5.904973
5.791939
5.485016
4.519215
3.673502
2.761467
3.261129
1.794018
0.615276
0.9773633
2.151511
2.6238
2.828657
3.571169
4.763247
6.537631
8.444339
9.931835
10.84871
11.34722
11.47618
11.11624
10.33823
9.319856
8.263605
7.309066
6.540122
5.976614
5.808182
5.803691
5.609676
5.527446
5.361983
4.713525
4.055131
3.219481
3.035554
2.829647
1.264018
0.5214234
1.52197
2.107626
2.804383
3.377946
4.421581
5.942564
7.705484
8.955791
9.665922
10.12536
10.41899
10.59383
10.57904
10.08076
9.232736
8.293087
7.38508
6.608971
5.986312
5.622402
5.461311
5.295
5.25981
5.280783
5.029249
4.611118
4.153349
3.39314
2.384097
2.173348
0.7143039
0.9116533
2.10277
2.354641
3.037056
3.842705
5.110492
6.577094
7.724149
8.614299
9.307506
9.680289
9.826991
9.936031
10.06302
10.05993
9.200265
8.245772
7.414813
6.707297
6.121723
5.692242
5.430245
5.28855
5.39024
5.679595
5.846852
5.5285
5.460487
4.729686
2.862095
3.422492
1.477435
1.104226
2.476265
2.70012
3.351448
4.232029
5.415517
6.507752
7.535043
8.572305
8.985928
8.858806
8.644843
8.625473
8.761988
9.03009
9.097646
8.413347
7.695372
7.08722
6.586649
6.216204
6.018288
6.069638
6.539891
7.191803
7.570773
7.055529
5.901613
5.1727
3.210944
4.057418
1.787291
1.300422
1.995117
2.651205
3.387079
4.245899
5.251624
6.2851
7.612323
8.39268
7.890501
7.4266
7.250874
7.333875
7.608977
8.040935
8.581543
8.792855
8.523917
8.093594
7.781825
7.815953
8.136175
8.674633
9.038038
8.983895
8.31178
7.137364
5.507559
4.770464
3.380416
2.358288
1.831029
0.5495855
1.735891
2.113234
2.712746
3.392854
4.188007
5.15289
6.288655
7.739094
7.493022
6.704462
6.440336
6.409598
6.512295
6.721054
7.065829
7.560308
8.147461
8.698057
9.055686
9.276588
9.441064
9.320719
8.850717
7.921655
7.22784
6.620878
5.861978
4.797912
4.321817
3.523866
2.684848
2.150536
0.6724425
0.910752
2.144362
2.379789
2.886243
3.500254
4.217139
5.145367
6.306989
7.320361
6.640753
6.133652
6.074723
6.11139
6.137326
6.10446
6.053943
6.059691
6.157141
6.339261
6.579535
6.826754
7.01603
7.123355
7.086187
6.665713
6.108987
5.742299
4.922261
4.238656
3.841562
3.345148
2.805632
2.488118
1.056658
0.9888112
2.256127
2.526107
3.011731
3.594575
4.250589
5.091027
6.123352
6.868628
6.501936
6.138291
6.152534
6.253284
6.31217
6.235922
6.030795
5.800983
5.654584
5.645445
5.778633
6.016988
6.279937
6.453809
6.439306
6.19423
5.709483
5.086565
4.439505
3.929896
3.683488
3.396115
2.928029
2.498943
1.068628
1.010718
2.298435
2.583524
3.058385
3.618862
4.240463
4.979251
5.810216
6.432005
6.503847
6.497554
6.503519
6.613307
6.709859
6.647253
6.385634
6.034755
5.751109
5.624625
5.665565
5.827027
6.027172
6.172395
6.181425
6.006756
5.650822
5.230777
4.839344
4.454515
4.052696
3.584521
2.993239
2.435224
1.02695
0.9737864
2.27006
2.573139
3.042859
3.581774
4.170296
4.780539
5.461282
6.038255
6.337687
6.644036
6.927507
7.104211
7.245431
7.224201
6.944244
6.503156
6.093865
5.843559
5.777816
5.858883
6.015482
6.165319
6.232952
6.178165
6.059145
5.835899
5.517121
5.088618
4.535385
3.863697
3.062449
2.356989
0.9618486
0.614316
1.91074
2.313686
2.838816
3.397884
3.976987
4.527471
5.079401
5.562673
5.913901
6.292651
6.807494
7.348411
7.745192
7.85723
7.616909
7.121272
6.602451
6.22844
6.04289
6.01956
6.099898
6.210007
6.273702
6.331594
6.279945
6.111696
5.80899
5.330982
4.65467
3.800702
2.814988
2.00533
0.6036071
1.519024
2.02461
2.509708
3.13055
3.728095
4.262285
4.699444
5.105553
5.416078
5.722995
6.216225
6.909598
7.680105
8.251724
8.233134
7.753176
7.156764
6.677059
6.375456
6.227578
6.183168
6.182185
6.182298
6.197502
6.118618
5.927712
5.594286
5.066697
4.313635
3.346157
2.478519
1.608142
1.354122
2.976998
3.132772
3.538892
3.984504
4.418221
4.777846
5.042225
5.272327
5.44846
5.71022
6.202544
6.967531
7.881731
8.462552
8.236929
7.63349
7.084533
6.701615
6.451641
6.275009
6.125748
6.014273
5.948579
5.80786
5.573834
5.228543
4.759769
4.188144
3.55006
3.055049
1.37004
1.160772
2.627871
3.003374
3.486635
3.969805
4.424264
4.805923
5.072044
5.226282
5.341101
5.418118
5.613814
6.114192
6.955808
7.876491
8.286657
7.908383
7.342122
6.918087
6.623777
6.365416
6.09658
5.883134
5.736113
5.527489
5.21962
4.788149
4.237624
3.608786
2.984407
2.588211
1.125669
0.6757541
1.967376
2.424574
2.888694
3.466219
3.989012
4.419952
4.724197
4.87133
4.90809
4.94046
5.032176
5.344009
5.973315
6.83268
7.590837
7.783203
7.360867
6.910606
6.614376
6.349153
6.023809
5.750861
5.543364
5.290166
4.939115
4.459977
3.845951
3.128301
2.463437
1.867319
0.623243
1.31505
2.806173
3.093014
3.442914
3.887171
4.263978
4.53657
4.673096
4.677214
4.651821
4.653488
4.789007
5.165023
5.798246
6.524643
7.052402
7.043617
6.628699
6.331426
6.137118
5.807153
5.501184
5.255197
4.945851
4.564546
4.112595
3.567244
3.097118
2.599785
1.199787
0.6926021
1.851951
3.180589
3.377833
3.679353
3.958055
4.146818
4.243944
4.231072
4.158837
4.118382
4.177721
4.426298
4.891682
5.486988
6.037384
6.305168
6.108707
5.814164
5.743975
5.435104
5.107169
4.850856
4.447612
3.979453
3.520578
3.061453
2.931865
1.668469
0.608255
0.81912
2.077021
2.41787
2.73186
3.055784
3.295799
3.441723
3.48489
3.447429
3.443094
3.533287
3.76623
4.145209
4.615309
5.079995
5.399207
5.397936
5.15244
5.222487
4.963808
4.608949
4.400471
3.93837
3.342241
2.834277
2.313622
1.840485
0.6943848
0.9021915
2.1963
2.430491
2.631721
2.836288
2.980306
3.044724
3.044966
3.047369
3.136053
3.323307
3.598427
3.926858
4.265437
4.536007
4.604779
4.421995
4.616785
4.474206
4.015353
3.911514
3.493777
2.760526
2.388327
1.994308
0.772472
0.9134557
2.154991
2.300804
2.489212
2.612238
2.725761
2.777548
2.806868
2.870644
2.989366
3.148444
3.336361
3.552416
3.768123
3.868456
3.736638
3.984789
3.936466
3.366587
3.355728
3.101404
2.242636
1.981762
0.8040498
0.8614705
1.934521
2.9068
2.79017
2.766934
2.716484
2.679952
2.666251
2.678818
2.729874
2.830747
2.988216
3.169054
3.226904
3.047876
3.356299
3.333498
2.720154
2.862179
2.813658
1.834265
0.7777927
0.7386496
1.645692
2.409969
2.226596
2.216809
2.262846
2.27526
2.281564
2.327139
2.42618
2.560706
2.67891
2.636723
2.349782
2.800833
2.739654
2.208694
2.465741
1.605727
0.7025337
0.5956973
1.100748
1.621986
2.141412
2.42449
2.016994
1.952994
2.030824
2.13537
2.226921
2.263934
2.08992
1.823652
2.569289
2.284447
1.701881
1.136158
0.5895742
0.5718145
0.966005
1.119588
1.258875
1.620036
1.958485
2.025682
2.034206
1.97995
1.637513
1.291685
1.153303
0.987853
0.5698302
0.5216047
0.8403971
0.8894077
0.8901397
0.8401442
0.5186547
0.8355813
1.523901
1.833271
2.026485
2.111871
2.125479
2.074146
1.905274
1.636406
0.9077761
0.8378355
1.615455
2.093383
2.875793
3.873042
2.879024
3.130025
3.25452
3.267741
3.216977
3.189497
4.112321
3.071381
2.156588
1.633802
0.8531111
1.124436
2.573818
2.379347
3.013992
3.847348
4.648234
4.130831
4.805492
5.002912
5.009458
4.900954
4.603496
5.027461
3.936744
3.029657
2.447925
2.686516
1.159946
0.8127951
1.699657
1.826363
3.031673
3.171519
4.205834
5.117976
5.869354
5.803584
6.452996
6.683051
6.680927
6.543087
6.285974
6.371239
5.354892
4.427699
3.490944
3.527177
2.098786
1.833098
0.8818985
0.8186321
2.133368
2.104043
2.352937
3.608525
4.075768
5.138943
6.034199
6.723376
6.932262
7.595245
7.922533
8.000199
7.893797
7.653255
7.563215
6.702567
5.874585
4.996745
4.836183
3.142713
2.834978
2.449928
0.9552676
0.7709592
2.052541
2.24604
2.395565
2.872818
3.941483
4.481584
5.424097
6.222484
6.817565
7.143198
7.894111
8.432661
8.765156
8.884244
8.782997
8.669951
7.929491
7.177652
6.394812
6.179063
4.667959
3.948744
3.410167
2.535425
0.9500968
0.7087374
1.901399
2.140582
2.382554
2.68015
3.14447
3.966924
4.471504
5.298974
5.97642
6.393612
6.753509
7.54601
8.231528
8.808916
9.207935
9.446031
9.57494
9.027557
8.366009
7.635181
7.364327
6.142392
5.375809
4.328822
3.383474
2.438906
0.8792034
0.6202504
1.712173
1.99273
2.278882
2.616867
2.924681
3.394485
4.179774
4.667649
5.436557
6.021545
6.203288
6.426901
7.042968
7.641405
8.242303
8.825919
9.324717
9.827382
9.639224
9.232412
8.639618
8.325442
7.281988
6.450829
5.275282
3.950026
3.015498
2.168023
0.7492133
1.187324
1.804363
2.154028
2.585958
3.009759
3.462094
4.10606
5.072546
5.78488
6.692104
7.312166
7.43488
7.389229
7.477441
7.605312
7.823233
8.173609
8.592471
9.166366
9.459347
9.423933
9.065073
8.786379
7.856504
6.901371
5.650227
4.295558
3.271371
2.611217
1.466078
0.7406803
1.411068
1.96182
2.486498
3.071154
3.726851
4.477422
5.574738
7.13606
8.61404
9.9767
10.80516
10.93494
10.54207
9.89345
9.164206
8.535547
8.155432
8.051043
8.276273
8.639162
8.843764
8.776856
8.640249
7.904205
6.893784
5.656399
4.403873
3.642257
2.81655
1.799866
0.8605458
0.5403167
1.673448
1.651864
2.270457
2.949048
3.738906
4.735382
6.005389
7.873257
10.26201
12.435
13.90158
14.62225
14.67825
14.02321
12.87508
11.47837
10.0848
8.91353
8.101355
7.727552
7.756295
7.915209
7.970552
7.96859
7.520897
6.670444
5.658235
4.664882
4.036594
3.436105
2.124309
2.054696
0.6186693
0.9923976
1.637889
1.97026
2.658272
3.487863
4.532433
5.871306
7.704867
10.09881
12.21805
13.21268
13.51411
13.64966
13.77163
13.76651
13.12435
11.95865
10.61237
9.30507
8.214838
7.464238
7.122082
7.069433
7.101159
7.191069
7.065286
6.611751
6.038484
5.501938
4.877569
3.930945
2.98454
1.908126
1.321399
1.239628
1.725813
2.303171
3.072111
4.024655
5.290499
6.896086
8.915778
10.74446
11.56273
11.90825
11.96797
11.92861
11.98097
12.19069
12.43225
11.63958
10.44608
9.286075
8.247404
7.423115
6.89224
6.659929
6.645856
6.853021
7.089715
7.202323
7.111906
6.984269
6.465692
5.113953
4.507424
2.609861
1.917294
0.5303687
1.729916
1.993714
2.642737
3.470919
4.49567
5.881086
7.503553
9.110546
10.09589
10.85225
11.0454
10.58996
10.17521
10.08033
10.25629
10.6918
11.12068
10.44885
9.446506
8.534497
7.788851
7.270322
7.039476
7.138976
7.640087
8.34159
8.868265
8.772898
8.038223
7.131207
5.634159
5.084337
3.07018
2.693367
0.7398367
0.9370694
2.315989
2.390155
3.006993
3.835217
4.851721
6.193488
7.553815
8.652769
9.605639
10.47519
9.66917
8.804188
8.44635
8.448868
8.71274
9.209882
9.926588
10.35763
10.13133
9.528997
8.987515
8.825879
9.050856
9.653798
10.25454
10.46592
10.00859
8.956913
7.573274
6.513963
5.428752
4.59845
3.213317
3.37192
1.236434
1.110006
1.772955
2.412153
3.186681
4.047097
5.028569
6.241325
7.328464
8.219478
9.417069
9.528874
8.193894
7.632094
7.499861
7.54654
7.702345
8.007469
8.509905
9.167001
9.836447
10.30804
10.58474
10.80422
10.83007
10.56284
9.885279
9.087543
8.267417
7.387421
6.506911
5.914361
5.34301
4.755702
3.542323
3.423094
1.301108
1.237682
1.715569
2.436859
3.248325
4.106639
5.037363
6.126602
7.050342
7.879355
8.943302
8.570898
7.485298
7.257889
7.291896
7.33077
7.272251
7.154425
7.09592
7.17833
7.412491
7.766662
8.169621
8.523624
8.774637
8.85548
8.534524
7.942989
7.339759
6.368879
5.724264
5.570526
5.300402
4.753932
3.645656
2.841973
1.303476
1.304894
1.74837
2.467196
3.262901
4.077092
4.938938
5.897527
6.752423
7.512518
8.318016
8.235528
7.495645
7.387495
7.54737
7.687689
7.641957
7.39148
7.076913
6.871769
6.868652
7.074365
7.43524
7.845355
8.158498
8.234994
7.998065
7.45786
6.751565
6.081483
5.679814
5.489735
5.278629
4.653947
3.559782
2.368972
1.260433
1.335038
1.783275
2.498339
3.268712
4.019725
4.799793
5.632961
6.456901
7.14072
7.735678
7.893298
7.83552
7.800051
7.987516
8.231076
8.268946
8.000031
7.557242
7.180161
7.021795
7.104556
7.362196
7.681099
7.933386
8.010889
7.860199
7.510675
7.044842
6.604235
6.281957
5.948996
5.481882
4.679139
3.499867
2.170307
1.228305
1.327658
1.787349
2.502597
3.266062
3.965015
4.66478
5.413746
6.193475
6.816033
7.289501
7.523629
7.738097
8.089884
8.474792
8.842922
9.033159
8.831757
8.321013
7.790043
7.461205
7.390312
7.523289
7.757792
7.982645
8.107625
8.085301
7.963927
7.810241
7.575456
7.230366
6.720527
5.97722
4.963414
3.618533
2.16502
1.204485
1.255026
1.744148
2.339083
3.175838
3.88619
4.536077
5.213656
5.902497
6.513528
6.922319
7.134434
7.325878
7.763446
8.450206
9.198546
9.706619
9.712509
9.23331
8.597103
8.108013
7.871241
7.854114
7.969466
8.117651
8.213802
8.217302
8.243462
8.188094
8.019679
7.693266
7.148643
6.307863
5.073227
3.459487
2.185254
1.147543
1.094237
2.736694
2.923305
3.516745
4.074155
4.601443
5.167709
5.77043
6.345341
6.726624
6.895127
6.981505
7.248109
7.854137
8.770182
9.775065
10.31284
10.04965
9.405249
8.804252
8.422873
8.249841
8.209754
8.214282
8.179889
8.093798
8.046313
7.918095
7.679398
7.300633
6.749533
5.985157
4.967633
3.736708
2.713589
1.006096
0.6300742
2.121709
2.648176
3.409754
4.067659
4.615567
5.145922
5.698906
6.230061
6.676217
6.903177
6.965557
7.021152
7.285154
7.923287
8.959986
10.06481
10.45658
10.0037
9.380052
8.914127
8.630549
8.456624
8.32059
8.149531
7.910007
7.716546
7.450587
7.067849
6.549264
5.873608
5.01172
3.970101
2.854179
2.09178
0.5799184
1.60058
2.245191
3.125595
3.927587
4.559651
5.103593
5.633871
6.143131
6.568352
6.887935
6.987886
6.932333
6.900447
7.137869
7.842558
8.95363
9.968284
10.15838
9.680444
9.202317
8.87854
8.633866
8.411533
8.16165
7.827254
7.51568
7.15377
6.66185
6.028713
5.244691
4.297407
3.234998
2.219156
1.542335
1.299549
1.902664
2.601176
3.528079
4.294281
4.910381
5.448293
5.932568
6.326138
6.575147
6.68492
6.597408
6.446276
6.443793
6.812319
7.644327
8.725028
9.528255
9.565858
9.180021
8.870426
8.612757
8.349958
8.063598
7.696963
7.316906
6.900737
6.335711
5.616234
4.750169
3.759163
2.712841
1.904859
1.183404
0.7074264
2.194381
2.647707
3.37201
4.083755
4.687834
5.191708
5.60955
5.910638
6.07703
6.128943
6.044159
5.876892
5.778219
5.93398
6.480649
7.371159
8.311071
8.856441
8.80352
8.569245
8.339334
8.059875
7.748879
7.366247
6.950095
6.498707
5.877492
5.089579
4.174469
3.243657
2.436759
2.00623
0.6159097
0.9961423
1.699581
2.338541
3.168402
3.920682
4.505012
4.916374
5.191424
5.330299
5.330802
5.263469
5.127448
5.031401
5.118668
5.504974
6.198579
7.049772
7.757396
8.043255
8.016184
7.859035
7.572774
7.225063
6.826876
6.380447
5.901927
5.230407
4.380495
3.40293
2.465112
1.773198
0.8640928
1.610633
2.157104
2.701707
3.390449
3.965191
4.36443
4.60537
4.713964
4.694103
4.599465
4.46763
4.375266
4.435742
4.729851
5.270286
5.977656
6.659818
7.077786
7.243587
7.228875
6.959914
6.553738
6.169154
5.661587
5.173488
4.480168
3.642924
2.71274
1.95982
1.315247
0.7974217
2.152756
2.459435
2.826307
3.300413
3.689998
3.950614
4.086358
4.098327
4.006015
3.904744
3.839013
3.893676
4.125637
4.547925
5.115466
5.699965
6.117693
6.363642
6.454598
6.258404
5.838861
5.503121
4.834667
4.342926
3.658382
2.912252
2.228972
1.777227
0.6295586
0.8508961
2.212646
2.466116
2.76743
3.147375
3.423218
3.583212
3.620823
3.554345
3.440942
3.385578
3.432155
3.620827
3.959039
4.407544
4.869609
5.208852
5.454622
5.61025
5.533184
5.144991
4.806612
3.936522
3.441491
2.841361
2.318417
1.87728
0.6788461
0.8483
2.164219
2.314285
2.509272
2.768655
2.957831
3.052887
3.052418
2.997621
2.952346
3.009937
3.183334
3.463137
3.801493
4.124068