/*--------------------------------*- C++ -*----------------------------------*\
  =========                 |
  \\      /  F ield         | OpenFOAM: The Open Source CFD Toolbox
   \\    /   O peration     | Website:  https://openfoam.org
    \\  /    A nd           | Version:  6
     \\/     M anipulation  |
\*---------------------------------------------------------------------------*/
FoamFile
{
    version     2.0;
    format      ascii;
    class       volScalarField;
    location    "50";
    object      alphat;
}
// * * * * * * * * * * * * * * * * * * * * * * * * * * * * * * * * * * * * * //

dimensions      [1 -1 -1 0 0 0 0];

internalField   nonuniform List<scalar> 
140018
(
0.6303242
0.9947521
0.9716979
0.5951348
0.6550434
1.084249
1.47721
1.817766
1.7823
1.398431
1.007996
0.5985978
0.5198354
0.8914345
1.347184
1.784799
1.965917
2.05563
2.042514
1.93202
1.751923
1.323558
0.9341938
0.5430476
0.5016917
1.14712
1.584196
1.73784
1.838918
1.972812
2.057149
2.077515
2.034505
1.935214
1.77451
1.576481
1.136649
0.5052552
0.8787537
1.613332
1.838948
1.918238
1.922313
1.89688
1.963941
2.002991
1.991017
1.939143
1.853697
1.735919
1.522226
0.8339132
0.5217459
1.284053
1.834983
2.01403
2.073114
2.074993
2.04614
2.003971
1.972317
1.96147
1.944405
1.917416
1.875534
1.778274
1.281823
0.5467085
0.9122619
1.701497
1.999092
2.131739
2.180024
2.187187
2.176408
2.160407
2.139715
2.111718
2.090394
2.064257
2.011674
1.922614
1.662411
0.9033028
0.4489685
1.242987
1.850435
2.086362
2.188932
2.222588
2.220316
2.201749
2.174702
2.14052
2.10318
2.068866
2.039958
2.008886
1.952103
1.794515
1.266016
0.5318489
0.7525621
1.560969
1.944165
2.141788
2.233989
2.262005
2.259982
2.241163
2.208287
2.172909
2.143237
2.120169
2.110567
2.106137
2.071963
1.957416
1.675367
0.9184584
0.7401714
1.561219
1.960523
2.162542
2.261408
2.294538
2.296445
2.281681
2.253003
2.221347
2.196407
2.17973
2.17631
2.175146
2.14038
2.022213
1.73071
0.9408042
0.5080544
1.269552
1.899731
2.141096
2.260745
2.308464
2.314658
2.303295
2.283018
2.254526
2.22712
2.211704
2.208249
2.198562
2.146435
1.976184
1.410638
0.598929
1.014283
1.801013
2.083889
2.233393
2.302536
2.317699
2.310353
2.29512
2.269966
2.243538
2.225558
2.212445
2.184651
2.094608
1.847877
1.053459
0.632447
1.495469
1.998194
2.172418
2.270756
2.300922
2.302129
2.293309
2.273278
2.248403
2.222042
2.189793
2.129314
1.97049
1.430015
0.6403333
1.06839
1.856169
2.069022
2.195156
2.249941
2.266389
2.267488
2.255172
2.230294
2.188748
2.126039
2.015981
1.782947
1.020558
0.6371428
1.384886
1.850505
2.026982
2.130504
2.179266
2.198488
2.194824
2.15937
2.08641
1.960408
1.776607
1.308754
0.6093153
0.6288206
1.046048
1.488075
1.864959
1.982069
2.039581
2.044838
1.968514
1.826445
1.415813
1.012769
0.6050261
0.6221611
1.03297
1.405409
1.719435
1.727608
1.387296
1.028435
0.6189003
0.5523659
0.9103079
0.925403
0.5694329
0.5741578
1.001962
1.131539
1.224897
1.30775
1.382938
1.438086
1.445052
1.367026
0.8325288
0.576833
1.031162
1.478567
1.837054
1.972088
2.090624
2.202292
2.311152
2.411066
2.465296
2.425106
1.968884
1.428908
0.8193487
0.6518975
1.505019
2.026606
2.295742
2.509517
2.656645
2.7973
2.885572
2.879171
2.806262
2.750809
2.748849
2.654859
2.444947
1.813197
0.8222605
0.6547008
1.560216
2.207926
2.601211
2.942309
3.293275
3.712789
3.620459
3.501478
3.349062
2.973563
3.350153
3.042749
2.878069
2.755196
2.464917
1.778704
0.7849195
0.6104428
1.474487
2.166621
2.664389
3.192488
3.785826
4.0782
4.11718
4.08088
3.906472
3.698928
3.206274
3.227248
3.079856
3.370645
3.03106
2.728139
2.3766
1.65413
0.7057583
0.5539128
1.344712
2.021134
2.570446
3.347259
4.026019
4.114592
4.504627
4.625187
4.377322
4.113653
3.880739
3.551398
3.411746
3.210402
3.269428
3.078392
3.116478
2.614295
2.189358
1.470357
0.6234858
0.9942913
1.814176
2.347202
3.03662
3.494047
4.241646
5.03955
5.424113
5.56908
5.29959
4.614674
4.199045
3.885847
3.672137
3.461535
3.396203
3.233852
3.270679
2.925435
2.451385
1.974818
1.064082
0.5233534
1.345211
2.027541
2.63122
3.592033
3.63185
4.640727
4.965988
5.126359
5.219333
5.265443
4.865922
4.485591
4.208756
3.972356
3.742332
3.663002
3.548222
3.299881
3.57554
2.881209
2.423637
1.646563
0.685203
0.9076011
1.720183
2.231353
3.000441
2.340344
3.259318
4.157796
4.395212
4.573505
4.764674
4.969658
5.142533
4.980603
4.71587
4.532129
4.462429
4.654305
4.923276
4.845813
4.386689
4.164382
3.189625
2.358382
1.165647
1.0051
1.859904
2.400423
3.323476
2.459307
3.479936
3.809891
3.993092
4.163032
4.376365
4.654075
4.983097
5.312708
5.548808
5.641826
5.747492
5.865858
5.741386
5.023536
3.403361
3.919543
2.747664
2.003001
0.9832216
1.063684
1.963685
2.544526
1.896992
2.528627
3.398838
3.626888
3.717911
3.769152
3.819145
3.883836
3.968892
4.067554
4.169117
4.257991
4.314797
4.332523
4.268454
3.999027
3.190372
2.402837
2.616659
1.92645
0.9748629
1.102008
2.058907
2.644412
2.183183
3.099495
3.52828
3.667147
3.689601
3.664639
3.623229
3.576
3.541368
3.522911
3.536496
3.590873
3.68456
3.784002
3.824151
3.756575
3.574622
3.143972
2.786562
2.063052
1.054255
1.121283
2.145619
2.718073
2.684217
3.441223
3.833545
3.905709
3.856275
3.761492
3.65378
3.544361
3.462103
3.401696
3.380864
3.404439
3.466775
3.534912
3.570945
3.52933
3.351067
3.107968
2.899863
2.167383
1.11536
1.119552
2.159936
2.716722
3.592495
4.219678
4.307214
4.324795
4.188392
4.00178
3.811472
3.633091
3.516182
3.42661
3.373009
3.363648
3.398096
3.457607
3.510439
3.493133
3.38114
3.182003
2.880066
2.217081
1.157317
1.089883
2.095354
2.625512
3.316282
3.781722
4.390749
4.704841
4.633249
4.368671
4.071631
3.787673
3.630007
3.520383
3.446664
3.407542
3.410025
3.451207
3.499409
3.526713
3.496328
3.501282
2.749749
2.173928
1.151569
1.013169
1.965882
2.513146
3.034172
3.329642
3.963306
4.55942
4.836001
4.769227
4.414432
3.978821
3.758934
3.630232
3.545014
3.480265
3.44166
3.43726
3.441556
3.405635
3.297756
3.10601
2.564736
2.021747
1.062942
0.6312205
1.558987
2.32588
2.817419
3.521571
3.693324
4.053196
4.482735
4.812622
4.740607
4.187351
3.867053
3.710656
3.627995
3.556061
3.47485
3.420496
3.388565
3.389296
3.460936
2.772656
2.303284
1.559895
0.6383032
1.132936
2.095047
2.613917
3.128698
3.232336
3.479279
3.901348
4.413264
4.689593
4.353519
3.939437
3.732968
3.655424
3.600737
3.467955
3.379129
3.214634
3.11904
2.989617
2.493373
2.014531
1.100362
0.6702921
1.53642
2.256476
2.707213
3.26376
3.274177
3.498218
3.835156
4.183079
4.194925
3.918258
3.659654
3.555097
3.576355
3.411789
3.36759
3.124131
3.141835
2.589199
2.152393
1.47252
0.6402707
0.7166846
1.610519
2.299239
2.676245
3.028616
3.40647
3.391724
3.590506
3.646424
3.594739
3.449154
3.33375
3.458178
3.23692
3.396114
2.952523
2.568546
2.190395
1.530295
0.674209
0.7219975
1.586414
2.195183
2.484644
2.667615
2.872569
3.148203
3.051767
3.090676
3.109776
3.027554
3.306327
2.955568
2.677304
2.432239
2.109534
1.511973
0.6752072
0.6834067
1.45021
1.938095
2.143036
2.296674
2.394385
2.520036
2.641724
2.698732
2.653626
2.521894
2.373624
2.177463
1.936202
1.418967
0.6540834
0.6131634
1.024998
1.39916
1.750991
1.838988
1.892564
1.932711
1.963855
1.971033
1.925008
1.815337
1.441113
1.04619
0.6029842
0.5526111
0.8905083
0.9466504
0.9665972
0.9780145
0.9899782
0.9991211
0.9868224
0.9239449
0.5675663
0.7941089
1.3505
1.500977
1.563098
1.578947
1.55325
1.441502
0.8742313
0.7209684
1.328557
1.594907
2.126078
2.728429
2.957465
3.076795
3.1302
3.122074
3.005401
2.429528
1.857747
1.537143
0.8375422
0.7743824
1.731804
2.455923
2.88285
3.269256
3.603688
3.875107
4.067129
4.193919
4.250616
4.203669
4.027391
3.660064
3.112127
2.177659
1.01605
0.6092453
1.139217
1.770731
2.545823
3.196262
3.115514
3.525323
3.850576
4.104026
4.293991
4.433155
4.50922
4.470029
4.323321
4.084055
4.474288
3.54916
2.504403
1.591331
0.8455248
0.5864808
1.381153
2.06354
2.657793
3.139768
3.857592
4.028943
4.378522
4.624023
4.786818
4.863598
4.871835
4.825124
4.691856
4.525359
4.328844
4.657581
3.94093
3.955101
3.052396
2.004292
0.8440427
0.5487741
1.331628
2.039127
2.716794
3.741656
4.534769
5.185525
5.52433
5.750545
5.878316
5.889535
5.769977
5.553051
5.28181
4.976265
4.689804
4.443346
4.655614
4.143187
4.095191
4.023823
3.018982
1.901908
0.7591291
0.9862307
1.958157
2.70627
3.948661
5.089666
5.916042
6.543135
6.895151
6.995571
6.933583
6.773373
6.547461
6.202459
5.709692
5.274048
4.875353
4.532503
4.568412
4.223016
4.088525
4.012284
3.794957
2.713981
1.32559
0.6384023
1.611966
2.619228
3.697021
4.832864
5.700783
6.396768
6.927
7.272248
7.404054
7.221406
6.90556
6.579956
6.214987
5.735569
5.34113
4.920672
4.569422
4.46398
4.186093
4.033521
3.971849
3.831798
3.355842
1.989783
0.7658352
0.5170031
1.403539
2.335338
3.070123
4.137717
5.058252
5.905087
6.625379
7.206642
7.575629
7.835139
7.82714
7.325188
6.686762
6.119022
5.607647
5.218906
4.85716
4.559292
4.357128
4.123065
3.965889
3.936473
3.861957
3.223267
2.901685
1.753879
0.6656082
0.9181737
1.929291
2.891172
3.613987
4.448417
5.291475
6.146029
6.795754
7.289894
7.588155
7.787465
7.919438
7.82612
6.985873
6.256854
5.707488
5.295645
4.956647
4.681247
4.439418
4.242948
4.164136
4.249559
4.242409
3.168461
3.884818
2.763828
1.36642
1.103515
2.257167
2.810166
3.582566
4.45584
5.507239
6.214854
6.563979
6.806189
6.823428
6.908899
7.052308
7.24326
7.118496
6.504641
6.010638
5.624613
5.313556
5.100334
4.922845
4.832248
5.087735
5.366915
5.430407
4.253037
3.004306
3.492489
1.748987
0.5154187
1.4806
2.540687
2.967773
3.79217
4.709573
5.845882
5.666597
5.68903
5.791334
5.832365
5.988267
6.253205
6.606717
6.991798
7.042894
6.759022
6.449823
6.273045
6.375561
6.591319
6.888777
6.967934
6.861985
6.245135
5.117409
2.987176
3.622456
2.123553
0.7242412
0.8626661
1.853383
2.70144
3.122581
3.93242
4.961763
5.79642
4.970028
5.07328
5.127027
5.208924
5.350102
5.572894
5.90595
6.346446
6.837057
7.262953
7.503401
7.665508
7.819885
7.722128
7.163874
5.94875
5.569062
5.081248
4.389084
2.839537
3.024617
2.010644
0.8986477
0.948425
1.963062
2.795314
3.219894
4.060074
5.149215
5.054434
4.522171
4.770182
4.867305
4.921941
4.946124
4.944522
4.95402
5.010102
5.119214
5.267418
5.433247
5.582122
5.689396
5.705032
5.554027
5.000827
4.497462
4.501074
3.825291
3.162641
2.546527
1.88805
0.9744465
0.9861044
2.018295
2.853182
3.253143
4.077317
5.06815
5.057772
4.751687
4.865548
4.951664
4.99245
4.979373
4.892363
4.753472
4.621836
4.542564
4.541173
4.624571
4.774184
4.937866
5.030648
4.985979
4.794275
4.422141
3.929443
3.412611
3.029186
2.840037
2.078375
1.048573
1.003517
2.049509
2.889695
3.246368
3.917232
4.797445
5.060886
5.083107
5.256357
5.295424
5.296061
5.246308
5.107818
4.888173
4.660893
4.488731
4.408544
4.425679
4.513718
4.619812
4.682014
4.645366
4.468028
4.189238
3.873361
3.540711
3.214156
2.987856
2.157148
1.07191
1.000938
2.055824
2.902933
3.212043
3.73562
4.446845
4.972975
5.304022
5.632508
5.80654
5.783693
5.692472
5.494988
5.19455
4.883427
4.630066
4.473254
4.421369
4.455067
4.531449
4.597415
4.599546
4.546368
4.377703
4.124915
3.8096
3.426648
3.101647
2.204087
1.073479
0.9456134
1.998056
2.867168
3.129862
3.540652
4.036437
4.54553
4.980742
5.460483
5.937813
6.230009
6.236908
6.013643
5.618422
5.215391
4.884828
4.656418
4.534835
4.508039
4.543902
4.593821
4.634467
4.592376
4.438831
4.201928
3.893488
3.486046
3.128958
2.176962
1.022907
0.5946286
1.646853
2.762864
2.988905
3.323153
3.678418
4.048206
4.446358
4.911887
5.46246
6.049806
6.507136
6.537718
6.097739
5.584965
5.173587
4.879973
4.68964
4.58975
4.555681
4.542494
4.54387
4.455109
4.2805
4.036833
3.723286
3.32452
2.991067
1.787133
0.6330114
1.298123
2.578443
2.856811
3.124365
3.432566
3.695836
3.929348
4.239114
4.734999
5.368477
6.078542
6.633754
6.513364
5.931164
5.429503
5.079592
4.833769
4.664832
4.54845
4.471087
4.397799
4.261621
4.064591
3.812263
3.469281
3.099116
2.664966
1.350118
1.142881
2.316207
3.344384
3.472854
3.685495
3.864427
4.005997
4.119247
4.323385
4.721506
5.348895
6.069918
6.481875
6.165287
5.598455
5.19162
4.904408
4.687528
4.51594
4.389192
4.254825
4.090117
3.891837
3.671081
3.432155
3.288879
2.271586
1.120856
0.6608687
1.706682
2.768981
3.003961
3.214571
3.432401
3.576615
3.675315
3.803646
4.095934
4.618235
5.283353
5.859584
6.009229
5.617394
5.15598
4.819565
4.589162
4.419418
4.271115
4.102427
3.916861
3.671408
3.357193
3.023
2.685125
1.645641
0.6260178
0.8089399
1.991869
3.153486
3.289566
3.423895
3.552983
3.624036
3.682264
3.830455
4.131178
4.573031
5.051223
5.346728
5.311981
4.918253
4.571928
4.357678
4.21616
4.083216
3.903084
3.747275
3.512775
3.259506
3.007315
1.89515
0.7595637
1.285838
2.472793
3.302265
3.35796
3.430016
3.476158
3.495409
3.552183
3.699221
3.947093
4.253308
4.501381
4.610123
4.51142
4.228962
4.019024
3.91614
3.836787
3.604856
3.474293
3.281185
3.09111
2.298711
1.181994
0.7001101
1.651049
2.484418
3.19039
3.148956
3.156378
3.154924
3.179674
3.264151
3.413191
3.594709
3.760735
3.884546
3.935399
3.830509
3.641494
3.551098
3.573947
3.227804
3.180542
3.059601
2.33833
1.530006
0.629701
0.7078768
1.608894
2.319628
2.918124
2.809987
2.823044
2.842751
2.895691
2.982098
3.082074
3.182415
3.28152
3.371875
3.377876
3.252686
3.112618
3.308222
2.850707
2.896537
2.248796
1.515062
0.6435401
0.6649114
1.190138
1.79962
2.483894
2.945852
2.739184
2.673135
2.663117
2.692135
2.74872
2.822411
2.895499
2.912307
2.827237
2.720731
3.060255
2.505934
1.805074
1.156082
0.6157751
0.7215927
1.512133
1.999041
2.223662
2.396198
2.478901
2.510533
2.523598
2.54752
2.577623
2.566023
2.478127
2.32502
2.085554
1.515079
0.7118835
0.5622796
0.957663
1.089258
1.388703
1.698152
1.762283
1.7868
1.804335
1.810837
1.761782
1.44172
1.145501
1.010561
0.5743255
0.4914842
0.7969122
0.853901
0.873918
0.8818261
0.8750736
0.8220302
0.5070447
0.9030026
1.509217
1.623734
1.632336
1.539094
0.941415
0.8194552
1.490909
1.827802
2.168296
2.839981
3.540476
3.707841
3.727509
3.614712
2.973221
2.29473
1.934895
1.561568
0.8478923
0.7543844
1.503496
2.353176
3.322064
3.945125
2.876328
3.540359
4.190706
4.377577
4.408535
4.276963
3.743091
3.298104
4.240881
3.550382
2.494549
1.634663
0.8187738
0.8267606
1.946773
3.079581
2.744979
3.628748
3.983113
3.382831
4.182624
4.847609
5.114337
5.222243
5.149163
4.722246
4.224147
4.936083
4.227932
3.196208
3.51965
2.229436
0.9698309
0.846506
2.000335
3.194743
3.00795
2.936887
3.761468
3.989379
3.627392
4.38887
5.099035
5.488037
5.743707
5.827264
5.584093
5.293581
5.836485
5.158203
3.971608
4.182402
3.890777
2.499809
1.075863
0.8058857
1.974766
2.211888
3.07739
3.035627
3.100693
3.869229
4.071088
3.726836
4.420879
5.12027
5.530557
5.834703
6.06298
6.039126
6.005243
6.569773
6.032107
4.96432
4.86151
4.522551
3.240403
2.641881
1.081436
0.7354206
1.847254
2.118229
2.39782
3.275593
3.423959
3.634283
4.454192
4.770861
4.433955
4.853994
5.343464
5.648841
5.884586
6.070478
6.065928
6.106694
6.788177
6.572422
5.744476
5.581949
5.152576
3.830599
3.189461
2.532895
0.986397
0.6299257
1.638386
2.028176
2.333211
2.782709
3.830995
4.452994
5.070266
5.979864
6.485576
6.410763
6.425501
6.437076
6.356187
6.256186
6.183428
6.04858
6.0198
6.568244
6.595503
6.034132
5.89093
5.494459
4.308155
3.451487
2.852711
2.178987
0.8026864
0.5155246
1.420127
2.505479
2.302813
2.801434
3.554136
4.936283
6.342425
7.736142
8.93968
9.633066
9.690509
9.343393
8.759454
8.045076
7.339573
6.744378
6.265904
5.980555
6.18978
6.303952
5.985867
5.867985
5.546455
4.567755
3.700825
2.760612
3.269701
1.796779
0.6146893
0.9746746
2.144289
2.61142
2.796744
3.55263
4.771432
6.591619
8.518274
9.994353
10.9042
11.41981
11.58871
11.26056
10.48904
9.458232
8.377744
7.397342
6.609366
6.042147
5.887426
5.892306
5.698674
5.60906
5.421922
4.744392
4.044565
3.183764
3.051039
2.805265
1.250364
0.5202896
1.514282
2.097799
2.791121
3.347912
4.405527
5.950048
7.72394
8.955222
9.648939
10.10184
10.40782
10.63357
10.71138
10.27126
9.417557
8.450475
7.50612
6.69351
6.046018
5.680412
5.527116
5.362105
5.306588
5.282121
4.976503
4.514207
4.025479
3.338338
2.368674
2.139323
0.7043583
0.9090129
2.092086
2.33536
3.014889
3.817042
5.091503
6.56701
7.716305
8.601459
9.248579
9.565562
9.683511
9.812856
10.01801
10.16671
9.379698
8.387722
7.521822
6.774326
6.153061
5.706813
5.438516
5.27732
5.321091
5.526461
5.615201
5.28149
5.225893
4.561842
2.791523
3.37638
1.468384
1.100163
2.463836
2.673671
3.318759
4.203103
5.385387
6.487331
7.532801
8.5241
8.810833
8.615067
8.403159
8.412677
8.601829
8.967731
9.205232
8.535353
7.768882
7.113337
6.57303
6.169376
5.922033
5.886899
6.221304
6.762461
7.144168
6.758805
5.766233
5.123461
3.197909
4.071757
1.804225
1.295061
1.988306
2.637231
3.363495
4.228786
5.232409
6.269107
7.613147
8.213659
7.640147
7.222469
7.074421
7.165886
7.445053
7.893433
8.473182
8.771681
8.521917
8.056568
7.678005
7.594168
7.730965
8.175721
8.611557
8.776968
8.330098
7.276553
5.647545
4.885289
3.439417
2.317006
1.854295
0.5484984
1.729694
2.1025
2.696007
3.367936
4.165632
5.124052
6.265188
7.687363
7.279947
6.567434
6.35024
6.328215
6.414839
6.592721
6.904933
7.377608
7.961732
8.52919
8.904705
9.120736
9.315446
9.306836
8.947114
8.092246
7.411771
6.791974
6.013988
4.91148
4.430375
3.618167
2.626461
2.168712
0.6733601
0.9087494
2.137685
2.366104
2.865047
3.469281
4.18117
5.100206
6.252696
7.198568
6.540059
6.109458
6.07296
6.11609
6.137982
6.089067
6.013659
5.996644
6.082576
6.266345
6.519371
6.789761
7.023628
7.156747
7.132416
6.736401
6.212371
5.889462
5.055074
4.313773
3.884576
3.366225
2.764169
2.493065
1.062084
0.9866548
2.249636
2.513722
2.991528
3.563883
4.20819
5.036092
6.042641
6.766657
6.510335
6.193017
6.203266
6.301539
6.358405
6.276576
6.057654
5.809084
5.646215
5.625213
5.750307
5.985903
6.256686
6.451023
6.465972
6.252156
5.789737
5.170551
4.50234
3.939093
3.672572
3.386442
2.919526
2.509009
1.076596
1.008619
2.292175
2.572688
3.040541
3.591042
4.199881
4.922462
5.726798
6.348134
6.510562
6.591648
6.599749
6.694969
6.78334
6.714715
6.441484
6.071591
5.767886
5.625266
5.654694
5.810169
6.011693
6.16634
6.190894
6.032611
5.687776
5.260391
4.859463
4.462161
4.052817
3.586024
2.998427
2.445996
1.032924
0.9718788
2.264146
2.563169
3.026258
3.555617
4.131831
4.724339
5.38555
5.957117
6.309035
6.670427
7.002007
7.204039
7.339562
7.314404
7.02427
6.564278
6.131914
5.861612
5.780591
5.85104
6.002345
6.152536
6.225272
6.174658
6.062399
5.843455
5.52599
5.096689
4.542356
3.870871
3.070873
2.365009
0.9651749
0.6132726
1.906098
2.305299
2.824033
3.373904
3.94185
4.482241
5.021132
5.494213
5.855969
6.246468
6.777739
7.364807
7.812725
7.95016
7.709839
7.198289
6.655776
6.259961
6.057567
6.021141
6.091652
6.195331
6.254861
6.313279
6.265058
6.100644
5.801799
5.327473
4.654215
3.802287
2.818286
2.011886
0.6052568
1.515347
2.017141
2.496974
3.108926
3.696219
4.223578
4.656302
5.054894
5.362097
5.657299
6.133971
6.829417
7.636798
8.278999
8.31401
7.833462
7.216709
6.715291
6.397625
6.237494
6.18249
6.172705
6.162021
6.175285
6.096492
5.907275
5.577281
5.055235
4.30934
3.348411
2.480941
1.610865
1.351188
2.969042
3.119198
3.51704
3.953667
4.382137
4.744557
5.010545
5.244959
5.423091
5.662751
6.120741
6.865315
7.798694
8.461183
8.2992
7.690356
7.121539
6.723755
6.464583
6.279864
6.122163
5.998684
5.929235
5.786588
5.551799
5.20659
4.7392
4.170839
3.538544
3.052113
1.369058
1.158584
2.621518
2.991938
3.467507
3.942081
4.390476
4.774245
5.051864
5.21404
5.330311
5.404593
5.572223
6.027777
6.838529
7.777378
8.273158
7.948558
7.37211
6.932669
6.631289
6.368994
6.094112
5.872024
5.718026
5.507896
5.200057
4.769511
4.220675
3.594294
2.973559
2.582839
1.123394
0.6747524
1.96335
2.416456
2.875701
3.446062
3.962768
4.392654
4.703827
4.863122
4.905952
4.941017
5.015541
5.28858
5.872943
6.711431
7.496569
7.766736
7.379003
6.915302
6.610409
6.3448
6.014976
5.734911
5.520224
5.265394
4.915231
4.43945
3.830572
3.118982
2.456555
1.862648
0.6218794
1.312792
2.800746
3.084507
3.431131
3.871571
4.246915
4.521153
4.665843
4.679301
4.652912
4.645109
4.754661
5.092771
5.693236
6.413863
6.974293
7.028595
6.625967
6.316168
6.122786
5.789917
5.478076
5.227134
4.915183
4.533504
4.085017
3.546027
3.083569
2.590589
1.195822
0.6918353
1.849317
3.175674
3.370439
3.66982
3.944692
4.133389
4.233611
4.225542
4.15237
4.106224
4.149085
4.370673
4.807491
5.387593
5.946919
6.250143
6.093106
5.792572
5.722684
5.412881
5.079545
4.8236
4.418989
3.949392
3.494037
3.03998
2.920325
1.662124
0.6063144
0.8184076
2.075102
2.414623
2.728097
3.05271
3.294228
3.442794
3.489276
3.452267
3.439078
3.513587
3.724149
4.080271
4.535657
5.000278
5.335919
5.362382
5.128083
5.194991
4.941675
4.579885
4.376945
3.91705
3.319322
2.817732
2.302719
1.833553
0.6919051
0.9018185
2.19575
2.430197
2.633654
2.840476
2.987028
3.053904
3.054216
3.048775
3.124026
3.293754
3.552213
3.869204
4.2042
4.480921
4.563719
4.39299
4.580723
4.45487
3.99105
3.891519
3.480158
2.743388
2.376723
1.988086
0.770268
0.9136976
2.156141
2.302836
2.495177
2.621521
2.737552
2.788779
2.812405
2.864626
2.970958
3.11977
3.299954
3.509584
3.721854
3.825935
3.705471
3.949607
3.915433
3.351962
3.338412
3.0948
2.232176
1.976037
0.802328
0.8622282
1.936901
2.910922
2.795904
2.772159
2.720519
2.68086
2.661714
2.667976
2.713075
2.807181
2.956087
3.132237
3.19335
3.022555
3.327513
3.313966
2.710561
2.849557
2.806089
1.829601
0.7766871
0.7396549
1.648638
2.414857
2.231188
2.222475
2.268012
2.276424
2.27813
2.318029
2.410648
2.539633
2.655068
2.61507
2.333325
2.78044
2.725081
2.201255
2.458147
1.602147
0.7013166
0.5968345
1.103365
1.626788
2.148085
2.43155
2.021421
1.954911
2.028238
2.12824
2.216553
2.251952
2.079079
1.814259
2.557823
2.275253
1.696165
1.132766
0.5884407
0.5735966
0.9690813
1.122943
1.262018
1.622415
1.959182
2.024286
2.030895
1.975211
1.632752
1.287166
1.149095
0.9843996
0.5681549
0.5223006
0.8409541
0.8893009
0.8893251
0.8388099
0.5176439
0.8357343
1.524401
1.834191
2.027964
2.113919
2.128185
2.077527
1.909077
1.640181
0.9102808
0.8376289
1.615313
2.093506
2.87633
3.874169
2.881262
3.132718
3.257696
3.271748
3.2221
3.195921
4.120382
3.078271
2.161754
1.638743
0.8559496
1.124537
2.573955
2.381278
3.016396
3.850373
4.651844
4.135192
4.809617
5.005806
5.011911
4.904152
4.608143
5.029953
3.939007
3.031188
2.4496
2.692397
1.162248
0.8132633
1.700832
1.829638
3.037395
3.179118
4.216572
5.129862
5.881851
5.815615
6.461339
6.684755
6.676299
6.535179
6.278779
6.361454
5.345774
4.418511
3.484248
3.522485
2.093599
1.834087
0.8827623
0.8202698
2.136689
2.111152
2.362766
3.625376
4.097907
5.167792
6.066188
6.75764
6.96688
7.623228
7.936499
7.996443
7.874247
7.626353
7.532348
6.673611
5.847945
4.976068
4.818963
3.129422
2.83019
2.451224
0.9562966
0.7734508
2.058546
2.254997
2.408452
2.892884
3.971556
4.522112
5.476281
6.282692
6.886143
7.218743
7.966414
8.489848
8.795583
8.881568
8.753462
8.623268
7.879803
7.130064
6.358535
6.151087
4.648315
3.942464
3.410132
2.538671
0.9520042
0.711201
1.907962
2.147648
2.391464
2.693676
3.166635
3.997574
4.515192
5.356028
6.043759
6.474963
6.849042
7.648956
8.332433
8.886178
9.257521
9.460647
9.549348
8.982468
8.312788
7.58887
7.330101
6.123092
5.376625
4.336065
3.392391
2.44447
0.8811741
0.6219119
1.716927
1.99529
2.279567
2.615027
2.923869
3.40433
4.192587
4.695569
5.480593
6.074222
6.265234
6.50771
7.141837
7.751784
8.354474
8.925407
9.406197
9.863805
9.64638
9.215908
8.613869
8.306232
7.280217
6.474097
5.306319
3.973216
3.026866
2.171002
0.7487012
1.189356
1.805716
2.148139
2.571361
2.986518
3.436739
4.095895
5.069958
5.802767
6.737815
7.368973
7.49103
7.451491
7.551949
7.692914
7.923218
8.281172
8.703413
9.267721
9.534237
9.476095
9.091447
8.816632
7.901174
6.970352
5.72128
4.340301
3.282888
2.613143
1.463701
0.7397783
1.405683
1.955463
2.467232
3.038253
3.682551
4.431322
5.554038
7.161867
8.683368
10.07741
10.91574
11.03929
10.63478
9.976772
9.242255
8.614555
8.242193
8.150265
8.388212
8.750931
8.948163
8.864927
8.725905
7.99475
6.997032
5.743438
4.44526
3.641989
2.824667
1.808812
0.8563113
0.5400454
1.66913
1.633708
2.249944
2.913812
3.691396
4.677129
5.958749
7.875909
10.31358
12.49671
13.94915
14.67533
14.76247
14.12995
12.98907
11.58733
10.18214
9.001918
8.189108
7.825448
7.867337
8.034112
8.087308
8.079864
7.624858
6.762867
5.703432
4.653574
4.013298
3.408312
2.112994
2.040013
0.6120993
0.9914313
1.632844
1.943767
2.623593
3.439937
4.4767
5.809366
7.662434
10.08278
12.18013
13.12683
13.41005
13.56337
13.7487
13.85295
13.28433
12.12741
10.76479
9.431753
8.316686
7.552348
7.211507
7.165681
7.197703
7.271049
7.11325
6.608818
5.95774
5.359615
4.757449
3.858636
2.942667
1.891086
1.315903
1.237346
1.717963
2.274188
3.028733
3.968597
5.226717
6.82927
8.85578
10.67723
11.48447
11.8034
11.81608
11.7497
11.82511
12.12529
12.53719
11.84917
10.62145
9.425477
8.346777
7.487465
6.936989
6.693212
6.657802
6.815415
6.976357
6.987435
6.825158
6.690212
6.230081
4.965388
4.436673
2.595528
1.92784
0.5301164
1.725331
1.981139
2.612716
3.424652
4.436569
5.812547
7.428386
9.033247
10.03388
10.78613
10.86928
10.32006
9.906221
9.839762
10.06904
10.60905
11.23201
10.62914
9.572027
8.6018
7.804954
7.243884
6.958848
6.974263
7.345966
7.91973
8.408223
8.402335
7.812333
7.019508
5.57114
5.066265
3.073112
2.72656
0.7508005
0.936143
2.309943
2.373036
2.975939
3.78975
4.794058
6.124276
7.47818
8.581956
9.567932
10.33011
9.404354
8.580834
8.256453
8.268522
8.533183
9.042971
9.798804
10.3328
10.15454
9.522555
8.896355
8.617944
8.661373
9.131663
9.736236
10.10993
9.890676
9.018384
7.690291
6.610004
5.469799
4.544082
3.208126
3.414531
1.25636
1.108412
1.770296
2.401743
3.162424
4.009132
4.978638
6.177833
7.257059
8.153371
9.357759
9.322229
8.037923
7.540316
7.426139
7.460936
7.584458
7.851087
8.32431
8.972663
9.657165
10.14662
10.4107
10.63482
10.73537
10.57247
10.00155
9.27342
8.471439
7.573698
6.657374
6.018754
5.405578
4.721959
3.543695
3.478484
1.325157
1.235845
1.712093
2.427831
3.229701
4.077462
4.997491
6.072579
6.983583
7.802677
8.827747
8.455297
7.45704
7.26158
7.307414
7.347037
7.27528
7.130395
7.04213
7.104861
7.333502
7.694693
8.117664
8.516372
8.800972
8.907355
8.621829
8.074454
7.517535
6.564285
5.799465
5.596992
5.34504
4.72786
3.669785
2.912865
1.321229
1.303115
1.744826
2.459259
3.248179
4.054745
4.907369
5.853386
6.691647
7.427997
8.196111
8.198073
7.559708
7.443697
7.600907
7.743267
7.696692
7.434519
7.098388
6.870823
6.849934
7.043034
7.398656
7.817202
8.155992
8.27284
8.080784
7.573254
6.871895
6.165589
5.707438
5.469922
5.277543
4.657237
3.599459
2.415411
1.272659
1.333298
1.780118
2.491491
3.256376
4.001067
4.772148
5.591306
6.398552
7.058731
7.631992
7.847563
7.899206
7.895314
8.067979
8.308602
8.348527
8.074056
7.612594
7.210648
7.030061
7.096518
7.345739
7.666842
7.933139
8.033806
7.907694
7.573367
7.10935
6.643534
6.302022
5.959418
5.487987
4.694931
3.527568
2.192269
1.234463
1.325965
1.784527
2.496414
3.254611
3.947005
4.636825
5.370262
6.132837
6.741805
7.202555
7.464946
7.725045
8.126605
8.545773
8.925476
9.124989
8.926101
8.402419
7.846294
7.491669
7.400252
7.519368
7.747763
7.974539
8.107625
8.095457
7.976717
7.826688
7.592906
7.248581
6.741201
6.001244
4.984375
3.636636
2.175252
1.20696
1.253413
1.741189
2.333198
3.164455
3.867246
4.505799
5.166833
5.838961
6.443803
6.852131
7.075579
7.276716
7.716049
8.422526
9.20871
9.772502
9.800948
9.322764
8.667393
8.15314
7.894917
7.861388
7.965269
8.107034
8.201242
8.199271
8.226551
8.173454
8.009104
7.68918
7.15375
6.323079
5.093879
3.476917
2.195607
1.14903
1.092941
2.73241
2.915626
3.503248
4.052415
4.567402
5.116713
5.702823
6.268172
6.666861
6.853098
6.943881
7.191622
7.773724
8.683832
9.72444
10.3441
10.11955
9.472377
8.851567
8.451269
8.263633
8.212113
8.208326
8.168592
8.070523
8.018722
7.888772
7.650233
7.273732
6.727193
5.969321
4.959544
3.736506
2.716402
1.006787
0.6295033
2.118903
2.642418
3.397672
4.046046
4.580473
5.09358
5.629897
6.15442
6.610975
6.868394
6.953962
7.00672
7.236151
7.825078
8.829908
9.96746
10.45746
10.04683
9.416112
8.935394
8.640979
8.458871
8.316631
8.142317
7.893497
7.690303
7.421543
7.037461
6.518979
5.845255
4.987333
3.952042
2.844935
2.09123
0.57978
1.598795
2.240733
3.115271
3.907682
4.526335
5.053727
5.567845
6.068912
6.500549
6.84082
6.971132
6.932108
6.886581
7.075287
7.71613
8.793054
9.850259
10.13915
9.693536
9.207555
8.875699
8.625837
8.399008
8.145828
7.807686
7.485918
7.121977
6.629391
5.997093
5.216075
4.274418
3.219609
2.211363
1.539105
1.298491
1.899296
2.593924
3.512827
4.267554
4.869622
5.393574
5.868937
6.262084
6.516452
6.650422
6.585304
6.436706
6.405107
6.716508
7.491215
8.556322
9.412912
9.532981
9.165993
8.851268
8.590262
8.323277
8.033721
7.665429
7.276047
6.859109
6.29488
5.57825
4.71784
3.7361
2.70105
1.899887
1.180444
0.7070967
2.192568
2.642674
3.361643
4.065488
4.65971
5.153271
5.561395
5.860318
6.032804
6.091827
6.022552
5.860824
5.746873
5.862794
6.35659
7.209442
8.155945
8.757172
8.760943
8.536507
8.306471
8.02301
7.707711
7.323133
6.898919
6.448187
5.829271
5.046202
4.13826
3.217444
2.421497
2.000848
0.6144862
0.9955913
1.697824
2.334688
3.160725
3.907469
4.485589
4.892555
5.166556
5.309349
5.315247
5.252878
5.116816
5.00745
5.064129
5.407602
6.062145
6.899188
7.630962
7.963524
7.967566
7.821757
7.534098
7.180968
6.77947
6.326075
5.849867
5.182762
4.341145
3.373861
2.448032
1.76519
0.8620792
1.610198
2.155964
2.700034
3.387693
3.960671
4.358024
4.598438
4.709204
4.693993
4.599276
4.465894
4.360566
4.395269
4.654752
5.161138
5.848404
6.536915
6.984567
7.177574
7.1865
6.925686
6.515333
6.126126
5.611616
5.12636
4.438672
3.61201
2.693172
1.949186
1.310139
0.7974886
2.152831
2.459738
2.827496
3.303087
3.694226
3.956463
4.094619
4.109856
4.018786
3.911563
3.832116
3.864778
4.069077
4.46353
5.01159
5.594559
6.029541
6.294643
6.405752
6.226955
5.81026
5.472418
4.795999
4.305507
3.626859
2.891322
2.216625
1.772126
0.6280396
0.8511763
2.213676
2.468526
2.772255
3.155577
3.43448
3.597309
3.6376
3.572244
3.45313
3.38488
3.41314
3.579836
3.89613
4.329015
4.787483
5.136966
5.393409
5.560208
5.499917
5.123402
4.786325
3.914068
3.416169
2.822126
2.306101
1.873252
0.6783669
0.8488484
2.166096
2.318089
2.516674
2.779907
2.972774
3.071011
3.072144
3.015017
2.960335
3.001417
3.156738
3.419801
3.748371
4.066889