/*--------------------------------*- C++ -*----------------------------------*\
  =========                 |
  \\      /  F ield         | OpenFOAM: The Open Source CFD Toolbox
   \\    /   O peration     | Website:  https://openfoam.org
    \\  /    A nd           | Version:  6
     \\/     M anipulation  |
\*---------------------------------------------------------------------------*/
FoamFile
{
    version     2.0;
    format      ascii;
    class       volScalarField;
    location    "50";
    object      Co;
}
// * * * * * * * * * * * * * * * * * * * * * * * * * * * * * * * * * * * * * //

dimensions      [0 0 0 0 0 0 0];

internalField   nonuniform List<scalar> 
140018
(
0.06860007
0.06495493
0.06489209
0.06448006
0.06434448
0.04908001
0.05617159
0.06091311
0.06138589
0.06054275
0.06755112
0.06041162
0.03370103
0.04025296
0.03872759
0.0356166
0.04466711
0.05111153
0.05452326
0.05556766
0.05429688
0.05232941
0.05944321
0.05037804
0.0319664
0.02920048
0.02729277
0.02644009
0.02393774
0.02647939
0.03805152
0.04332332
0.04526643
0.04487947
0.04317521
0.04121788
0.03814971
0.03431441
0.03079617
0.03345209
0.0323169
0.02883436
0.02119533
0.01050455
0.01253766
0.02200139
0.02597936
0.02718473
0.02697409
0.02651769
0.02589842
0.02730031
0.03939267
0.04217672
0.04586195
0.04738266
0.04741761
0.04504534
0.03867525
0.02779631
0.02371546
0.02199937
0.02155027
0.01987524
0.01640946
0.01341135
0.01339848
0.02470382
0.04158501
0.04754246
0.05100358
0.05399415
0.0553703
0.05476056
0.05152533
0.0453278
0.03673905
0.03079362
0.0259279
0.02040293
0.01413759
0.01276006
0.01766379
0.0260809
0.02790315
0.03797784
0.0465408
0.05202708
0.05570281
0.05734226
0.0569717
0.05431015
0.04991881
0.04417844
0.0378184
0.03172303
0.02682982
0.02331477
0.02185284
0.02272182
0.02692351
0.03859734
0.02423087
0.03552246
0.04486916
0.05242599
0.05712911
0.05927037
0.05922289
0.05749083
0.05473242
0.05118076
0.04741215
0.04410081
0.04158566
0.03986773
0.03921817
0.03945183
0.04002282
0.04730722
0.01346264
0.0286228
0.04134854
0.05136185
0.05757407
0.06057349
0.06108119
0.06023372
0.05862231
0.05662317
0.05445522
0.05280864
0.05148278
0.05077217
0.05064122
0.05094566
0.0567764
0.06610856
0.0152593
0.01532127
0.0322889
0.04621414
0.05504351
0.05968713
0.06124302
0.06120625
0.06037499
0.05930605
0.05832481
0.05764228
0.05699434
0.05685473
0.05681458
0.06040088
0.06494705
0.08414367
0.02822233
0.02721477
0.03579369
0.04732797
0.05532198
0.05884261
0.05995871
0.06011679
0.05996503
0.05969394
0.05932521
0.05917372
0.05927789
0.06097572
0.06659063
0.07290384
0.05375565
0.03937845
0.03705098
0.03920956
0.04605683
0.05322991
0.0563085
0.0576637
0.05831839
0.05863637
0.05878746
0.05900183
0.0595776
0.06321791
0.06764049
0.0869569
0.05108627
0.04684753
0.04205684
0.03987609
0.0435335
0.05000999
0.05329089
0.05506279
0.05607043
0.05665135
0.05713546
0.05947047
0.06437692
0.06933337
0.07269475
0.05358475
0.04838687
0.04172287
0.03813582
0.04062336
0.04677194
0.05000568
0.05188959
0.0536156
0.05661619
0.06033299
0.06363519
0.08013431
0.06465665
0.0553634
0.04711276
0.04159969
0.03592903
0.03772847
0.04391841
0.04852035
0.05289301
0.05543046
0.06055439
0.07255218
0.05706593
0.04806968
0.04037922
0.03744041
0.04014464
0.04539414
0.05163321
0.06314435
0.05252702
0.04531464
0.0433193
0.04995779
0.02849629
0.0287464
0.03176596
0.03515014
0.03919851
0.04424617
0.05055108
0.05779073
0.06571075
0.08015442
0.02225066
0.02039073
0.02498206
0.02980858
0.03356484
0.03692281
0.03951581
0.04181267
0.04483032
0.04919973
0.05430588
0.06347036
0.07615225
0.08181999
0.02522519
0.02406963
0.02927168
0.03265944
0.03790914
0.04094146
0.04740065
0.04901634
0.04994069
0.04872696
0.05170914
0.05376936
0.05625267
0.05955087
0.06627834
0.07697956
0.02941478
0.02794959
0.03242146
0.03670031
0.03942496
0.04195369
0.05041855
0.05404965
0.05661884
0.05673581
0.05394939
0.05894387
0.05626299
0.0583756
0.05923793
0.0600397
0.06291544
0.06963083
0.02610887
0.02661365
0.03228654
0.03711305
0.03904939
0.0439133
0.04513882
0.04919327
0.05171796
0.05688146
0.05834344
0.05939538
0.06293667
0.0561954
0.06156877
0.05841537
0.05933396
0.0588922
0.05754901
0.06018491
0.0209509
0.02178686
0.02853598
0.03248512
0.03520751
0.03488658
0.04074346
0.0390825
0.03555874
0.04036961
0.0484686
0.0537395
0.05674477
0.05695083
0.05708723
0.06037873
0.05375667
0.05604703
0.05586344
0.05526907
0.05323261
0.05958462
0.01880203
0.02296286
0.02681077
0.02646444
0.02774247
0.03134241
0.03029672
0.0281128
0.02536386
0.02437703
0.03377437
0.04162128
0.04614889
0.04843946
0.04995617
0.05024132
0.05011587
0.04648833
0.04864755
0.04978897
0.05085289
0.06230633
0.02508418
0.01620563
0.0208571
0.02050207
0.02494211
0.03097985
0.03561799
0.03734836
0.03592263
0.03074206
0.02054248
0.01469777
0.02016384
0.02729066
0.03154908
0.03469396
0.03684148
0.03849961
0.04017473
0.0407718
0.04170377
0.04583166
0.05514169
0.07161995
0.02165742
0.01540138
0.01673067
0.02140473
0.03173723
0.04023453
0.0487516
0.05254565
0.05374147
0.05222454
0.04752617
0.03762415
0.03031502
0.02458868
0.023241
0.02165958
0.02049833
0.02223817
0.02635024
0.03087356
0.0390526
0.04612043
0.05361611
0.06589077
0.02331049
0.01309246
0.01420028
0.02391009
0.03592394
0.04683081
0.05423476
0.05881475
0.06098812
0.0608858
0.05824931
0.05285449
0.04503607
0.03616998
0.03116617
0.02574895
0.01997985
0.01859803
0.02251147
0.02958094
0.0345855
0.03527464
0.0393672
0.04128459
0.02848431
0.01353379
0.01054415
0.01922482
0.03300054
0.04629173
0.0548762
0.06019724
0.06274739
0.06293846
0.06097985
0.05720755
0.05198318
0.04604992
0.04004188
0.034851
0.03104601
0.02901681
0.02858743
0.02743655
0.02615303
0.02534068
0.02716785
0.02557714
0.03715342
0.02151178
0.01229157
0.01145324
0.02734342
0.04255035
0.05357421
0.06038281
0.06374504
0.06445996
0.06333309
0.06091935
0.0577135
0.05421202
0.05100358
0.04844681
0.04675284
0.04590084
0.0453147
0.043851
0.04563893
0.04768001
0.04982307
0.0544889
0.04730074
0.03365576
0.02486487
0.0139435
0.01918471
0.03376857
0.04909768
0.05859769
0.06358248
0.06533878
0.06519866
0.06398638
0.06225222
0.06033
0.05870166
0.05735882
0.05648549
0.05570248
0.05433664
0.05785244
0.06291426
0.06288824
0.06449243
0.06989967
0.05670791
0.04415119
0.0353439
0.02668539
0.01964569
0.02654786
0.03818584
0.05244429
0.06045978
0.06407333
0.06515419
0.06496943
0.06426396
0.06343525
0.06266731
0.06194451
0.06127786
0.05990258
0.06272965
0.0658542
0.07479803
0.06832144
0.07058949
0.0768503
0.0646051
0.05218219
0.04455499
0.03976047
0.02959637
0.03268867
0.03744599
0.04322533
0.05254579
0.0595442
0.06260249
0.06375417
0.06402386
0.06392606
0.06365551
0.06328523
0.06249531
0.06300528
0.06763566
0.07202775
0.07835828
0.06823356
0.07169234
0.07857122
0.07163524
0.05844468
0.05190303
0.04800656
0.04569263
0.03885724
0.04222462
0.04456642
0.04525516
0.05062484
0.05706809
0.06011278
0.06150492
0.06215758
0.0623713
0.06218027
0.06147531
0.0646901
0.06733823
0.07595355
0.07019939
0.0693565
0.07144202
0.07858868
0.0855664
0.06871295
0.05653847
0.05190736
0.05502521
0.04841988
0.04707653
0.04798064
0.04697789
0.04462921
0.04796063
0.05412922
0.05707792
0.05851753
0.05904652
0.05885879
0.06029164
0.0643272
0.06838972
0.07470885
0.06512965
0.06708661
0.06817993
0.08591173
0.08085353
0.05976609
0.05466934
0.0523505
0.06022018
0.05211199
0.05003837
0.04780377
0.04513512
0.04214692
0.04519646
0.05039753
0.05266873
0.05393844
0.05591438
0.05911008
0.06119163
0.06816765
0.06419974
0.06386891
0.06560092
0.06801383
0.09027303
0.07008429
0.05739761
0.0543271
0.06078354
0.05717354
0.05548111
0.04766112
0.04576281
0.04105651
0.03850998
0.04152843
0.0461488
0.05025066
0.05269779
0.05709282
0.06146826
0.06357712
0.05727639
0.06106868
0.06267399
0.07803198
0.08946849
0.06692826
0.05827653
0.054437
0.05752534
0.05624662
0.05196748
0.04790661
0.04142321
0.03818116
0.03632548
0.04057054
0.04613088
0.0532036
0.05629703
0.05311262
0.05176467
0.05572055
0.05691185
0.06272706
0.08640471
0.06583091
0.05767998
0.05473369
0.05042406
0.0515369
0.05048933
0.0466903
0.04179511
0.03765273
0.04051868
0.04468696
0.04343796
0.0441665
0.04743276
0.04967292
0.05117147
0.05624046
0.0824008
0.06377894
0.05540418
0.05194797
0.04915569
0.04487588
0.04466187
0.0423823
0.03993855
0.03538893
0.03401227
0.03751866
0.04055128
0.04399952
0.04629132
0.05071221
0.07976677
0.05873175
0.05520968
0.04956665
0.04700817
0.04552207
0.04439164
0.04271828
0.04033873
0.03746315
0.03627849
0.03833035
0.04345912
0.05337882
0.06695033
0.05143873
0.04901833
0.04831413
0.04845461
0.04836884
0.04794802
0.04702347
0.04625205
0.0510438
0.0799908
0.07494457
0.07611363
0.07827539
0.08067061
0.08272072
0.08509098
0.0999387
0.06935402
0.06538623
0.0672432
0.06266579
0.06037559
0.06173338
0.06392565
0.06659002
0.06935513
0.0722149
0.07666285
0.07837871
0.07846222
0.090506
0.06135991
0.0529829
0.04809215
0.0469901
0.04912094
0.04960133
0.05120327
0.05372566
0.05686546
0.06014643
0.06275842
0.06408022
0.06290159
0.06506165
0.07522782
0.09120888
0.05930781
0.05318612
0.04292017
0.03891554
0.03656854
0.03296352
0.03532207
0.03641175
0.0384351
0.04149931
0.04533323
0.05005065
0.05557039
0.06056956
0.06590079
0.06943369
0.06633912
0.0711527
0.08216327
0.08345451
0.05343238
0.041788
0.03307132
0.02843755
0.02418257
0.02271451
0.02555083
0.03031743
0.03339327
0.03607041
0.03862241
0.04147762
0.04480238
0.04911125
0.05452574
0.06201832
0.06731025
0.0643534
0.06318092
0.06461977
0.06685235
0.07554852
0.04895165
0.03605376
0.02703686
0.02390726
0.02127152
0.02253966
0.02797738
0.03295894
0.03834567
0.04227466
0.04512758
0.04732388
0.04919556
0.05115642
0.05346807
0.05538381
0.05676777
0.05942123
0.06483141
0.06434328
0.06092016
0.05966935
0.0586899
0.06001727
0.03023642
0.02430857
0.02333199
0.02078534
0.02046464
0.02699825
0.03285765
0.03746514
0.04279667
0.04929009
0.0536153
0.05586298
0.05734054
0.0592193
0.06001129
0.06047682
0.06124509
0.06136265
0.0611422
0.06255047
0.0607701
0.05644553
0.05348257
0.05588515
0.0390973
0.0280091
0.02578938
0.02131386
0.01874422
0.02561788
0.03213169
0.03696144
0.0397135
0.04237231
0.04608812
0.05409805
0.05908917
0.06213906
0.06408497
0.06390143
0.06454102
0.06442006
0.06385138
0.06363953
0.06226667
0.06068619
0.05758262
0.05261582
0.04743929
0.04970202
0.04391301
0.03390782
0.02932732
0.0237122
0.01703429
0.02359409
0.03144272
0.03622506
0.03866082
0.03947577
0.03784595
0.03580616
0.04180644
0.05180864
0.05841434
0.06205818
0.06344187
0.06414876
0.06378164
0.06406965
0.06351948
0.06252138
0.06068847
0.05780881
0.05322441
0.05017792
0.0479554
0.05139506
0.042568
0.03377084
0.03067793
0.02063404
0.01933607
0.02780415
0.03169058
0.03336163
0.03372523
0.03274194
0.03059289
0.0277637
0.02662737
0.0351972
0.04515233
0.05108165
0.05479225
0.05721479
0.0584494
0.05904804
0.05887193
0.05854142
0.05787411
0.05774474
0.06021303
0.05479948
0.05380423
0.06017469
0.0416393
0.03489031
0.02944402
0.01791374
0.02219944
0.02677421
0.02693138
0.03013625
0.03707527
0.04107063
0.04125055
0.03756967
0.0285399
0.01976393
0.02255978
0.03189594
0.03784894
0.04215806
0.0452623
0.04735551
0.04877012
0.04990533
0.05226277
0.05541458
0.060055
0.06044356
0.06288098
0.07547438
0.05825918
0.04289953
0.03729682
0.0289199
0.0198538
0.02181759
0.02253341
0.02872366
0.04152586
0.05096267
0.05657758
0.05893547
0.05832173
0.0545036
0.0456645
0.03621501
0.03015524
0.02665159
0.02523194
0.02682798
0.0314537
0.03619002
0.04152955
0.04847845
0.05518202
0.06010412
0.06179288
0.05863165
0.06399517
0.06840459
0.0554658
0.0471351
0.03990837
0.0312345
0.02209114
0.01911812
0.02142262
0.03250801
0.04666447
0.05667543
0.0628297
0.06590165
0.06639715
0.06436132
0.05959338
0.0523467
0.04360605
0.03692635
0.03168793
0.02616369
0.02553104
0.03065511
0.03557411
0.03938274
0.04263402
0.04242644
0.03666802
0.0267894
0.02322225
0.0222054
0.05798301
0.04993308
0.04395382
0.03601082
0.02635367
0.02105001
0.01846835
0.02989152
0.04586814
0.05712319
0.06406318
0.06754927
0.06833106
0.06688374
0.06355854
0.05873006
0.05304137
0.047083
0.04158319
0.03716223
0.03423305
0.03235087
0.03126686
0.03003468
0.02997946
0.02885427
0.02452033
0.02004518
0.01810811
0.02787041
0.06192938
0.05384103
0.04902808
0.04274569
0.03261297
0.029198
0.02212651
0.02399271
0.04042722
0.05458136
0.0633696
0.06794986
0.06941673
0.06874161
0.06664328
0.06364507
0.06023505
0.05686737
0.05390749
0.05155522
0.04980972
0.04834877
0.04658892
0.04503317
0.04609581
0.04623996
0.04823556
0.04393778
0.03813403
0.04438631
0.06595644
0.05807246
0.05445732
0.0501507
0.04014048
0.03717637
0.03315736
0.02367117
0.03202536
0.0472218
0.05966223
0.0664971
0.06938253
0.06980928
0.06887605
0.06725851
0.06535451
0.06346237
0.06169417
0.06010353
0.05844715
0.05623833
0.05583509
0.05881746
0.06134976
0.06253345
0.06327974
0.05823207
0.05229481
0.05306332
0.06975857
0.06212087
0.05949282
0.05703141
0.0489458
0.04385243
0.04182431
0.03289374
0.03225306
0.03876443
0.0499997
0.06118186
0.06666623
0.06873992
0.06900866
0.06846443
0.06759317
0.06656129
0.06538459
0.06396273
0.0618612
0.06144597
0.06591767
0.06878321
0.07024502
0.07037357
0.07031509
0.06488043
0.05958169
0.05866076
0.0733719
0.06583571
0.06358355
0.06251825
0.05579231
0.04970265
0.04699198
0.04137082
0.03770054
0.04260991
0.0440929
0.05009651
0.05985264
0.06475643
0.06674291
0.06733134
0.06730878
0.06689987
0.06610084
0.06466681
0.06321903
0.06664431
0.07052017
0.07244762
0.07271648
0.07242577
0.07210702
0.06654672
0.06278743
0.06279357
0.08382571
0.07273276
0.06690758
0.06615829
0.06090297
0.05575545
0.0518358
0.04748344
0.04175659
0.04727479
0.05046776
0.04939589
0.05072848
0.05704822
0.06181176
0.06392337
0.06485069
0.06506581
0.06459643
0.06315963
0.06371296
0.06794021
0.0707247
0.07195284
0.07142486
0.07154512
0.07151626
0.06609384
0.06108606
0.07293451
0.08115099
0.06646596
0.06711415
0.06683156
0.06028377
0.05649718
0.05153243
0.04824241
0.0495792
0.05352162
0.05403157
0.05062832
0.04933056
0.05388758
0.05830963
0.06040687
0.06126087
0.06111024
0.06083019
0.06271475
0.06644584
0.06864553
0.06925364
0.06914444
0.06780223
0.0735098
0.06331587
0.06153572
0.08010036
0.06748327
0.06839109
0.0701471
0.06307703
0.05880287
0.05545144
0.05325725
0.05306143
0.05393152
0.05499933
0.05357426
0.04867795
0.04659026
0.05023163
0.05386279
0.05539911
0.05626738
0.05784324
0.06018044
0.0630812
0.06491887
0.0653899
0.06636853
0.06712405
0.07176679
0.0613013
0.06597098
0.0882313
0.0744817
0.06638456
0.07006653
0.06709544
0.06076825
0.05825813
0.05741728
0.05529857
0.05495624
0.05356989
0.053303
0.05036908
0.04496356
0.04242802
0.04514209
0.04904503
0.05192961
0.05395244
0.05626892
0.05877863
0.06040164
0.06167913
0.06179401
0.06720346
0.06184129
0.05996724
0.07126913
0.09085894
0.07041412
0.06643692
0.0714372
0.06434543
0.0604119
0.05897919
0.05669233
0.05573079
0.0540769
0.0519114
0.04935483
0.04605995
0.03969552
0.03863398
0.04306873
0.04680757
0.04937306
0.05158291
0.05370618
0.05566793
0.05633269
0.06184966
0.06286458
0.0534426
0.05913588
0.08186317
0.06219964
0.06555848
0.07028315
0.06215511
0.05989326
0.05713942
0.05522127
0.05391866
0.05216129
0.04948516
0.04640166
0.04230994
0.03723019
0.03686185
0.04100551
0.04375588
0.04627846
0.04888479
0.05026949
0.05570976
0.05733766
0.05202045
0.05316591
0.08872768
0.06884192
0.05913291
0.06614029
0.06737826
0.05908039
0.05759613
0.05446342
0.05290663
0.0514615
0.0493597
0.04699501
0.04398556
0.04022694
0.0357962
0.03481729
0.03854072
0.04207112
0.04421794
0.04956207
0.05167011
0.04728364
0.04843078
0.05767688
0.08678396
0.06689359
0.0591606
0.06485191
0.06039077
0.06106521
0.05282728
0.05142306
0.0501107
0.04850528
0.04671142
0.04456052
0.04225962
0.04021999
0.03782576
0.03707548
0.03873035
0.04441646
0.04610091
0.04270046
0.04418383
0.04730251
0.08598308
0.06307316
0.05975303
0.06105455
0.05912661
0.05364164
0.05134155
0.04870571
0.04748182
0.04711292
0.04699517
0.04668966
0.04574613
0.04391925
0.04158686
0.03943959
0.03684795
0.03734595
0.04217764
0.05135836
0.07443375
0.06048106
0.05278322
0.0535238
0.05019035
0.04793172
0.04714258
0.04714078
0.04739127
0.04750862
0.04718936
0.04652555
0.04372862
0.04223937
0.04475614
0.05315612
0.07192675
0.05597234
0.05332133
0.0496114
0.04829787
0.04725386
0.04739669
0.04805804
0.04864544
0.04914463
0.05051472
0.05558778
0.0534363
0.05734358
0.0573984
0.04975904
0.04887301
0.04973217
0.05126418
0.05264065
0.05406903
0.05726626
0.09221508
0.08622391
0.0863206
0.08710246
0.08918389
0.1020408
0.08278876
0.07652393
0.07564211
0.08101643
0.08007101
0.07780575
0.07882973
0.08011758
0.08156513
0.07889231
0.07467546
0.07668583
0.0803613
0.09092325
0.07501235
0.07325609
0.06734325
0.06915238
0.06669042
0.06683803
0.0725749
0.07448131
0.07629575
0.07809247
0.07952571
0.0803716
0.08594302
0.0855673
0.07476595
0.07335027
0.07773903
0.08250409
0.07365626
0.06251653
0.05816327
0.05965404
0.06446658
0.06676061
0.06522688
0.06440044
0.06579566
0.0678862
0.07034329
0.0728139
0.07493518
0.0742875
0.07401211
0.07293956
0.07396542
0.07151072
0.07008789
0.08311047
0.06938447
0.05907601
0.05724552
0.05636724
0.05759455
0.05528578
0.0547008
0.05448813
0.05461661
0.05599013
0.05832459
0.06123976
0.06439453
0.06732757
0.06937559
0.06979913
0.06932602
0.07182707
0.07197258
0.06943195
0.06855502
0.0775843
0.06555364
0.05357878
0.05258305
0.05601863
0.0518087
0.04710662
0.04535291
0.04423804
0.04402746
0.04427605
0.04496864
0.0460619
0.04841424
0.05210481
0.05581667
0.05912335
0.06203094
0.06504968
0.06804903
0.07118553
0.07211864
0.06460493
0.06079706
0.07002392
0.06136765
0.049508
0.04913711
0.04825998
0.0432351
0.04067045
0.0388597
0.03761072
0.03696213
0.03764394
0.03980191
0.04228671
0.04437879
0.04613405
0.04746256
0.04901063
0.052358
0.05737339
0.06077206
0.06348699
0.06526888
0.06489598
0.06425487
0.05958959
0.05306328
0.05956465
0.0569933
0.04256261
0.04139663
0.04214945
0.03700106
0.03423604
0.03121386
0.0304857
0.03388454
0.03841588
0.04325939
0.0474959
0.05076631
0.05321926
0.05505329
0.0564632
0.05749905
0.05776929
0.05673384
0.05598803
0.05876143
0.06007049
0.05972691
0.0578266
0.05553897
0.04713484
0.04233563
0.04419783
0.05275186
0.04040436
0.0376269
0.03569131
0.03113666
0.02831087
0.02779268
0.02875088
0.03096497
0.0347076
0.0398738
0.04606468
0.05213878
0.05708471
0.06081873
0.06316943
0.06445719
0.06504894
0.06513923
0.06450389
0.06288534
0.06061518
0.05804586
0.0562917
0.05423641
0.05131371
0.05129224
0.04313014
0.03575349
0.03424293
0.03844305
0.04037805
0.03816001
0.03195032
0.02949028
0.0287663
0.02782861
0.0271068
0.03251646
0.03732543
0.04121617
0.04421152
0.05033841
0.05815252
0.06430506
0.06807661
0.06981365
0.07026063
0.07030015
0.06970833
0.06833511
0.06633701
0.06354681
0.06046165
0.05755212
0.05369254
0.04769135
0.04216053
0.03458902
0.03516669
0.0473133
0.04057102
0.04090764
0.03644937
0.03263556
0.03052494
0.02861295
0.02515576
0.02909018
0.03615093
0.04005083
0.04118275
0.0401964
0.04151458
0.04813652
0.05824367
0.06471203
0.06835918
0.07015424
0.07097721
0.07096102
0.07028221
0.06870746
0.06633283
0.06351124
0.06057127
0.05739474
0.05262727
0.04665352
0.03952771
0.03562716
0.03706159
0.04726415
0.04533813
0.04327498
0.03874984
0.03396939
0.03102417
0.0268649
0.02575042
0.03356789
0.03683367
0.0374218
0.0363746
0.03439252
0.03178266
0.0318258
0.04013811
0.0509841
0.05745821
0.06172438
0.06449268
0.06606635
0.06654651
0.06597771
0.06480176
0.06354252
0.06256284
0.06156022
0.05939539
0.05675187
0.05345257
0.04901567
0.04772602
0.04685415
0.05077653
0.04595473
0.04010691
0.03452032
0.03073735
0.02481334
0.02855006
0.03164065
0.03347576
0.03873145
0.04381117
0.04513106
0.04247227
0.03418259
0.02506556
0.02736418
0.0380841
0.04498965
0.04990718
0.05350092
0.05583765
0.05734748
0.0586893
0.06068433
0.06334933
0.06583272
0.06800734
0.0684561
0.06729144
0.05905008
0.05874335
0.04971835
0.05241884
0.04598499
0.04216508
0.03563656
0.03169259
0.02475286
0.02654589
0.03142739
0.04193932
0.0526968
0.05957593
0.06295582
0.06315924
0.0600696
0.05191126
0.04139785
0.0351358
0.03064374
0.03134505
0.03547243
0.04072579
0.04585497
0.05129241
0.05685585
0.06295128
0.06741645
0.06732707
0.06599311
0.06288345
0.05420256
0.05551964
0.06455851
0.05244252
0.05437367
0.05047793
0.04494373
0.03771887
0.03384956
0.0274664
0.02319328
0.03159188
0.04693348
0.0585035
0.06598876
0.07000017
0.0711565
0.06968509
0.06540433
0.05854419
0.04984616
0.04234222
0.03715687
0.0316239
0.03214692
0.03859782
0.04404358
0.04740192
0.04979216
0.04919285
0.04222259
0.03673357
0.0342269
0.02841393
0.02848174
0.03350603
0.06216289
0.05806032
0.0571464
0.05378082
0.04877997
0.04089888
0.03738806
0.03310228
0.02543894
0.02915476
0.0456825
0.05877369
0.06720695
0.07173316
0.07320686
0.07225863
0.06929781
0.06473246
0.059139
0.05310813
0.04725658
0.04222151
0.03841748
0.03548828
0.03340749
0.0316504
0.0300848
0.02683612
0.01962168
0.01326462
0.01762279
0.02624368
0.0307934
0.03619604
0.06403609
0.06037502
0.06047116
0.05758146
0.05346212
0.04583186
0.04148296
0.04014437
0.03525107
0.02671125
0.03850588
0.05521155
0.06583173
0.07172441
0.07406925
0.07393302
0.07214648
0.06929221
0.06586465
0.06228537
0.05890548
0.05594101
0.05344716
0.0512749
0.04918036
0.04714035
0.04465547
0.04084779
0.0377135
0.03418438
0.03681745
0.04233754
0.04346782
0.04581057
0.06707975
0.06320309
0.06382774
0.06153535
0.05844845
0.05230631
0.04527708
0.04627904
0.04455061
0.03492204
0.03297372
0.0453743
0.06052378
0.06914352
0.07326942
0.07442317
0.07385835
0.07236439
0.07039836
0.06823707
0.06604616
0.06388569
0.06166698
0.05920488
0.05645154
0.05569935
0.05642952
0.05745243
0.05678531
0.05235166
0.04764368
0.04968576
0.04899189
0.05075848
0.07045488
0.06612647
0.06682498
0.06520335
0.06309281
0.05838826
0.05041576
0.05022413
0.0507279
0.04521604
0.03746793
0.04106221
0.04957626
0.06179756
0.0691666
0.07237869
0.07324683
0.07293656
0.07203273
0.07076158
0.06919564
0.06729469
0.06490051
0.06212316
0.06345755
0.06646175
0.0681406
0.06835582
0.06705443
0.06231309
0.05520838
0.05160113
0.05019468
0.05249416
0.07838831
0.07090802
0.06887674
0.06823404
0.06691762
0.06340407
0.0569467
0.05221663
0.05375984
0.05132847
0.04365248
0.04755722
0.04992698
0.05282502
0.06008435
0.06688913
0.06990445
0.07099467
0.07111154
0.07058809
0.06949717
0.06775579
0.06523204
0.06492588
0.06863103
0.07106107
0.07212025
0.07201746
0.0706501
0.06622279
0.05978914
0.05320522
0.05192834
0.05937809
0.07512326
0.06658512
0.07125952
0.06998165
0.06710955
0.06193208
0.05615429
0.05397461
0.0534456
0.04860625
0.05213573
0.05556938
0.0558283
0.05375862
0.05695446
0.06349638
0.06658824
0.06796425
0.0682826
0.06773202
0.06627818
0.06428808
0.06546761
0.06873628
0.07074228
0.07150774
0.07155661
0.07043193
0.06678286
0.06007572
0.06032213
0.05197007
0.07278903
0.06819108
0.0748042
0.07181028
0.06912947
0.06554275
0.06053016
0.05557013
0.05286774
0.0504444
0.05444305
0.05831709
0.0597954
0.05795713
0.0527847
0.0535431
0.05966583
0.06272517
0.06407748
0.06422262
0.06333907
0.06242539
0.06324473
0.0662536
0.06812042
0.06914503
0.06966643
0.06884146
0.06593163
0.06081233
0.06216086
0.05042615
0.07570049
0.07258512
0.07358148
0.07235973
0.0704332
0.06767959
0.06307747
0.05837553
0.05336806
0.05227157
0.05530043
0.05888261
0.06080177
0.06047901
0.05701384
0.05048388
0.0500195
0.05538915
0.05804527
0.05907039
0.05908135
0.05934811
0.06028703
0.06240851
0.06446309
0.06609473
0.06713451
0.06652415
0.06407894
0.06061592
0.05668091
0.05565328
0.08425821
0.07216826
0.06862949
0.07299224
0.07110519
0.06807049
0.06437266
0.05985794
0.05653803
0.05501829
0.05592404
0.05866297
0.06016554
0.0605265
0.0586835
0.05415263
0.04711044
0.04601491
0.05044235
0.05273002
0.05400445
0.05534359
0.05649142
0.05798772
0.06045865
0.06249032
0.06364241
0.06320304
0.0598673
0.06104764
0.05006645
0.0604959
0.07865921
0.06509156
0.07184651
0.07260155
0.06812682
0.06439607
0.06143039
0.05977634
0.05776549
0.05694977
0.0583342
0.05933739
0.05955896
0.05837888
0.05550326
0.05006979
0.04304658
0.04206835
0.04625012
0.04874429
0.05062366
0.05197359
0.05357123
0.05634435
0.05836733
0.05945035
0.0574979
0.06027783
0.05802655
0.04790147
0.08281705
0.07050425
0.06888713
0.07303828
0.06769565
0.0637768
0.06321405
0.06208412
0.05978588
0.05722859
0.0576103
0.05863776
0.05865522
0.05763724
0.05544759
0.05146974
0.04592423
0.03994566
0.03923823
0.04263819
0.04531112
0.04702398
0.04945081
0.05203536
0.05376416
0.05447284
0.05496159
0.057229
0.04690897
0.05504928
0.08617804
0.07061235
0.07026677
0.0681963
0.06332445
0.06414181
0.06344236
0.06131725
0.05812797
0.05662284
0.05744827
0.05751981
0.05661501
0.05468421
0.05151938
0.04726626
0.04244431
0.03735509
0.03681776
0.03974678
0.04258806
0.04552993
0.04774432
0.04893436
0.04843323
0.05084905
0.04570986
0.04725535
0.08344901
0.06965689
0.07014219
0.06372072
0.0636295
0.06368597
0.06190147
0.05913121
0.0557124
0.0551427
0.05550852
0.05462879
0.05279521
0.05007296
0.04689918
0.04402599
0.04088025
0.03781799
0.03730038
0.03922943
0.04194758
0.04364671
0.04367264
0.04714588
0.04467782
0.04036367
0.08087038
0.06834867
0.0636686
0.06571102
0.06062508
0.06152355
0.05926496
0.05592277
0.05329587
0.05237059
0.05145462
0.05044881
0.04922593
0.04760356
0.04603798
0.04505936
0.04346775
0.0418381
0.04017093
0.03988232
0.04022597
0.04363382
0.04218053
0.03993637
0.07692914
0.06256136
0.06269267
0.06270341
0.05800121
0.05779488
0.05513463
0.05230363
0.0501164
0.04970213
0.04918068
0.04841434
0.04874375
0.04880611
0.0486851
0.04806837
0.04677879
0.04602844
0.04515221
0.04228904
0.04120676
0.0476148
0.0726813
0.05665696
0.06029942
0.05628959
0.05558942
0.05582285
0.04966785
0.04969942
0.04865764
0.04860475
0.04908978
0.04971211
0.05014525
0.05059005
0.05306654
0.05082576
0.04637595
0.04342839
0.04605504
0.05512497
0.06932814
0.05283328
0.05449384
0.05339919
0.05360463
0.0497248
0.04918109
0.04837589
0.04875523
0.04966083
0.05062167
0.05109914
0.04810389
0.05058834
0.05244638
0.05109961
0.05573946
0.05769898
0.06212904
0.05061625
0.04610783
0.04845286
0.04515475
0.04759836
0.04771665
0.04864853
0.04999754
0.05117842
0.05493289
0.05443347
0.05619313
0.06124022
0.04812916
0.0481532
0.04818977
0.04968703
0.05190485
0.05426357
0.08495693
0.07811384
0.07671072
0.08035833
0.08072565
0.08063566
0.08003602
0.07714835
0.07696176
0.09058813
0.07830597
0.07414803
0.0811239
0.07625921
0.07201404
0.07247005
0.07878318
0.08026842
0.08092913
0.08121881
0.08591352
0.08586794
0.0739364
0.06964726
0.06980145
0.07587231
0.0773007
0.06777711
0.06686577
0.07307838
0.0749971
0.07761279
0.07666578
0.07824679
0.0800472
0.08151307
0.08257841
0.08141343
0.08125342
0.0783412
0.07440391
0.07593717
0.07704842
0.07984396
0.06989932
0.06668927
0.06520222
0.06936397
0.06848917
0.06929347
0.07023762
0.07098605
0.0724339
0.07411871
0.07639681
0.07876451
0.08080754
0.08182074
0.08138834
0.07941626
0.07578334
0.07222843
0.06992739
0.06864618
0.06756139
0.06871188
0.06839109
0.05719559
0.0606719
0.06325142
0.06282983
0.06277405
0.06319377
0.06358749
0.06363089
0.06412408
0.06555782
0.06799507
0.07093085
0.07389229
0.07620171
0.07726979
0.07712184
0.07490078
0.07126564
0.06809084
0.06734806
0.06309105
0.05718323
0.06513079
0.06571706
0.05488248
0.05798387
0.06011913
0.05888099
0.05717528
0.05611264
0.05490584
0.05413873
0.05359245
0.05366593
0.05483283
0.05727137
0.06048998
0.06404816
0.0673367
0.06949803
0.07047754
0.06978508
0.06764838
0.06554328
0.06497169
0.06386723
0.05882009
0.05177394
0.05791485
0.06262224
0.05228119
0.05565112
0.05737398
0.05534678
0.05355601
0.05076918
0.04837352
0.04867449
0.04900059
0.04897675
0.04893522
0.04859149
0.04804217
0.048108
0.05080814
0.05485723
0.05805787
0.0602867
0.06120644
0.06181713
0.0620615
0.06171118
0.05984435
0.05843315
0.05284439
0.04481509
0.04909231
0.05856798
0.0490106
0.05239048
0.05397336
0.05153852
0.04901848
0.04676178
0.04746763
0.04787519
0.04756432
0.04722255
0.04716716
0.04749467
0.04868657
0.0503192
0.05112591
0.05097147
0.04982694
0.04878953
0.0521726
0.05486437
0.05664991
0.05696577
0.05611633
0.05435523
0.05241801
0.05042768
0.04454674
0.03645574
0.03658385
0.04158345
0.04822491
0.04939824
0.04710281
0.0445327
0.04373281
0.04455417
0.04346521
0.04118698
0.04089601
0.04432807
0.04895307
0.05324565
0.05666102
0.05909205
0.06053978
0.06105541
0.06064094
0.05904707
0.05632606
0.05243159
0.05136501
0.05180091
0.05061008
0.04830393
0.04569843
0.04240365
0.0395658
0.0342305
0.03175108
0.04943244
0.04497696
0.04499426
0.04278459
0.04008023
0.03909007
0.0399215
0.03799837
0.03643685
0.03798756
0.041397
0.04638034
0.05232873
0.05820238
0.06315281
0.06673039
0.06883002
0.0696892
0.06961573
0.06856745
0.06645013
0.0630878
0.05902072
0.05461249
0.05086479
0.04784162
0.04551862
0.04316492
0.0390394
0.03447669
0.02910681
0.02870266
0.04916997
0.04339644
0.04268626
0.03935059
0.03728967
0.03425605
0.03533993
0.03611899
0.03569668
0.03498815
0.03539117
0.04020811
0.04502928
0.04978896
0.05782643
0.06520319
0.07075822
0.07409179
0.07558135
0.07588759
0.07533883
0.07384741
0.071189
0.06753569
0.06312664
0.05877992
0.05482992
0.05100469
0.04649796
0.04152395
0.0363001
0.03182697
0.02520933
0.02505923
0.0435645
0.04213033
0.04169477
0.04215257
0.03905447
0.03703569
0.03827436
0.03721115
0.03424866
0.03255543
0.03660789
0.04143372
0.04383186
0.04498014
0.0485579
0.05606215
0.06556392
0.07157319
0.07492685
0.07662643
0.07723916
0.07684466
0.07527826
0.07249713
0.0687594
0.06475768
0.06083277
0.05676808
0.05173466
0.04605534
0.04067026
0.03520907
0.0293396
0.02857174
0.04441101
0.04588628
0.04605263
0.04483575
0.04082949
0.04034246
0.04005555
0.03671532
0.03059184
0.0335977
0.03971211
0.04142564
0.04084491
0.03925065
0.03707541
0.0386863
0.04693383
0.05792397
0.06448226
0.06883621
0.07160354
0.07308547
0.07321174
0.07203284
0.06996612
0.06773626
0.06562387
0.06325625
0.05995983
0.05589352
0.05150009
0.04699451
0.04246398
0.04241161
0.05048814
0.04528717
0.04939421
0.04968159
0.04770229
0.04273161
0.04243306
0.04088589
0.03554711
0.02895253
0.03481194
0.03671896
0.04076675
0.0464046
0.04844222
0.04647675
0.03869986