/*--------------------------------*- C++ -*----------------------------------*\
  =========                 |
  \\      /  F ield         | OpenFOAM: The Open Source CFD Toolbox
   \\    /   O peration     | Website:  https://openfoam.org
    \\  /    A nd           | Version:  6
     \\/     M anipulation  |
\*---------------------------------------------------------------------------*/
FoamFile
{
    version     2.0;
    format      ascii;
    class       volScalarField;
    location    "50";
    object      Co;
}
// * * * * * * * * * * * * * * * * * * * * * * * * * * * * * * * * * * * * * //

dimensions      [0 0 0 0 0 0 0];

internalField   nonuniform List<scalar> 
140018
(
0.06877164
0.06403935
0.06379209
0.06428923
0.06612218
0.04991822
0.05656922
0.06044586
0.06061265
0.06003531
0.06633648
0.05978851
0.03495206
0.04156499
0.04066836
0.03676528
0.04545142
0.05116178
0.05423525
0.05497237
0.05349462
0.05141096
0.05832798
0.04984686
0.03239585
0.0303979
0.02877119
0.02769953
0.02482481
0.02818217
0.0386164
0.04332109
0.04476598
0.04397603
0.04196899
0.03980923
0.03645931
0.03234471
0.02855377
0.03110022
0.02978548
0.02601456
0.01804397
0.00986822
0.01389112
0.02211828
0.02541514
0.0261583
0.02566789
0.02513751
0.02464182
0.02607791
0.03735397
0.04072833
0.0444172
0.04590518
0.04582599
0.04327558
0.03656439
0.02697544
0.0231917
0.02280345
0.02239859
0.02050704
0.01630434
0.01317447
0.01492893
0.02845124
0.04081279
0.04675842
0.05020588
0.05316041
0.05446565
0.05373234
0.05034042
0.0439837
0.03546796
0.03056381
0.02567491
0.02004692
0.01351642
0.01288818
0.01940958
0.02809044
0.02772892
0.03752465
0.04586519
0.05122314
0.05482168
0.05640193
0.05595893
0.0532037
0.04871404
0.04293143
0.03663202
0.03074872
0.02628945
0.02331166
0.02232393
0.02343828
0.027997
0.03974725
0.0246399
0.03538209
0.04436793
0.05168748
0.05625699
0.05833633
0.05826216
0.05650486
0.05372846
0.05019769
0.04652638
0.04342159
0.04125177
0.0398679
0.03954455
0.04003448
0.04089269
0.04841334
0.01547524
0.02945574
0.04155076
0.05112425
0.05705199
0.05990689
0.06037587
0.05953164
0.05794367
0.05599495
0.05392458
0.05243261
0.05132046
0.0508385
0.05093198
0.0514673
0.0575173
0.06706244
0.01153431
0.0152046
0.03402318
0.04702657
0.055237
0.05950461
0.06090516
0.06082917
0.06000983
0.05898006
0.05806825
0.05748975
0.05697692
0.05698556
0.05708935
0.06086058
0.06554789
0.08503273
0.02515692
0.02548167
0.03592879
0.04867554
0.05586255
0.05898254
0.05993792
0.06004813
0.05989538
0.05965521
0.05934383
0.05927041
0.05946241
0.06128373
0.06700984
0.07340154
0.05044122
0.0370491
0.0353898
0.03950218
0.04763044
0.0539758
0.0566805
0.05788535
0.05847758
0.05877932
0.05894275
0.05918987
0.05983853
0.06354351
0.06802952
0.08752283
0.0494837
0.04532438
0.04086188
0.04031251
0.04505629
0.0508212
0.0538017
0.05542841
0.05636844
0.05691925
0.0574284
0.05978332
0.06473343
0.0697211
0.07141076
0.0527122
0.0475453
0.04087158
0.03860043
0.04195961
0.04758637
0.05056324
0.05232246
0.05401599
0.05698923
0.06069928
0.06400849
0.08065319
0.0643244
0.05495483
0.04669877
0.04108217
0.036461
0.03890284
0.04473295
0.04913441
0.05339916
0.05586712
0.06097966
0.07296196
0.05711487
0.04780978
0.04002362
0.03796931
0.0413037
0.04617069
0.05224436
0.06367265
0.05259831
0.0451179
0.04376709
0.05110476
0.02880537
0.02874167
0.0315229
0.03468355
0.03855211
0.04349048
0.04977376
0.05706556
0.06507055
0.07934438
0.02327691
0.02101023
0.02527401
0.02985594
0.03348297
0.03658558
0.03904866
0.04127629
0.04429382
0.04871504
0.05388933
0.06292879
0.0755843
0.08110456
0.02554007
0.02441673
0.0295209
0.03294436
0.03798128
0.04079389
0.04710493
0.04858016
0.04944626
0.04826995
0.05135962
0.05352209
0.05594191
0.05924581
0.0658148
0.0762779
0.03027362
0.02850432
0.03301709
0.03737301
0.0401365
0.04238789
0.05034854
0.05356198
0.05595241
0.05611458
0.05350389
0.05842422
0.05582667
0.05804116
0.05894644
0.05965235
0.0623635
0.06885427
0.0274006
0.02759384
0.03322438
0.03844089
0.04030083
0.04523322
0.04630229
0.04988029
0.0517798
0.05649271
0.05788298
0.05895875
0.06221079
0.05565643
0.0610302
0.05791948
0.05873699
0.05817974
0.05669509
0.05908075
0.02240467
0.02302467
0.02970506
0.03407156
0.03690668
0.03631913
0.04225926
0.04073696
0.03691103
0.04129832
0.04874499
0.05368234
0.05639726
0.05641464
0.05638793
0.05957144
0.05303419
0.05509164
0.05480889
0.05414677
0.05208964
0.05851343
0.02037077
0.02417011
0.02850253
0.02856785
0.02946832
0.03288094
0.03175135
0.02932504
0.02636303
0.02536641
0.03474043
0.04181282
0.04589592
0.04784167
0.04908884
0.04914167
0.04871434
0.04512093
0.04736982
0.04866796
0.04990408
0.06172384
0.02557233
0.01778217
0.02242535
0.02255921
0.0251152
0.02908972
0.033485
0.03510845
0.03354942
0.02825474
0.01826669
0.01408815
0.02059569
0.02697471
0.03078989
0.03361126
0.03552295
0.03700043
0.03880608
0.03968446
0.04107274
0.04566971
0.0557884
0.07268739
0.02174848
0.0167031
0.018172
0.02156559
0.03034319
0.03894157
0.04747327
0.05128326
0.05242545
0.05080438
0.04594799
0.03612879
0.02990686
0.02481011
0.02384376
0.02219356
0.02020681
0.02136487
0.02618383
0.03251863
0.0402995
0.04681509
0.05359653
0.06496927
0.02297472
0.01439771
0.01488021
0.02365832
0.03542959
0.04624329
0.05356357
0.05808789
0.060201
0.06000619
0.05724457
0.05175745
0.04394747
0.03554549
0.03080541
0.02538413
0.01955483
0.01878711
0.02314211
0.03131551
0.03571267
0.03579943
0.03897359
0.03950806
0.02760591
0.01350481
0.01092747
0.01946747
0.03290708
0.04596031
0.05432578
0.0595077
0.06197637
0.06210603
0.06008263
0.0562516
0.05100751
0.04510022
0.03923677
0.03433108
0.03099105
0.02956232
0.02948505
0.02864016
0.02741935
0.02673382
0.02845445
0.02742145
0.03581718
0.01985798
0.01107481
0.01171281
0.02801517
0.04265798
0.05325588
0.05979941
0.06301379
0.06366224
0.06250553
0.06008561
0.05690801
0.05348982
0.05044746
0.04815644
0.04678033
0.04626628
0.0459408
0.0447087
0.04674111
0.04897186
0.05103369
0.05554221
0.04586789
0.03193491
0.02316453
0.01310435
0.01970486
0.03503527
0.04949952
0.05850704
0.06317755
0.06479274
0.06461021
0.06340689
0.0617185
0.05988519
0.05839605
0.05724229
0.05658204
0.05600646
0.05483363
0.05861819
0.06382257
0.06379093
0.06531792
0.07064584
0.0553992
0.04262405
0.03355411
0.02483719
0.01750693
0.02694685
0.03970681
0.05332753
0.06068623
0.06396108
0.06490397
0.06468922
0.06400548
0.06323479
0.06255917
0.0619568
0.06142292
0.06016963
0.06321457
0.06644808
0.07551972
0.06891103
0.07111826
0.07731013
0.06354554
0.0509862
0.04312923
0.0385984
0.02723827
0.0315259
0.03597636
0.04333062
0.05378156
0.06004414
0.06276054
0.06378166
0.06401671
0.06393155
0.06370404
0.06339744
0.06267811
0.06334427
0.06807222
0.07251756
0.07892972
0.06866386
0.07205103
0.07887762
0.07089287
0.05767877
0.05102637
0.04678608
0.04323246
0.03725904
0.04115105
0.04330919
0.04549366
0.05196572
0.05771998
0.06046306
0.06173244
0.06234159
0.06254997
0.06237523
0.06171769
0.06504379
0.06773169
0.07642005
0.07056531
0.06967931
0.07169902
0.07880312
0.08496826
0.06820412
0.05615994
0.05138244
0.05352354
0.0468493
0.04605221
0.04719762
0.04599576
0.04491672
0.04922181
0.0548285
0.0575276
0.05885863
0.05933518
0.05914835
0.06064505
0.06470378
0.06876082
0.07513557
0.06544581
0.0673498
0.06838882
0.08616945
0.08056827
0.05967239
0.05457482
0.05160178
0.0590935
0.05125333
0.04946647
0.04721116
0.0443606
0.04239521
0.04630305
0.05106589
0.0531467
0.05434886
0.05633984
0.05951074
0.06157294
0.06859058
0.06451746
0.06416258
0.06585136
0.06819899
0.09012845
0.07008108
0.05712338
0.05357344
0.06007169
0.05668196
0.05498469
0.04733968
0.0453276
0.04047558
0.03868508
0.0424815
0.04678878
0.05082838
0.05316773
0.05756509
0.06185547
0.06396258
0.0575895
0.06135331
0.06292022
0.07834614
0.08943997
0.06651818
0.05765372
0.053925
0.05710898
0.05597892
0.051838
0.04756707
0.04108444
0.03765675
0.03649505
0.04147854
0.04684533
0.05372296
0.05675206
0.05352893
0.05209936
0.05603691
0.05718959
0.06298579
0.08643224
0.06549907
0.0571945
0.0543416
0.05015676
0.05132083
0.05042547
0.04667642
0.04159613
0.0373746
0.04081821
0.0455014
0.0440345
0.04460557
0.0478156
0.05001393
0.05147117
0.05651236
0.08241482
0.06347483
0.05501188
0.05166082
0.04897125
0.04478431
0.04453384
0.04225431
0.03972397
0.03506416
0.03411094
0.03815568
0.04103713
0.04438321
0.04661359
0.05099979
0.07958657
0.05829527
0.05488911
0.04937014
0.04692743
0.04550048
0.04435662
0.04259072
0.04007419
0.03707548
0.03633817
0.03846435
0.04328732
0.05366531
0.06655877
0.05125085
0.04899131
0.04839031
0.04854223
0.04838316
0.04783655
0.04677969
0.04590268
0.05074109
0.07966908
0.0745609
0.07562526
0.07771168
0.08006995
0.08212319
0.08451284
0.09932538
0.06927313
0.06520921
0.06693959
0.0622936
0.05990402
0.06113712
0.06323191
0.0658431
0.06860417
0.07149309
0.07607367
0.07793885
0.07804903
0.09001861
0.06122865
0.05281521
0.04781969
0.04664448
0.04865512
0.04899544
0.05044211
0.0528364
0.05589988
0.05916795
0.06182537
0.06341444
0.06249005
0.06468707
0.0747786
0.0906382
0.05898998
0.05278149
0.04262065
0.03860898
0.03617725
0.03253536
0.03471478
0.03563633
0.0374814
0.04039349
0.04412982
0.04909633
0.05494454
0.06002995
0.06512227
0.06869211
0.0659156
0.07067608
0.0815526
0.08272014
0.05293609
0.0412967
0.03253032
0.02808786
0.0238473
0.02270255
0.02580828
0.03041558
0.03339592
0.03587915
0.03832643
0.0411337
0.04447651
0.0485089
0.05399781
0.06149961
0.0668488
0.06388851
0.06275721
0.06409933
0.06614339
0.07445822
0.04844929
0.03539767
0.0263289
0.02389259
0.02204444
0.02313189
0.02836305
0.03324263
0.03849724
0.04229917
0.04505138
0.04717395
0.0489959
0.05095452
0.05330837
0.05528702
0.05662856
0.05903014
0.06436287
0.06384442
0.06037268
0.05894425
0.05763906
0.05829815
0.03064781
0.02489778
0.02398451
0.02158918
0.02117258
0.02746761
0.0333248
0.03789289
0.04309182
0.04932309
0.05341567
0.05551402
0.05709024
0.05892614
0.05973695
0.06026317
0.06109303
0.06122173
0.0609081
0.06211254
0.0601146
0.05560029
0.05262117
0.0547526
0.03799863
0.02792501
0.02646198
0.02203705
0.01949792
0.02630878
0.03296384
0.0379278
0.04072287
0.04326672
0.04670322
0.0542438
0.05888469
0.06191509
0.06375367
0.06354016
0.06418516
0.06408956
0.06351247
0.06323135
0.06174517
0.05999309
0.05672882
0.05154023
0.04626748
0.04844922
0.04395485
0.03400457
0.0295923
0.02420961
0.01777604
0.02433098
0.03243531
0.03744611
0.03996663
0.04074863
0.03894771
0.03698612
0.04272995
0.05216482
0.0583691
0.0617688
0.06300905
0.06362888
0.06320112
0.06339042
0.06273884
0.06164052
0.05972092
0.05678306
0.05223762
0.04911581
0.04709103
0.05074072
0.04244445
0.03374324
0.03095917
0.02089125
0.02013087
0.02894427
0.03316303
0.03498504
0.03527853
0.03410062
0.03168912
0.02864665
0.02755804
0.0361866
0.04532671
0.05086778
0.05427134
0.05645994
0.05749965
0.05791456
0.05765083
0.0573324
0.05679655
0.05685177
0.05948687
0.05423514
0.05358979
0.06033164
0.04136028
0.0346973
0.02962123
0.01809489
0.02330812
0.02827494
0.0287072
0.03004466
0.03505078
0.03899304
0.0391142
0.03540064
0.02653505
0.01925039
0.02304095
0.03163358
0.03713467
0.041135
0.04400142
0.04593973
0.04744307
0.04883361
0.05163855
0.05526965
0.06042707
0.0607994
0.0630226
0.07542659
0.0579443
0.04254875
0.03698336
0.02879204
0.01956235
0.0231537
0.02356243
0.02835746
0.04031327
0.04979066
0.05542949
0.05777208
0.05710589
0.0532296
0.04436178
0.03580683
0.03004918
0.02707139
0.02565359
0.02648447
0.03055831
0.03576662
0.04149451
0.04974847
0.05590677
0.05992929
0.0605212
0.0566814
0.0622163
0.06531148
0.05502284
0.04663456
0.03940697
0.03079524
0.02147466
0.02047518
0.02204396
0.03212867
0.04614088
0.05606521
0.06215762
0.06517651
0.06560522
0.0634803
0.05863527
0.05139504
0.04283193
0.03653013
0.03130871
0.02576717
0.02566709
0.03118874
0.03574842
0.04041166
0.04286932
0.04153546
0.03437946
0.0234801
0.02131337
0.0197106
0.05748303
0.04933416
0.04327389
0.03523935
0.02542413
0.0210178
0.01848692
0.03009041
0.04573688
0.05672688
0.06348486
0.06686362
0.06758044
0.06607921
0.06270861
0.0578654
0.05221955
0.04636546
0.04108201
0.03705472
0.03464423
0.03316068
0.03231555
0.03121255
0.03107744
0.02959675
0.02540446
0.02029658
0.02104378
0.03049773
0.06139347
0.0531919
0.04823664
0.04173933
0.0314248
0.02789272
0.02084396
0.02431986
0.04099469
0.0545771
0.06300509
0.06737365
0.06873855
0.06802158
0.06591761
0.06294791
0.05961279
0.05637944
0.05362928
0.05155064
0.05010758
0.04889532
0.04729572
0.04586039
0.04696478
0.04720224
0.04878828
0.0439658
0.03895164
0.04608809
0.06543057
0.0574348
0.05365394
0.04909273
0.03876326
0.03603786
0.03183096
0.02255656
0.03242275
0.04821141
0.05992008
0.0663265
0.06899429
0.06933101
0.06838703
0.0668051
0.06497479
0.06319685
0.06158384
0.06017537
0.05870022
0.05663112
0.0564203
0.05965338
0.06216326
0.06318387
0.0636753
0.05824219
0.05192055
0.05357551
0.06928262
0.06154869
0.05876391
0.05605961
0.04769302
0.04266686
0.04081198
0.031335
0.03118254
0.03919988
0.05146263
0.06176011
0.06678743
0.06862386
0.06881208
0.06826746
0.06743689
0.06647665
0.06539637
0.06408317
0.06208243
0.06192657
0.0664976
0.06939299
0.07079661
0.07077433
0.07050509
0.06477804
0.05922149
0.05815646
0.07296987
0.06536399
0.06299051
0.06173032
0.05479938
0.04868392
0.04653578
0.04046676
0.03661722
0.04140453
0.04411222
0.05131568
0.06072157
0.06511454
0.06687293
0.0673836
0.06734994
0.0669636
0.06620764
0.0648241
0.0634807
0.06708289
0.07100561
0.07291787
0.07310968
0.07269159
0.07220923
0.06643074
0.06248636
0.06236341
0.08347191
0.07237179
0.0664803
0.06560633
0.06022667
0.05498962
0.05143633
0.04676006
0.04082644
0.04632306
0.0494501
0.04813216
0.05071426
0.05804933
0.06231794
0.06422429
0.06507171
0.06525771
0.06478388
0.06335148
0.06409455
0.06835298
0.07114046
0.07233015
0.07171711
0.07172923
0.07157182
0.06598032
0.06086019
0.07266791
0.08087575
0.06619651
0.06656945
0.06642739
0.05989033
0.05606448
0.05092357
0.04711749
0.04896162
0.05289763
0.05326992
0.04961041
0.04937751
0.05486149
0.05886841
0.06079517
0.06156683
0.06136954
0.06112427
0.06312104
0.0668512
0.06902482
0.06957841
0.06939074
0.06795946
0.07362511
0.0632336
0.06136587
0.07995841
0.06735971
0.06803211
0.06999148
0.06293149
0.05869424
0.05492434
0.05209772
0.05241654
0.05357278
0.05459856
0.05297979
0.04780963
0.04661681
0.05108889
0.05441004
0.05580631
0.05665716
0.05818437
0.0606061
0.06348354
0.06528397
0.06569486
0.06660627
0.06724633
0.07188666
0.06131326
0.06593904
0.0881512
0.07441997
0.06635164
0.06978285
0.06708338
0.06083649
0.05755739
0.05662224
0.05486965
0.05461812
0.05333234
0.05295063
0.04980131
0.04414277
0.04237941
0.04585521
0.04962057
0.05238715
0.05433737
0.05670257
0.05917435
0.06075399
0.06197823
0.06202912
0.06742395
0.06191554
0.06001973
0.07136408
0.09081835
0.07042391
0.06621883
0.071232
0.06444411
0.05977239
0.05836969
0.05616188
0.05544967
0.05385474
0.05165475
0.04896444
0.04544193
0.03885211
0.03868929
0.04375932
0.0473284
0.04979492
0.05201065
0.05408668
0.05600357
0.05661284
0.06210053
0.06305957
0.05356335
0.05924058
0.08190752
0.06229742
0.06536348
0.07013408
0.06197916
0.05936584
0.05665633
0.05494562
0.05369826
0.05197
0.04927011
0.04607895
0.04184686
0.03679546
0.03702661
0.04159052
0.04427384
0.04669898
0.04924503
0.05057215
0.05598412
0.05756354
0.05218775
0.05326341
0.08879752
0.06893186
0.05911532
0.06573225
0.06726616
0.05862382
0.05714112
0.05406346
0.05268054
0.05127645
0.04918451
0.04676147
0.04364247
0.03977491
0.03525994
0.03490437
0.039085
0.04248912
0.04454528
0.04984907
0.05191104
0.04746188
0.04857937
0.05789138
0.08686408
0.06675311
0.05883835
0.06442863
0.05990622
0.06061317
0.05243231
0.0511905
0.04993113
0.0483545
0.04653722
0.04431257
0.04209157
0.03993259
0.03743231
0.03662902
0.03863063
0.0447107
0.04636092
0.04287375
0.04431909
0.04740474
0.08602207
0.06280167
0.05956463
0.0606475
0.05865793
0.05323404
0.05106532
0.0485672
0.04744058
0.04715149
0.04700807
0.04661401
0.04555995
0.04363069
0.04165254
0.03944479
0.03674035
0.0372452
0.0418214
0.05137368
0.07452308
0.06024112
0.05240061
0.05317449
0.04993239
0.04780624
0.04713363
0.04719146
0.04743072
0.0474862
0.04708297
0.04633893
0.04347534
0.04187637
0.04436703
0.05268668
0.07188367
0.05558859
0.05299473
0.0494024
0.04820214
0.0472691
0.04747331
0.04813698
0.04868323
0.04912168
0.05048601
0.05544747
0.05320568
0.0570744
0.05724735
0.04971664
0.04894424
0.04987294
0.05141883
0.05276835
0.05414765
0.05737523
0.09213904
0.0860834
0.08614098
0.0868966
0.088956
0.1017885
0.0828821
0.07654958
0.0756056
0.08089186
0.07990249
0.07757491
0.07855308
0.07981257
0.0812456
0.07863985
0.07441025
0.07633479
0.07995849
0.09043659
0.07509612
0.0733224
0.06737352
0.0691317
0.06661843
0.06666289
0.07231657
0.07413599
0.07588499
0.0776421
0.07906304
0.07991463
0.08546271
0.08509112
0.07432511
0.0729634
0.07738098
0.0820511
0.07363629
0.06251859
0.05816791
0.05963563
0.06438852
0.06660434
0.06497197
0.0640394
0.06532286
0.06731958
0.06971317
0.07215886
0.07429374
0.07369391
0.07343784
0.07240473
0.07345625
0.0710741
0.06969103
0.08259714
0.06919464
0.05895773
0.05712779
0.05627585
0.05749917
0.05513868
0.05447572
0.05414813
0.05415401
0.05538711
0.05759721
0.06042152
0.06353351
0.06647868
0.06857927
0.06906146
0.06877214
0.0714338
0.07150711
0.06893142
0.06808349
0.07698466
0.06516051
0.05327235
0.05231092
0.05572705
0.05157927
0.04687735
0.04512086
0.0440065
0.04374289
0.04392393
0.04452777
0.04553759
0.04740923
0.05103987
0.05476258
0.05834786
0.06153665
0.06459536
0.06761105
0.0707321
0.07163317
0.06409324
0.06023453
0.06924018
0.06076104
0.0490151
0.04863203
0.04779043
0.04279299
0.04014434
0.03828202
0.03710465
0.0365054
0.0374062
0.03974419
0.04218656
0.04427953
0.04608323
0.04749807
0.04881295
0.05177017
0.05685787
0.0602912
0.06302459
0.06479658
0.06436704
0.06364086
0.05890241
0.05232001
0.05851499
0.05628177
0.04188748
0.04074999
0.04148326
0.03616631
0.03330639
0.03043322
0.03033354
0.0341972
0.0386193
0.04333189
0.04745077
0.05063378
0.05304375
0.05488904
0.05636069
0.0574941
0.05786181
0.05690092
0.05592636
0.05830708
0.05957667
0.05915211
0.05712503
0.05468157
0.0462411
0.0414753
0.04296658
0.05211997
0.03965853
0.03738027
0.03541308
0.03012066
0.02791339
0.0282198
0.02922494
0.03147646
0.03518979
0.04025639
0.046288
0.0521788
0.05696718
0.06059979
0.06290669
0.06421546
0.06488158
0.06506956
0.06451906
0.06293441
0.06063271
0.0579325
0.05595479
0.05374639
0.05087616
0.05055158
0.04243691
0.0353966
0.0342088
0.03845062
0.04049297
0.03761453
0.03159415
0.0298299
0.02905119
0.02825545
0.02768709
0.03308282
0.03799957
0.04189875
0.0448071
0.05077804
0.05827402
0.06418854
0.06780673
0.06948664
0.06994986
0.07004609
0.06951537
0.06816147
0.06612183
0.06325508
0.06008401
0.05705827
0.05305572
0.04694298
0.04139235
0.034049
0.03510864
0.04655467
0.04026419
0.04097198
0.03655653
0.03274725
0.03057119
0.02884306
0.02571642
0.0298791
0.03704264
0.04112532
0.04231426
0.04124516
0.04240009
0.04889321
0.05847931
0.06459172
0.06804684
0.06974477
0.07052971
0.07049781
0.06977887
0.06813659
0.0656968
0.06284301
0.05987107
0.05666501
0.05192626
0.04619547
0.03936215
0.03601129
0.03808331
0.04718799
0.04520935
0.04315813
0.03873268
0.03393235
0.03092323
0.02699645
0.02658153
0.03469801
0.03824185
0.03888882
0.03771113
0.03548906
0.03266086
0.03266371
0.04099494
0.05106299
0.05720627
0.0612157
0.06380879
0.06525047
0.06561542
0.06498703
0.06384178
0.06272619
0.06194904
0.06113451
0.05922847
0.05681737
0.05373553
0.04956958
0.04849337
0.04671943
0.05061252
0.04569346
0.03996756
0.03430529
0.03045572
0.02474906
0.0297298
0.03314763
0.03343972
0.03689601
0.04187781
0.04315747
0.04049559
0.03233426
0.02454497
0.02779934
0.03780809
0.04429853
0.04895995
0.05237022
0.05460042
0.05620314
0.05780761
0.06018829
0.06330012
0.06610451
0.06827634
0.06854017
0.06722921
0.05791826
0.05849904
0.04941848
0.05219775
0.04570886
0.04188801
0.03522193
0.03117476
0.024391
0.02799914
0.031702
0.04091872
0.05162775
0.0585024
0.06187677
0.06205409
0.0589508
0.05072799
0.04097302
0.03500737
0.03097609
0.03110646
0.03455064
0.03989549
0.04539077
0.05113995
0.05723065
0.06379676
0.0673698
0.06614562
0.06438452
0.06114195
0.05130615
0.05341773
0.06443456
0.05216268
0.05401089
0.05006112
0.04449492
0.03708668
0.03305978
0.02671151
0.0240041
0.03150673
0.0464857
0.05795032
0.06535048
0.06930064
0.07039968
0.06886276
0.0645161
0.05765842
0.049123
0.04191244
0.03675526
0.03142528
0.03242136
0.03903184
0.04405242
0.0473412
0.04982518
0.04806922
0.03971577
0.03470049
0.03251378
0.02671463
0.02674124
0.03419402
0.06193223
0.0577288
0.05673148
0.05326878
0.04817505
0.04008047
0.03639193
0.03196807
0.0253102
0.02949994
0.04570505
0.05849435
0.06670689
0.07109698
0.07249031
0.07148893
0.06848835
0.06391007
0.05835605
0.05241268
0.04673695
0.04202882
0.03864418
0.03609164
0.03426745
0.03259002
0.03086198
0.02712008
0.01930271
0.01402689
0.01942954
0.02829463
0.03250141
0.03751435
0.06380501
0.06003954
0.06003579
0.05702412
0.05276119
0.04493611
0.04047018
0.03891848
0.03389821
0.02670123
0.03936543
0.05541828
0.06562945
0.07126648
0.0734691
0.07327194
0.07147323
0.06864375
0.06528309
0.06181807
0.05861119
0.05587743
0.05364047
0.05169609
0.04974845
0.04771218
0.04504107
0.04117913
0.03802301
0.03456034
0.03849229
0.04369981
0.04453501
0.04662125
0.06685789
0.06288521
0.06340781
0.06098473
0.05773021
0.05136535
0.04420833
0.04527418
0.04337598
0.03341742
0.03361181
0.04667374
0.06102839
0.06917479
0.07300905
0.07402885
0.07342993
0.07195751
0.07005167
0.06798597
0.06592546
0.06392152
0.06186243
0.05952844
0.05683707
0.0562548
0.05715222
0.05795833
0.05694193
0.05211511
0.0481308
0.05072323
0.04977092
0.05133489
0.07025079
0.06584404
0.06644934
0.06470362
0.06242774
0.05750978
0.04928107
0.04960001
0.04997899
0.04407372
0.03659261
0.04017981
0.04977989
0.06271417
0.06948692
0.07238636
0.07312723
0.07278841
0.07190594
0.07068836
0.0692001
0.06739051
0.06508452
0.06247945
0.06404046
0.06704161
0.06862146
0.06864578
0.0670845
0.06205865
0.05471407
0.05221768
0.05082827
0.05295286
0.07820241
0.07068757
0.0685668
0.06781932
0.0663606
0.06266864
0.05602292
0.05174718
0.05352813
0.05079165
0.0427506
0.04654407
0.04867481
0.05296042
0.06128427
0.06743548
0.07014465
0.07110915
0.07118498
0.07066314
0.06959796
0.06789345
0.06540435
0.06538738
0.06912934
0.07152498
0.07248236
0.07222019
0.07065158
0.06600377
0.05938156
0.05312405
0.05243207
0.05973332
0.0749429
0.0663675
0.0709645
0.06956723
0.06656566
0.06127217
0.05539546
0.05419773
0.05354555
0.04817805
0.05133209
0.05469216
0.05477682
0.05399128
0.05820495
0.0641585
0.06697742
0.0682285
0.06849023
0.0679163
0.06645393
0.06456924
0.0659245
0.06917667
0.07112822
0.07179438
0.07171075
0.0704311
0.06661838
0.05979059
0.05997234
0.05205415
0.07267864
0.06806034
0.07459989
0.07153033
0.06876747
0.0651271
0.06009528
0.05512776
0.05290047
0.05024643
0.05394599
0.05781843
0.05920094
0.05713064
0.05302579
0.05470432
0.06034922
0.06317794
0.06441009
0.06448646
0.06355704
0.06272533
0.0636947
0.06666545
0.06846619
0.06940012
0.0698116
0.06886718
0.06583845
0.06057818
0.06191623
0.05015927
0.07565128
0.07251413
0.073472
0.07219658
0.0702229
0.06743763
0.0628609
0.05821178
0.05323312
0.05157692
0.05502563
0.05864244
0.06053228
0.06005151
0.05630072
0.05065455
0.05102856
0.05603365
0.05849936
0.05941367
0.05935099
0.05967336
0.06057068
0.06280907
0.06479635
0.06635058
0.06730291
0.06659658
0.06406247
0.06052177
0.05654338
0.05552194
0.08424287
0.07214879
0.06858788
0.07292123
0.07100276
0.06795854
0.06429794
0.0598468
0.05616796
0.05453078
0.05573784
0.0585221
0.06003562
0.06031158
0.05826513
0.05344404
0.04717887
0.04686397
0.05101922
0.05315404
0.05433272
0.05569498
0.05678353
0.05837375
0.06078152
0.06274784
0.06382893
0.06331393
0.05990858
0.0610725
0.04999719
0.06054082
0.07868246
0.06510997
0.07175582
0.07256949
0.06809659
0.06438684
0.06119646
0.05915158
0.05713676
0.05662049
0.05821279
0.05923297
0.05941545
0.05810891
0.05501113
0.04932867
0.04303866
0.04278183
0.04675951
0.04913162
0.05099828
0.05227576
0.05393465
0.05665208
0.05862019
0.05964281
0.0576279
0.06036937
0.05806066
0.04787756
0.08286578
0.0705483
0.06883293
0.0730707
0.06770764
0.06364633
0.0627572
0.06158113
0.05925947
0.05693502
0.05748138
0.05851807
0.0585214
0.05742682
0.05507649
0.05090541
0.04521073
0.03991253
0.03984118
0.04314891
0.04570681
0.04733549
0.0497829
0.05231733
0.05399795
0.05465548
0.05504886
0.05734446
0.04695771
0.05516923
0.08624067
0.07066378
0.07023969
0.06823976
0.06306313
0.06377585
0.06301098
0.0608464
0.05764476
0.05636716
0.0573162
0.05737497
0.05641857
0.05437859
0.05107243
0.04670285
0.04181534
0.0369891
0.03694851
0.04016244
0.04294248
0.0458208
0.04798445
0.04912905
0.04858296
0.05099537
0.04574491
0.04729031
0.08353258
0.06962837
0.07012091
0.06365196
0.06333309
0.06331567
0.06147083
0.0586732
0.05546491
0.05501203
0.05535714
0.05443675
0.05252597
0.04970006
0.04660366
0.04364907
0.04044829
0.0374042
0.03726451
0.03956232
0.042194
0.04383254
0.04380486
0.04724624
0.04475045
0.04039162
0.08097063
0.0683181
0.06364399
0.06548071
0.06032064
0.06114097
0.05884174
0.05550863
0.05310414
0.05222526
0.05132404
0.05035187
0.04908899
0.04739958
0.04593119
0.04485364
0.04317125
0.04145131
0.0397065
0.03937721
0.03996888
0.04367862
0.04192717
0.03924842
0.07705298
0.06252725
0.06247959
0.06242584
0.05767522
0.0574208
0.05476471
0.05200118
0.04999846
0.04962708
0.04912292
0.04845545
0.04878326
0.0487776
0.04857689
0.04788135
0.04651495
0.04570149
0.04498719
0.04210862
0.04072113
0.04699748
0.07283131
0.05660798
0.06007325
0.05598266
0.05527167
0.05551505
0.04942412
0.04955617
0.04863403
0.04866822
0.04918702
0.0497947
0.05018595
0.05059269
0.05297017
0.05067437
0.0461737
0.04313241
0.04570001
0.05466112
0.06945139
0.05270712
0.05439089
0.05314714
0.05334257
0.04953671
0.04911156
0.04840861
0.04886024
0.04979625
0.05075076
0.05119839
0.04816893
0.05056541
0.05239129
0.0510048
0.05553858
0.05743742
0.06223828
0.05042073
0.04593503
0.04834201
0.04513101
0.04766163
0.04784249
0.04880594
0.05015972
0.0513542
0.0550729
0.05450625
0.05622985
0.06123326
0.0481959
0.04827806
0.04836683
0.04989609
0.05212188
0.05450927
0.08507852
0.07816011
0.07671928
0.08033163
0.08066497
0.08054643
0.07991922
0.07700204
0.07677873
0.09035274
0.07851354
0.07429254
0.08122563
0.0763226
0.07201771
0.07242973
0.07869517
0.08014177
0.08077283
0.08103789
0.08569918
0.08560853
0.07373739
0.069415
0.0695023
0.07555653
0.07749475
0.06793934
0.06697273
0.07314497
0.0750185
0.07756839
0.07656211
0.07806404
0.07980971
0.08123715
0.08228115
0.08111299
0.08092155
0.07800412
0.07404087
0.075532
0.07663634
0.07941701
0.07009745
0.06687569
0.06534517
0.06949991
0.06857608
0.06932904
0.0702171
0.07088346
0.07224382
0.07383332
0.07603117
0.07834003
0.08035316
0.08136574
0.08093494
0.0789737
0.07534368
0.07187911
0.06961808
0.06827764
0.06716567
0.06825809
0.06848801
0.05730765
0.06078068
0.06335695
0.06292224
0.0628381
0.06320943
0.06353473
0.06348639
0.06386782
0.06518018
0.0675069
0.07035579
0.07326713
0.0755706
0.07666016
0.07653681
0.07434571
0.07076143
0.06768254
0.06698743
0.06271875
0.05680026
0.06466457
0.06567082
0.05488163
0.05800492
0.06015169
0.05891763
0.05722166
0.05615033
0.05490929
0.05407232
0.05341453
0.05334949
0.05436404
0.05665821
0.0597603
0.06324509
0.06651639
0.0687075
0.06973238
0.06908922
0.06713331
0.06518127
0.06460589
0.06346597
0.05840302
0.05137126
0.05742446
0.06242219
0.05213394
0.05551946
0.05727443
0.05525172
0.05348301
0.05072786
0.04837731
0.04871707
0.04908261
0.04907436
0.04902173
0.04865203
0.04806832
0.04768556
0.04982273
0.05385001
0.05708556
0.0593784
0.06036692
0.06124857
0.06171216
0.06132603
0.05941481
0.05795523
0.05235697
0.04438525
0.04860631
0.05829074
0.04873079
0.05208264
0.05369101
0.05125357
0.04874574
0.04646404
0.04712016
0.04760274
0.04736387
0.04707231
0.04703717
0.04737393
0.04860087
0.05028937
0.05117872
0.0511397
0.05011027
0.04868568
0.05163587
0.05440513
0.05625552
0.05659984
0.05571501
0.05388661
0.05186299
0.04982529
0.04397899
0.03607603
0.0361714
0.04127964
0.04778469
0.04894503
0.04662055
0.04404494
0.04301074
0.0438573
0.0428681
0.04070288
0.04078317
0.04447433
0.04898811
0.05318207
0.05653236
0.05894927
0.06044511
0.06106443
0.06078263
0.0593035
0.05666107
0.05280586
0.05093712
0.05139316
0.05015688
0.0477567
0.04502498
0.04164083
0.03884849
0.03403589
0.03209989
0.04892672
0.04452736
0.04444526
0.04214838
0.03941019
0.03811874
0.0389532
0.03713814
0.03627253
0.0384114
0.04177979
0.0466572
0.05245579
0.05817202
0.06298724
0.06648604
0.06857918
0.06950662
0.06955566
0.06864173
0.0666303
0.06332468
0.0592497
0.05481811
0.05103232
0.04793464
0.04549391
0.04302572
0.03897229
0.03466499
0.02958793
0.02959942
0.04870223
0.04327726
0.04272677
0.03947931
0.03749015
0.034441
0.03546889
0.03636003
0.03605269
0.03546134
0.03594241
0.04058346
0.04542441
0.05025436
0.05806829
0.06518831
0.0705448
0.07376829
0.07524969
0.0756249
0.07518466
0.0737947
0.0711914
0.06753056
0.06309102
0.05870879
0.05469067
0.05075424
0.04615592
0.04128554
0.03638564
0.03232508
0.0261364
0.02655253
0.04356514
0.0422003
0.04172791
0.04221412
0.03918691
0.03697711
0.03829934
0.03737162
0.03459646
0.03311098
0.03741769
0.04224358
0.04477139
0.04600449
0.04933209
0.05666233
0.06568642
0.07137676
0.07458141
0.07623189
0.07686108
0.0765032
0.07494774
0.07214223
0.06838175
0.06438668
0.06045629
0.05635507
0.05133061
0.04583421
0.04081777
0.03588039
0.03037261
0.03001149
0.04434584
0.04584064
0.04600537
0.04480171
0.04085192
0.04013425
0.03991999
0.03674357
0.03085456
0.03443524
0.04088819
0.04275742
0.04214124
0.04034658
0.03796059
0.03945792
0.04765755
0.05792393
0.06419131
0.06833901
0.07099306
0.07240448
0.0724732
0.0712752
0.06926757
0.06719213
0.06525427
0.0630153
0.05986016
0.05597978
0.05181831
0.04753882
0.04320207
0.04322658
0.05064022
0.04525715
0.04930712
0.04956295
0.04756902
0.04262238
0.04204424
0.04054589
0.03535979
0.02960017
0.0360753
0.03738046
0.03975669
0.0445762
0.04657026
0.04460755
0.03693584
0.03007725
0.03394384