/*--------------------------------*- C++ -*----------------------------------*\
  =========                 |
  \\      /  F ield         | OpenFOAM: The Open Source CFD Toolbox
   \\    /   O peration     | Website:  https://openfoam.org
    \\  /    A nd           | Version:  6
     \\/     M anipulation  |
\*---------------------------------------------------------------------------*/
FoamFile
{
    version     2.0;
    format      ascii;
    class       volScalarField;
    location    "50";
    object      epsilon;
}
// * * * * * * * * * * * * * * * * * * * * * * * * * * * * * * * * * * * * * //

dimensions      [0 2 -3 0 0 0 0];

internalField   nonuniform List<scalar> 
140018
(
0.008423986
0.004892235
0.004553884
0.007049823
0.007394189
0.004471607
0.003330656
0.002535224
0.002387356
0.002813383
0.003556429
0.005554939
0.004203967
0.002650474
0.002381041
0.001988468
0.001948352
0.001882836
0.001840867
0.001832541
0.001846711
0.002207666
0.002965856
0.004643386
0.003745568
0.001984932
0.001500001
0.001327609
0.001234741
0.001339596
0.001424848
0.001462001
0.001452443
0.001414063
0.001393576
0.001460369
0.001911376
0.003813282
0.002509
0.001579491
0.001375599
0.00123823
0.001111384
0.001015338
0.001095502
0.001159674
0.001167489
0.001140489
0.001118635
0.00116031
0.00133762
0.002169789
0.003715273
0.002038279
0.001555087
0.001435425
0.00135638
0.001276128
0.001188837
0.001104332
0.001056847
0.001054533
0.001059119
0.001085017
0.001176161
0.00144353
0.002071162
0.004371715
0.002666901
0.00170945
0.001574767
0.001523562
0.001485553
0.001444103
0.001398575
0.001354191
0.001317245
0.001282607
0.001270671
0.001275158
0.001295363
0.001417448
0.001609418
0.002621847
0.003092661
0.001995965
0.001622986
0.001576496
0.001558283
0.001529109
0.001482898
0.001421676
0.001355014
0.001292872
0.00124119
0.00120214
0.001184007
0.001205209
0.001293055
0.001484404
0.002120029
0.005118293
0.00215605
0.001619843
0.001594514
0.001605685
0.001610629
0.001591371
0.001544393
0.001478662
0.001408137
0.0013415
0.001291218
0.00127178
0.00128829
0.001344799
0.001450731
0.001627346
0.001997271
0.003882494
0.002059012
0.001621341
0.001637619
0.001653957
0.001671962
0.001662419
0.00162202
0.001561732
0.001495588
0.001432824
0.001389149
0.00138114
0.001411692
0.001481402
0.001598327
0.001792686
0.002203772
0.004173114
0.004321225
0.002112807
0.001758735
0.001705687
0.001719447
0.001714895
0.001681045
0.001627502
0.001565146
0.001505733
0.00146672
0.001460096
0.001493389
0.001573146
0.00171128
0.001973551
0.002907763
0.007267489
0.003593716
0.002027164
0.001783961
0.001755599
0.001752658
0.001719993
0.001673635
0.001621176
0.001567115
0.001527878
0.001516673
0.001547905
0.001633993
0.001805579
0.002184725
0.004096452
0.006611007
0.003209368
0.001995262
0.001806971
0.001792317
0.001750796
0.001704604
0.001664646
0.001620313
0.001583886
0.001571474
0.001601244
0.001695869
0.001923457
0.002813556
0.006875041
0.004475097
0.002386737
0.001957541
0.001866938
0.001797037
0.001736303
0.001703932
0.001674648
0.001651313
0.001650372
0.001691595
0.001813843
0.002127446
0.003909669
0.007545596
0.003463429
0.00237467
0.002098804
0.001911927
0.001802352
0.001755425
0.00174547
0.001754125
0.0017957
0.001899523
0.00210893
0.002927565
0.006617339
0.007246968
0.004208372
0.003168357
0.002252992
0.002000126
0.001869604
0.001881139
0.001963338
0.002125087
0.002738678
0.003834694
0.006506569
0.006278449
0.003875969
0.002879302
0.002188432
0.002216808
0.002791836
0.003846248
0.006265255
0.005740966
0.003833229
0.004017016
0.006311767
0.005487897
0.003924349
0.004075671
0.004513527
0.005217634
0.006196996
0.00739812
0.00866245
0.01022419
0.01704495
0.005099794
0.003424568
0.002631697
0.001863971
0.001719093
0.001708055
0.001816547
0.002081845
0.002566324
0.003277876
0.004199893
0.006121013
0.009034698
0.01441927
0.005894564
0.003245199
0.002312995
0.002043953
0.001812542
0.001634816
0.001468345
0.001347991
0.001325909
0.001440895
0.001741596
0.002280794
0.003038595
0.0039226
0.005562076
0.01157889
0.005543253
0.003036582
0.002216048
0.002028568
0.001973443
0.00183255
0.001650124
0.001595989
0.00149315
0.001399915
0.001452661
0.001186888
0.001406913
0.001793475
0.002340943
0.003003834
0.004386303
0.009194974
0.00488087
0.002557555
0.001903993
0.001833697
0.001783655
0.001692706
0.001692729
0.001576428
0.001451545
0.001332115
0.00124809
0.001264598
0.001153244
0.00118014
0.001166175
0.001484479
0.001910036
0.00243491
0.003521649
0.007290699
0.004580152
0.002341816
0.001704639
0.001642058
0.00165233
0.001860351
0.002000965
0.001973026
0.00185182
0.001548893
0.001318896
0.001193929
0.001152454
0.001096103
0.001066952
0.001029606
0.001148387
0.001302043
0.001690044
0.002116933
0.002985135
0.006329601
0.003135928
0.001665392
0.001498102
0.001538118
0.00201552
0.002101023
0.002242711
0.002362859
0.002484697
0.002289149
0.001749639
0.001485601
0.00135275
0.001250352
0.001145947
0.001057948
0.001083852
0.001238653
0.00135772
0.001687366
0.002129355
0.003804427
0.004316025
0.002016139
0.001411788
0.001421839
0.001457426
0.002035369
0.002079804
0.002116496
0.002218943
0.002379506
0.002647833
0.002309288
0.001931391
0.001698392
0.001491833
0.001306002
0.001206955
0.001286321
0.001679179
0.001451904
0.001891688
0.002450692
0.003721547
0.009753569
0.003081684
0.001567132
0.00127837
0.001397713
0.00212055
0.001810937
0.001704247
0.001744437
0.001884388
0.002100256
0.002369952
0.002625521
0.002439476
0.002089686
0.001944195
0.001985277
0.002386988
0.003632878
0.004567457
0.005307006
0.003772846
0.003740207
0.003959576
0.006354782
0.003022919
0.001482992
0.001212497
0.001200739
0.001768827
0.001505072
0.00146733
0.001523133
0.001675088
0.001933426
0.002309999
0.002798006
0.003349956
0.003830289
0.00415326
0.004568085
0.005031206
0.005087367
0.004247757
0.003340734
0.001953947
0.001807801
0.00182054
0.002776283
0.003132157
0.001463525
0.001117564
0.001746533
0.001562675
0.00141098
0.001348322
0.001319775
0.00134267
0.001420514
0.001551976
0.001723507
0.001912671
0.002086118
0.002196343
0.002192415
0.002126175
0.002133739
0.002187819
0.002374634
0.002265946
0.001206684
0.001364432
0.002363595
0.003308131
0.001540768
0.00104979
0.001776144
0.001583575
0.001514358
0.00139695
0.001279344
0.001190271
0.001136878
0.001115491
0.001113013
0.001123909
0.001148974
0.001198811
0.001282917
0.00140052
0.001512237
0.001571038
0.001553189
0.001377555
0.001218679
0.00153596
0.002835192
0.003483342
0.0017423
0.001129021
0.001986754
0.002014128
0.001851569
0.001651223
0.001437615
0.001251861
0.001116426
0.001032476
0.0009831723
0.0009585957
0.0009581007
0.0009838426
0.001031727
0.001092388
0.0011503
0.001198263
0.00124785
0.001305173
0.001371325
0.001777444
0.00335318
0.003643228
0.001936123
0.001338081
0.002410739
0.002849479
0.0024483
0.002125893
0.001786329
0.0014691
0.0012269
0.001076524
0.000990042
0.0009388141
0.0009153804
0.0009174564
0.0009431195
0.0009875326
0.001047093
0.001132633
0.001242546
0.001389196
0.001596817
0.00206889
0.003942353
0.003832639
0.002101715
0.00157157
0.001166913
0.001761834
0.002410279
0.002621712
0.002314943
0.001851812
0.001450989
0.00119907
0.00106682
0.0009902725
0.0009483135
0.0009343275
0.000946775
0.0009838665
0.001050169
0.001144422
0.001261892
0.001388252
0.001803592
0.00232541
0.004453195
0.004244705
0.002311208
0.001817307
0.001428603
0.001482179
0.001945302
0.002418195
0.002646115
0.002355263
0.00179618
0.001386431
0.001183149
0.001076545
0.001018607
0.0009917393
0.0009933556
0.001024283
0.001089701
0.001188086
0.001329535
0.001538893
0.001919148
0.002499908
0.004855503
0.007514778
0.003092461
0.002122912
0.001731836
0.001362235
0.001480764
0.00183398
0.002285856
0.002529226
0.002204355
0.001635722
0.001324158
0.001176798
0.001103463
0.001067109
0.001062229
0.001089449
0.001142466
0.001215176
0.00129378
0.001651026
0.002040392
0.003094061
0.007711484
0.004606679
0.00254985
0.002049094
0.001672948
0.00154912
0.001610796
0.001833488
0.002165808
0.002270343
0.001897423
0.001475781
0.001271908
0.001184793
0.001146548
0.001146524
0.001168714
0.001230518
0.001315835
0.001459376
0.001778733
0.002240945
0.00417343
0.008020677
0.003447495
0.002345119
0.001908258
0.001519578
0.001469658
0.001500521
0.001711712
0.001870625
0.00188226
0.001600546
0.001351476
0.001252896
0.001213787
0.00122338
0.00123166
0.001314001
0.001362321
0.001671929
0.002039871
0.003015962
0.006942244
0.007705556
0.003313672
0.002253547
0.001834203
0.001506149
0.001224834
0.001316501
0.001410516
0.001556736
0.001536475
0.001395111
0.001297552
0.001239051
0.001279132
0.001232401
0.001413604
0.001636452
0.001957349
0.002854178
0.006471237
0.007343349
0.003146919
0.00214279
0.00174489
0.00145574
0.001207411
0.001006824
0.001191883
0.0012942
0.001332622
0.001305119
0.001185703
0.001342433
0.001498874
0.00165884
0.001922826
0.002748253
0.006039518
0.006665724
0.002881015
0.001992691
0.001634981
0.001369633
0.001189054
0.001078635
0.001060777
0.001137187
0.001276534
0.001412322
0.001541136
0.001747709
0.002015375
0.002727654
0.005903452
0.006049948
0.003358557
0.002211152
0.001613516
0.001408018
0.001297587
0.001281584
0.001353444
0.001490543
0.001647695
0.001835736
0.002472513
0.003632157
0.005855262
0.004962312
0.002835524
0.002474955
0.002315117
0.002293676
0.002395433
0.002600505
0.002866587
0.003245455
0.005531068
0.01381803
0.009364804
0.009574693
0.009936824
0.0102606
0.01065449
0.0115124
0.01891767
0.008831736
0.006021208
0.005683281
0.004569558
0.004131659
0.004435996
0.004748964
0.005020613
0.005277163
0.005611139
0.007085134
0.009300083
0.009695406
0.01432921
0.005305205
0.002825371
0.002353613
0.002271781
0.002246638
0.002442782
0.002765454
0.003105338
0.003430048
0.003727557
0.004000259
0.004358657
0.004853751
0.005040669
0.005875298
0.01246479
0.004437438
0.002735394
0.001808482
0.00136498
0.001268521
0.001953981
0.002109367
0.0022999
0.002565132
0.002879576
0.003202459
0.003490378
0.003715416
0.003959555
0.004171912
0.003645602
0.003871059
0.005318143
0.007759841
0.01236054
0.003565487
0.001673088
0.001229215
0.00101783
0.001718967
0.002018501
0.002421073
0.002614903
0.002741562
0.002842451
0.002971682
0.003143634
0.003339009
0.00349405
0.00366064
0.003805647
0.003476088
0.003458401
0.003414984
0.004083669
0.00522384
0.01065537
0.003383634
0.001520562
0.001055659
0.0009185533
0.002091525
0.002897106
0.003235952
0.003404252
0.003481613
0.003487703
0.003430189
0.003322857
0.003227669
0.003204897
0.003241957
0.003340567
0.003436622
0.003239577
0.003167867
0.003072459
0.00298634
0.003403978
0.004417486
0.008840806
0.001850318
0.001087455
0.0009164267
0.002180515
0.003059619
0.003345901
0.003474513
0.003488845
0.00344029
0.003343992
0.003244773
0.003154444
0.003029236
0.002885523
0.002818349
0.002877819
0.002965451
0.002890853
0.002825584
0.002759233
0.002641892
0.002480785
0.002826181
0.004359231
0.003079024
0.001428655
0.001004247
0.001893949
0.002597151
0.002747794
0.002819311
0.002854286
0.002844341
0.002768359
0.00258719
0.002410288
0.002316006
0.002264414
0.00220705
0.002199569
0.002248915
0.002360082
0.002404536
0.002400169
0.002374107
0.002318291
0.002175175
0.002041096
0.002588803
0.005185539
0.003385222
0.001572293
0.001115829
0.001472567
0.002056175
0.002330668
0.002583733
0.002793069
0.00294537
0.003036468
0.003075017
0.002949721
0.002478324
0.002060625
0.001811956
0.001687892
0.001657098
0.001691013
0.001795294
0.001883269
0.00194494
0.001991618
0.002033013
0.002056968
0.002198564
0.002125288
0.003052704
0.007283434
0.002075885
0.001212115
0.0009937698
0.001524013
0.001945564
0.00236247
0.00279198
0.003029266
0.003117129
0.00317621
0.003281593
0.003435249
0.003363262
0.002563639
0.002027673
0.001735517
0.001576481
0.001502193
0.001513971
0.001575806
0.001676112
0.001823586
0.002079484
0.002392215
0.002835428
0.002471333
0.003633578
0.006960026
0.001974843
0.001156508
0.001227978
0.001612452
0.00204239
0.002664374
0.003081429
0.002967974
0.002776159
0.002691817
0.002799999
0.00303898
0.003423752
0.003327398
0.002633477
0.002194355
0.001884442
0.00168135
0.001625309
0.001759188
0.002129485
0.00269865
0.003514942
0.004210946
0.00438324
0.005191961
0.004266177
0.007748139
0.003897935
0.001621786
0.001109522
0.001255569
0.001645008
0.002210789
0.003108992
0.002989351
0.002290942
0.002047682
0.002044329
0.002224292
0.00254102
0.002964368
0.003429139
0.003454665
0.00301545
0.002738094
0.002778683
0.003353926
0.004790576
0.006094627
0.006974171
0.006691722
0.005987658
0.004975719
0.004522312
0.003085563
0.00455032
0.010261
0.002497696
0.001334826
0.001076525
0.00124682
0.001691706
0.002499485
0.003252789
0.002251675
0.001737509
0.001618619
0.001655362
0.001830697
0.002151375
0.002634923
0.003284777
0.004064406
0.004840836
0.005417145
0.005993078
0.006642262
0.006739026
0.005980365
0.004808859
0.00392084
0.003388321
0.002990863
0.002485908
0.001461959
0.001640405
0.00271234
0.002443225
0.001326472
0.001082451
0.001250808
0.001765205
0.002796111
0.003135741
0.001878185
0.001568613
0.001445397
0.001386753
0.001396072
0.00147497
0.001626999
0.001839271
0.002084896
0.002326011
0.002513664
0.002581369
0.002559581
0.002589041
0.002672866
0.002761718
0.002600911
0.002165184
0.001740263
0.001159238
0.0008002448
0.001158646
0.002602411
0.002518612
0.001367297
0.001111693
0.001244316
0.001756119
0.002697092
0.00306339
0.002065804
0.001727309
0.001539555
0.001384726
0.001260587
0.001169665
0.001122581
0.001112258
0.001129273
0.001171306
0.001245623
0.0013577
0.001497799
0.001617848
0.001661025
0.001611872
0.001437326
0.001256609
0.001102478
0.001029093
0.001069346
0.001460219
0.002973355
0.002660549
0.00143328
0.001155081
0.001232826
0.001622591
0.002344612
0.002823512
0.002622133
0.002233473
0.00192259
0.001668489
0.001435975
0.001227359
0.001077164
0.0009895654
0.0009479651
0.0009422871
0.0009693337
0.001020578
0.001080459
0.001128487
0.001150555
0.001145735
0.001125393
0.001106765
0.001108981
0.001150919
0.001246049
0.001635148
0.003180314
0.002882029
0.001528367
0.001213642
0.001233091
0.001459174
0.001947451
0.002428536
0.002682413
0.00278418
0.002563551
0.002204594
0.001848658
0.001495466
0.001219299
0.001053479
0.0009638605
0.000919155
0.0009087829
0.0009264337
0.0009634971
0.001010972
0.00106366
0.001119515
0.001166632
0.00121065
0.001262253
0.001336611
0.001445389
0.00184363
0.003489023
0.003275964
0.001672909
0.00129013
0.001258291
0.001352846
0.001618502
0.001910335
0.002154832
0.00251106
0.002848308
0.002843783
0.00246645
0.001957675
0.001498371
0.001216743
0.00107259
0.0009945388
0.0009563373
0.0009507611
0.0009729609
0.001019064
0.001086772
0.001159569
0.001230845
0.001307408
0.00139575
0.001504628
0.001642554
0.002125299
0.004083553
0.005879772
0.002203637
0.00142531
0.001338344
0.001334446
0.001430321
0.001579156
0.001742931
0.001977197
0.002384618
0.002834223
0.002995975
0.002573076
0.001911546
0.001449644
0.001228156
0.001117016
0.001054369
0.001025552
0.001026477
0.001055629
0.001109448
0.00117176
0.001242079
0.001327118
0.00143672
0.00158468
0.00178128
0.002796897
0.007079322
0.003180765
0.001713804
0.001520816
0.00142928
0.001402341
0.001423883
0.001463749
0.001549007
0.001789403
0.002241875
0.002758995
0.002956757
0.002420788
0.001741383
0.001401671
0.001254038
0.001173085
0.001125545
0.001104761
0.001111621
0.001140011
0.001181163
0.001236602
0.001310985
0.001416845
0.001575938
0.001872559
0.003557367
0.003960252
0.00207251
0.001534611
0.001442261
0.001387526
0.00135899
0.001341251
0.001349809
0.001438333
0.001697311
0.002157219
0.002623507
0.002674572
0.002061838
0.001570079
0.001374322
0.001283862
0.001228913
0.001195449
0.001185492
0.001193633
0.001218711
0.001260098
0.001314711
0.001379479
0.001439667
0.001952354
0.003732583
0.007064317
0.002816483
0.001845887
0.001643839
0.001516449
0.001418796
0.001344736
0.001291615
0.00129169
0.001393224
0.001660821
0.002057855
0.002339889
0.002182461
0.001708356
0.001449049
0.001351708
0.001304551
0.001273443
0.001258931
0.001257109
0.001276203
0.001316761
0.001386075
0.001495539
0.001671214
0.002520622
0.005964825
0.006326055
0.002653257
0.001742493
0.001578549
0.001463079
0.001363564
0.001285273
0.001239712
0.001256268
0.00137843
0.00160069
0.00183469
0.001887416
0.001698258
0.001454104
0.001354103
0.001330956
0.00131483
0.001307025
0.00130697
0.001316942
0.001345468
0.001403561
0.001509297
0.002304876
0.005211595
0.004074704
0.002173703
0.001654468
0.001491703
0.00137698
0.001276046
0.00120356
0.001172862
0.001201705
0.00129735
0.00142586
0.001483194
0.001446345
0.001368997
0.001301282
0.001303732
0.001319156
0.001323031
0.001332727
0.001332548
0.001338398
0.001368536
0.00174621
0.003175541
0.007026529
0.002906259
0.001924423
0.001481757
0.001346346
0.001239266
0.001149027
0.001091015
0.001074093
0.001101514
0.001147197
0.001172195
0.001175902
0.001187028
0.001204266
0.001242131
0.001291906
0.001300223
0.00134079
0.001339396
0.001320734
0.001618363
0.002339637
0.005102223
0.006425676
0.002667744
0.001789182
0.001365267
0.00122398
0.001102467
0.001022903
0.0009748149
0.0009603947
0.0009606435
0.0009643208
0.000979567
0.00101832
0.001075187
0.001147913
0.00125048
0.001247939
0.00134416
0.001356623
0.001648755
0.002256446
0.004865282
0.006045244
0.003223147
0.001942153
0.001314294
0.00103027
0.0009621955
0.0009001339
0.0008552527
0.0008283901
0.0008247079
0.0008487274
0.0008993011
0.0009691712
0.001062861
0.001223424
0.001178821
0.001371173
0.001985515
0.002986365
0.004846761
0.004402128
0.001912939
0.001317262
0.001079865
0.0009124955
0.0008188429
0.0007726343
0.0007664021
0.0007931268
0.000848031
0.0009255769
0.001029805
0.001257238
0.001519072
0.001980482
0.004316508
0.004289939
0.002299623
0.001851963
0.001307923
0.001013728
0.0009503365
0.0009427781
0.0009738161
0.001039831
0.001147307
0.001497487
0.002195972
0.002758145
0.004636919
0.003300287
0.001941635
0.001769918
0.001742698
0.001795121
0.001919303
0.002161922
0.003725321
0.0144487
0.009466606
0.009302429
0.009405844
0.0100177
0.01642043
0.01074891
0.007148521
0.006728986
0.006534033
0.005100497
0.004466255
0.004498054
0.004560878
0.0047499
0.005892804
0.007833907
0.008056953
0.008261387
0.01196813
0.008061631
0.00508373
0.00375915
0.003270342
0.003148352
0.004446983
0.004018103
0.003832608
0.003908793
0.00397945
0.00412781
0.004671592
0.005254842
0.003982805
0.004033377
0.004593357
0.006746028
0.01053407
0.00575208
0.002852247
0.002250201
0.002796665
0.002744904
0.002904383
0.00359403
0.00345873
0.00347062
0.003578991
0.003653824
0.003754736
0.004023477
0.004320345
0.003611621
0.003563977
0.003714952
0.003485926
0.004414786
0.009517279
0.004099619
0.002044213
0.001523982
0.001905707
0.002276799
0.002374361
0.0026073
0.003049238
0.003119556
0.00326042
0.003419859
0.003523482
0.003612115
0.00375648
0.003854736
0.003406061
0.00327742
0.003280719
0.00311161
0.002876195
0.004125785
0.008637554
0.003165644
0.001483998
0.001480915
0.001373206
0.001636611
0.001923044
0.002136345
0.002423031
0.0027288
0.002900675
0.003125661
0.00333133
0.003464752
0.003560662
0.003657881
0.003693094
0.003357988
0.00317037
0.003042604
0.002902257
0.002739874
0.003244009
0.003665575
0.007770103
0.002720147
0.001221424
0.00117548
0.001241402
0.001287094
0.00155096
0.001881929
0.002218806
0.00256201
0.002781612
0.00293815
0.003115408
0.003286824
0.003420884
0.003523995
0.003594332
0.003602137
0.003346414
0.003137017
0.002942397
0.002767165
0.002603507
0.002817923
0.00291116
0.003203707
0.0066212
0.002581119
0.001136279
0.0010172
0.001058871
0.001193729
0.001417282
0.001885557
0.002470576
0.003041886
0.003455602
0.003624122
0.003648828
0.003596892
0.003521203
0.003464784
0.003460491
0.003479859
0.003479761
0.003308627
0.003084301
0.002854277
0.002659179
0.002480508
0.002517834
0.002536913
0.002533836
0.002675615
0.005320558
0.002631606
0.001120862
0.0007635234
0.0009509538
0.001082894
0.001351312
0.001931517
0.00289212
0.00398138
0.004858474
0.00531812
0.005309883
0.005003726
0.004556655
0.004075615
0.003664417
0.003396008
0.003268021
0.003227023
0.003137414
0.00295988
0.002739663
0.002533083
0.002352339
0.002309866
0.002283453
0.002353257
0.001683607
0.002241247
0.004433926
0.001424801
0.0007884275
0.0008010607
0.000984521
0.001218003
0.001741128
0.002739467
0.003955771
0.004758137
0.005113425
0.005250053
0.005237707
0.004950855
0.004455511
0.003901382
0.003403418
0.003036573
0.002832868
0.002762551
0.002740127
0.002660635
0.00252054
0.00236532
0.00222147
0.00216119
0.002146805
0.002153128
0.001990785
0.00176951
0.00301671
0.002745203
0.001031639
0.0008484052
0.0008731477
0.001059944
0.001421965
0.002155088
0.003127825
0.003768257
0.00407518
0.004230054
0.004317085
0.004374742
0.004299877
0.003817676
0.00324225
0.002774415
0.002438814
0.002246778
0.00218276
0.002203087
0.002216944
0.00218976
0.00214196
0.002116722
0.002167489
0.002281845
0.00234874
0.002444124
0.002969216
0.002927226
0.006891787
0.001630479
0.0008283583
0.0008513203
0.0009333201
0.001137175
0.001585165
0.002306598
0.003021274
0.003710243
0.004085171
0.004141801
0.004125939
0.0042234
0.004471875
0.004579179
0.003644164
0.002830465
0.002330121
0.002029077
0.001879737
0.001851103
0.00188428
0.00194891
0.002076306
0.002340842
0.002752822
0.00316904
0.003291857
0.003493565
0.004354818
0.003533379
0.006926142
0.00147683
0.0007798869
0.0008470978
0.0009618393
0.001186326
0.0016308
0.002288598
0.003199688
0.004110567
0.003994037
0.003520299
0.003282475
0.00335708
0.00365328
0.004194783
0.004436793
0.00352728
0.002821477
0.002339613
0.00204913
0.001954415
0.00207945
0.002460531
0.003168268
0.004172831
0.005093233
0.005404148
0.005232557
0.004543015
0.004926358
0.003448712
0.00638102
0.001413182
0.0009952638
0.0009240328
0.0009948882
0.001198853
0.001624639
0.002360216
0.003684274
0.004186666
0.002994534
0.002458318
0.002358337
0.00252462
0.002885362
0.003415486
0.004079168
0.00437596
0.003920012
0.003448985
0.003382019
0.003961114
0.005326339
0.006784666
0.007972978
0.008254137
0.007546725
0.00621194
0.004951548
0.003759547
0.00352964
0.003754847
0.003987738
0.003260337
0.001167197
0.00100329
0.0009577729
0.001011436
0.001190269
0.001619926
0.002533811
0.004167979
0.003263667
0.002124056
0.001858607
0.001841433
0.001999889
0.002326257
0.002843507
0.00357035
0.004487284
0.005474308
0.006265098
0.006957459
0.007760981
0.00797046
0.007392333
0.00631164
0.005276058
0.004473877
0.003795038
0.003172402
0.002526194
0.002313514
0.002389935
0.002218608
0.005921619
0.002077745
0.0009910372
0.0009445914
0.0009388359
0.0009942557
0.001156025
0.001590926
0.002662756
0.004049834
0.002658274
0.001868324
0.001652764
0.001560069
0.001550184
0.001611359
0.001751409
0.00196846
0.002242262
0.002539549
0.002814278
0.002991646
0.00306386
0.003149267
0.003278553
0.003347805
0.003191309
0.00278297
0.002176744
0.001657729
0.001668021
0.001721924
0.001671639
0.001532157
0.003253999
0.00207517
0.001004131
0.0009422393
0.0009316235
0.0009786976
0.001119259
0.001514092
0.002485517
0.003500235
0.002862359
0.002083631
0.001793885
0.001617409
0.001482267
0.00136553
0.00128264
0.001245602
0.001254125
0.001307174
0.001409335
0.001562259
0.001749373
0.001915705
0.001988875
0.001933325
0.001734677
0.001488921
0.001273237
0.001174264
0.001242748
0.001343918
0.001362368
0.00137358
0.002671513
0.002231361
0.001066949
0.0009830918
0.0009548499
0.0009853007
0.001096399
0.001399205
0.002115014
0.00289334
0.003034764
0.002717963
0.002274262
0.001999477
0.001772572
0.001537586
0.001327253
0.001180937
0.001102862
0.001083359
0.001115221
0.001185803
0.001273604
0.00135074
0.001391846
0.001383118
0.001328399
0.001262192
0.001219724
0.001206691
0.001222493
0.001248515
0.001256756
0.001276242
0.002369045
0.002543842
0.001177737
0.001062458
0.001010534
0.001019214
0.001095046
0.001297
0.001755441
0.002327593
0.002687891
0.002948099
0.002926135
0.002626899
0.002319835
0.001963912
0.001608115
0.001344007
0.001186566
0.001105813
0.00108252
0.001104287
0.001156759
0.001223511
0.001289116
0.001344271
0.001394813
0.001426029
0.001439262
0.001430713
0.001395514
0.001343248
0.001294073
0.001321495
0.002461525
0.004486113
0.001531351
0.001261821
0.001136888
0.00110124
0.001132151
0.001245105
0.001498204
0.001849268
0.002145584
0.002465255
0.002855578
0.003110299
0.002996315
0.002587257
0.002064474
0.001639679
0.001386154
0.001247416
0.001178672
0.001161716
0.001185018
0.00123673
0.001304737
0.001394432
0.001474637
0.001539348
0.001582404
0.001593349
0.001571745
0.001544565
0.0015701
0.001783682
0.004261557
0.00222272
0.001596174
0.001363119
0.001243716
0.001216734
0.001255863
0.001367489
0.001545338
0.001723571
0.001909291
0.002249957
0.002753636
0.003208429
0.00320828
0.002646071
0.002027902
0.001644458
0.001443334
0.001333817
0.00127851
0.001263618
0.001279862
0.001321326
0.001388379
0.001450591
0.001501692
0.001537384
0.001555789
0.00157489
0.001650661
0.001875697
0.002657814
0.002723217
0.001349392
0.001292999
0.001249273
0.001241856
0.001264315
0.001314632
0.001388761
0.001473303
0.001554734
0.00172202
0.002091992
0.002658105
0.003172592
0.003128394
0.002459147
0.001918296
0.00164449
0.001504254
0.001421429
0.001371514
0.001346238
0.001349321
0.00138387
0.001418365
0.001444617
0.001456466
0.001450773
0.001435362
0.001429419
0.001455349
0.002811021
0.003381873
0.001629304
0.001451791
0.001359527
0.001324142
0.001321688
0.001335788
0.001354916
0.001370249
0.001388817
0.001442549
0.001616569
0.002000924
0.00254623
0.002943805
0.002752743
0.002163912
0.001804959
0.001642746
0.001553094
0.001487068
0.001433905
0.001406719
0.001412316
0.001424723
0.001432049
0.001429835
0.001423355
0.001428276
0.001464949
0.001542402
0.003073049
0.005979423
0.002209374
0.001771852
0.001576166
0.001464574
0.001413408
0.00138974
0.001371604
0.001345183
0.001313779
0.001306521
0.001364758
0.001558446
0.001924723
0.002338121
0.002512965
0.002270463
0.001890618
0.001704295
0.001624348
0.001566569
0.001509594
0.001467695
0.00145201
0.001444854
0.001430741
0.001409059
0.00139386
0.00142118
0.001547122
0.001905691
0.004706726
0.003443296
0.001739845
0.001578879
0.001487507
0.0014294
0.001393085
0.001360468
0.001318557
0.001267202
0.001228953
0.00123189
0.001314692
0.001509449
0.001783947
0.001999371
0.002022385
0.001849469
0.00166917
0.001603298
0.001572869
0.001534466
0.001495593
0.001473009
0.001454454
0.001424816
0.001382941
0.001337404
0.0013184
0.001387544
0.00263692
0.006373739
0.0024921
0.001551222
0.001486132
0.001430154
0.001383641
0.001339872
0.001288881
0.001226889
0.001167479
0.001135816
0.001154288
0.001244875
0.001398961
0.001549288
0.001623046
0.001607098
0.001536377
0.001499783
0.001501842
0.001493462
0.00146991
0.001450043
0.001434545
0.001411051
0.001376029
0.001328508
0.001214068
0.001831082
0.004288819
0.005753594
0.00233733
0.00189168
0.001660398
0.001503296
0.001388856
0.001292974
0.001201761
0.00111669
0.00105509
0.001033871
0.001064659
0.00114005
0.001225531
0.00128326
0.001305688
0.001315765
0.001337884
0.001373454
0.001396844
0.001396059
0.001380423
0.001380377
0.001394824
0.001400253
0.00146416
0.00163384
0.003479895
0.005121976
0.002080625
0.00172377
0.001515174
0.001362825
0.00124526
0.001142588
0.001049491
0.0009748029
0.0009348503
0.0009328895
0.0009612511
0.001000932
0.001033345
0.001056985
0.001091484
0.001150683
0.001212749
0.001270476
0.001298509
0.001278301
0.001293953
0.001385653
0.001425078
0.001566759
0.003201064
0.004743932
0.001957658
0.001610041
0.001379105
0.001234046
0.001104178
0.0009964456
0.0009113435
0.000853909
0.0008265343
0.0008246861
0.0008366636
0.0008525579
0.0008752561
0.0009211834
0.001000649
0.001065105
0.001140565
0.001209415
0.001189549
0.00118515
0.001434241
0.001528601
0.003236562
0.004452471
0.001864331
0.001189265
0.001086129
0.0009940557
0.0009055191
0.000827711
0.0007678227
0.0007342829
0.0007246842
0.0007285384
0.0007402162
0.0007652366
0.0008185493
0.0009150788
0.0009580833
0.001045235
0.001166136
0.001153828
0.001079166
0.001611457
0.003290723
0.004206806
0.001730482
0.001108551
0.001000097
0.0008761642
0.0007771563
0.0007193097
0.0006915273
0.0006799036
0.0006784561
0.0006875315
0.0007135636
0.0007775979
0.0009097906
0.0009032806
0.001011615
0.001207603
0.001180119
0.001629542
0.003643042
0.004086771
0.002032595
0.001246815
0.0008780856
0.0007272477
0.0007712533
0.0007396927
0.0006977449
0.0006788542
0.0006832286
0.0007133805
0.0008102211
0.001000235
0.0008772236
0.001069766
0.001435949
0.00222503
0.003922532
0.003605368
0.001950015
0.00153521
0.001275025
0.000943272
0.0007581046
0.0007276901
0.0007361354
0.0007818277
0.0009796252
0.00138599
0.001691473
0.002082715
0.00362137
0.002766016
0.001641572
0.001513777
0.001515104
0.001636763
0.00274143
0.01205932
0.007841901
0.00741195
0.007095681
0.007240283
0.007291418
0.007489386
0.008173311
0.009500714
0.0155894
0.009318858
0.005939587
0.005402588
0.004084979
0.003528744
0.00484545
0.004847464
0.00493997
0.004982061
0.005061467
0.005132338
0.004207598
0.005079242
0.006055631
0.006228081
0.01011041
0.006340723
0.00313437
0.003848341
0.003757591
0.003358986
0.003318468
0.003935785
0.003924312
0.003981407
0.00399706
0.004022101
0.004085036
0.003725026
0.004077852
0.004313446
0.004129739
0.003579287
0.007098087
0.005716824
0.003488377
0.00337992
0.002669863
0.003066374
0.003080024
0.003035032
0.003178255
0.003550205
0.00363508
0.003697804
0.003701
0.003683042
0.003648842
0.003440382
0.00348665
0.003452201
0.003337054
0.003036372
0.003914112
0.004430058
0.007336655
0.004461501
0.002013429
0.002406858
0.002532974
0.002343973
0.002651228
0.002798297
0.002919164
0.003140422
0.003445218
0.003592119
0.003684715
0.003702742
0.003671908
0.003594956
0.003404709
0.003303553
0.003142165
0.002949973
0.002733495
0.003117094
0.003189885
0.003124395
0.007147094
0.003561953
0.001576618
0.001652636
0.001921258
0.002060995
0.00210544
0.002381455
0.002586298
0.002781965
0.003038297
0.003332016
0.00354586
0.003701876
0.003777991
0.003784749
0.003713226
0.00353101
0.003357451
0.003128707
0.002866174
0.002657326
0.002750355
0.002740738
0.00265458
0.003046705
0.006717069
0.002878664
0.001252757
0.001272996
0.001391359
0.001595417
0.001745558