/*--------------------------------*- C++ -*----------------------------------*\
  =========                 |
  \\      /  F ield         | OpenFOAM: The Open Source CFD Toolbox
   \\    /   O peration     | Website:  https://openfoam.org
    \\  /    A nd           | Version:  6
     \\/     M anipulation  |
\*---------------------------------------------------------------------------*/
FoamFile
{
    version     2.0;
    format      ascii;
    class       volScalarField;
    location    "50";
    object      epsilon;
}
// * * * * * * * * * * * * * * * * * * * * * * * * * * * * * * * * * * * * * //

dimensions      [0 2 -3 0 0 0 0];

internalField   nonuniform List<scalar> 
140018
(
0.008292478
0.00480707
0.004467951
0.006895578
0.007480328
0.004488353
0.003308812
0.002509223
0.002355244
0.002761956
0.003486769
0.005423949
0.004530847
0.002785627
0.002485517
0.002051259
0.00197481
0.001887365
0.001830343
0.001808305
0.001813118
0.002157967
0.002909634
0.004570714
0.00385191
0.002020604
0.001520941
0.001351806
0.001269986
0.001368204
0.001439484
0.001461551
0.001438238
0.001391499
0.001368615
0.001442488
0.001911643
0.003872919
0.002511349
0.001573979
0.001367558
0.001229354
0.001103578
0.001029876
0.001106716
0.001163234
0.00116337
0.001134842
0.00111704
0.001169759
0.001373399
0.002253543
0.003630081
0.002013616
0.001537952
0.001419305
0.001342147
0.001265307
0.001182968
0.001104656
0.001068886
0.001072157
0.001081714
0.00111691
0.001225185
0.001547198
0.002193218
0.004574473
0.002637716
0.001692702
0.00156059
0.001512656
0.001479323
0.001443969
0.001405499
0.001368131
0.001337541
0.001309695
0.001304058
0.001307963
0.001316766
0.001439221
0.001625121
0.002672042
0.003069481
0.001972262
0.001601603
0.001556813
0.001540912
0.001515154
0.001473269
0.001416821
0.001354738
0.001296322
0.001247225
0.001210133
0.001194361
0.001218261
0.001311941
0.001509979
0.0021602
0.005205452
0.002133155
0.001594116
0.001568899
0.001582872
0.001589793
0.001572944
0.001529034
0.001466585
0.001399426
0.001336184
0.001289325
0.001273643
0.00129464
0.00135598
0.001466075
0.001645022
0.002015729
0.003899247
0.00201664
0.001589488
0.001612679
0.00163442
0.001654773
0.001647072
0.001609385
0.001551782
0.001488232
0.001428133
0.001387262
0.001382444
0.001416668
0.001490036
0.001609725
0.001805147
0.002214973
0.004184666
0.003857954
0.002008311
0.001732634
0.001688916
0.001707128
0.001703475
0.00167185
0.001620334
0.001559685
0.001502087
0.001465205
0.001461218
0.001497611
0.001580519
0.001721267
0.001985309
0.002922315
0.0072941
0.003385392
0.001992114
0.001763683
0.001747527
0.001744899
0.001713947
0.001669191
0.00161766
0.001564503
0.00152661
0.001517387
0.001551215
0.001640225
0.001814832
0.002197341
0.00411963
0.006480414
0.003152537
0.001952845
0.001800319
0.001788428
0.001747669
0.00170292
0.001663508
0.001619121
0.00158308
0.001571741
0.001603383
0.001700471
0.001931241
0.002827854
0.006911565
0.004402274
0.002339597
0.001940494
0.001867178
0.001796838
0.001737194
0.00170577
0.001675569
0.001651687
0.001650732
0.001692908
0.001816825
0.002133075
0.003923322
0.007462318
0.003442684
0.00235794
0.002097544
0.001914701
0.001805413
0.001760897
0.001749246
0.001756791
0.001797316
0.001901274
0.002111659
0.002933447
0.006636131
0.007199112
0.004198734
0.003172319
0.002259145
0.00200491
0.001879884
0.001888473
0.001969747
0.002129702
0.002744019
0.003841678
0.006524083
0.006267192
0.003902204
0.002887128
0.002204452
0.002228881
0.00280657
0.003860715
0.006292686
0.005784131
0.003882335
0.004049847
0.006362457
0.005366011
0.003805537
0.003932232
0.004333486
0.004998681
0.005951105
0.007152729
0.008445436
0.01004127
0.01679175
0.005044395
0.003373924
0.002589808
0.001832737
0.001683124
0.001656409
0.00174316
0.001982614
0.002442865
0.003141206
0.004062973
0.0059691
0.00885906
0.01418615
0.005883554
0.00322641
0.002300414
0.002030656
0.001798915
0.001618565
0.001448563
0.001321882
0.001288734
0.001386932
0.001667478
0.002187191
0.002928355
0.003804763
0.005427737
0.01129669
0.005655175
0.00308885
0.002247713
0.00204329
0.001972887
0.001820937
0.001631517
0.001571465
0.001465546
0.001371988
0.001427821
0.001149148
0.001355061
0.00172525
0.002258912
0.002911602
0.004258654
0.008917395
0.005037864
0.002635698
0.001952533
0.001866925
0.00179944
0.001695226
0.001676572
0.001554253
0.001428498
0.001310096
0.001230475
0.001251083
0.001135002
0.001152713
0.001129917
0.001436435
0.001851662
0.002363261
0.003419232
0.007072951
0.004713656
0.002417538
0.001744946
0.001676351
0.001676514
0.001853541
0.001986277
0.001942441
0.001802473
0.001510197
0.001296254
0.001183385
0.001148804
0.001094718
0.001056397
0.001012943
0.001124041
0.001272818
0.001653792
0.002076677
0.002935189
0.006253985
0.003221572
0.001710937
0.00152767
0.001573201
0.00201048
0.002127066
0.002280245
0.00238806
0.002465309
0.002205424
0.001719143
0.001486199
0.001365401
0.001265387
0.001151315
0.001053984
0.001075996
0.001242473
0.001363077
0.001707645
0.002181146
0.003928201
0.004434764
0.002082063
0.001448742
0.001446065
0.001500723
0.002086463
0.002177143
0.002214883
0.002307037
0.002441357
0.002655865
0.002245422
0.001925255
0.00170778
0.001500604
0.001309917
0.001221105
0.001349145
0.001838818
0.001578343
0.002074928
0.002705353
0.004074862
0.01051959
0.003151458
0.00161002
0.001306766
0.001427401
0.002192456
0.001876018
0.00177769
0.001813635
0.001952731
0.002163325
0.002415447
0.002621937
0.002393917
0.002090663
0.001990426
0.002105443
0.002665606
0.004251681
0.005058091
0.005530485
0.003879963
0.003752879
0.003866395
0.006103285
0.003077048
0.001518347
0.001232347
0.001251307
0.001803822
0.001536178
0.001503907
0.00157495
0.001747373
0.002029852
0.002432435
0.002943392
0.003506071
0.003976854
0.004333558
0.004790417
0.005195624
0.00495614
0.003994878
0.003204101
0.00187611
0.001736496
0.001752748
0.00267247
0.003176419
0.00148914
0.00114539
0.001778488
0.001555336
0.001403798
0.001352094
0.001339812
0.00138037
0.001475328
0.001622155
0.00180535
0.001998905
0.002164335
0.002245957
0.002194018
0.002084512
0.002091498
0.002172212
0.002357802
0.002225554
0.001189098
0.001350987
0.002361818
0.003350565
0.001548983
0.001060538
0.001743096
0.001532884
0.001468172
0.001363739
0.001262168
0.001188453
0.001146373
0.001131375
0.001131544
0.001142422
0.001165754
0.001213285
0.00129532
0.001410301
0.001514325
0.001563204
0.001536456
0.001365306
0.001215219
0.001529091
0.002823184
0.00353094
0.001744467
0.001119127
0.001928505
0.001900364
0.001754472
0.001576544
0.001385742
0.001222901
0.001104848
0.001030465
0.0009855864
0.0009633741
0.000964534
0.0009916073
0.001040217
0.001100396
0.001156281
0.001201229
0.001247781
0.001303274
0.001368755
0.001772941
0.00334483
0.003695824
0.001944763
0.001316008
0.002452845
0.002719561
0.002300715
0.002002899
0.00169001
0.001407733
0.001195754
0.001062981
0.000984148
0.0009368335
0.0009161643
0.0009206427
0.0009482882
0.0009938887
0.001053585
0.001138462
0.001247035
0.001391651
0.001596826
0.002065949
0.003932105
0.003886086
0.002118094
0.001550076
0.001143812
0.00184463
0.002441505
0.002531866
0.002177375
0.001748591
0.001393811
0.001173739
0.001054906
0.0009840425
0.0009454253
0.0009341668
0.0009490399
0.0009881303
0.00105585
0.001150672
0.0012679
0.001392968
0.001807787
0.002327862
0.004452149
0.00429656
0.002332929
0.001811583
0.001397635
0.001498667
0.002025203
0.002457608
0.002585708
0.002225782
0.001705108
0.001345622
0.001165989
0.001067858
0.001013706
0.0009894778
0.0009934504
0.001026612
0.001093855
0.001193784
0.00133604
0.001545721
0.00192684
0.002508299
0.00486762
0.007576142
0.003120247
0.002129684
0.001718213
0.001340122
0.001489701
0.001878459
0.002319139
0.002488594
0.002096355
0.00157392
0.001300961
0.001167127
0.001098261
0.001064249
0.001061271
0.001090204
0.001144786
0.001218998
0.001298795
0.001658086
0.002049754
0.003108853
0.007746243
0.004643934
0.002561459
0.002046728
0.001661151
0.001545528
0.001631549
0.001871093
0.002189529
0.002233557
0.001824669
0.001444114
0.001262109
0.001181115
0.001145034
0.001146106
0.001169498
0.001232486
0.001319342
0.001464027
0.001785416
0.002250621
0.004193958
0.00806615
0.003464787
0.00234998
0.001903917
0.001510075
0.001469222
0.001514188
0.001736457
0.001880203
0.00185601
0.00156624
0.00134145
0.001252325
0.001215265
0.001225101
0.001234198
0.001317169
0.001366818
0.001678167
0.002048682
0.003030515
0.006979644
0.007723922
0.003315989
0.002248234
0.001822961
0.001492006
0.001211249
0.001319918
0.001422371
0.001563434
0.001530644
0.001388339
0.001300223
0.001244453
0.001284251
0.001237748
0.00141952
0.001644193
0.001967688
0.002871629
0.00651588
0.007343381
0.003141678
0.002133994
0.001732835
0.001442738
0.001197376
0.001003281
0.001202544
0.001308112
0.001340848
0.001312611
0.001195621
0.001351939
0.001507945
0.001667974
0.001934708
0.002765705
0.006081844
0.006658594
0.002874606
0.001984041
0.00162555
0.0013617
0.001186219
0.001083364
0.001073463
0.001155199
0.001295207
0.001427856
0.001555667
0.001761859
0.002028294
0.002747958
0.005943042
0.006027766
0.003341518
0.002202415
0.001607392
0.001405836
0.001302203
0.001294441
0.001373693
0.001514604
0.001670572
0.001857581
0.002498825
0.003658052
0.005900314
0.004937799
0.002823707
0.002471596
0.002323064
0.00231459
0.002428761
0.002642677
0.002910732
0.003289492
0.005597231
0.0136896
0.009289385
0.009508926
0.009881721
0.01021546
0.01061574
0.01147399
0.0188533
0.008690722
0.005922663
0.005586893
0.004495057
0.004067265
0.004375429
0.004696275
0.004978272
0.005245022
0.005586582
0.007065942
0.009286852
0.00968644
0.01429332
0.005204632
0.002765677
0.002296596
0.002210945
0.002183736
0.002373743
0.002693071
0.003036579
0.003371042
0.003681673
0.003966972
0.004337618
0.004839978
0.00503316
0.005865817
0.01243117
0.004380665
0.002700772
0.00178193
0.001336784
0.001234938
0.001894453
0.002048788
0.002233968
0.002492418
0.002805831
0.003136682
0.003438923
0.003678458
0.003935195
0.004156206
0.003632412
0.003859409
0.005298752
0.007729523
0.0122815
0.003550112
0.001663134
0.001223477
0.001010903
0.001662271
0.001948641
0.002340641
0.002536831
0.002663407
0.002764795
0.002894542
0.003069424
0.003272656
0.003439764
0.00361923
0.003777116
0.003453923
0.00343863
0.003391401
0.004052555
0.005173197
0.01050405
0.003391965
0.00152769
0.00106051
0.0009192507
0.001999073
0.002768942
0.003109902
0.003281697
0.003360827
0.003368614
0.003314537
0.003214902
0.003129857
0.003116262
0.003163495
0.003272384
0.003381378
0.003195894
0.003132905
0.003035876
0.002947082
0.003350043
0.004324639
0.008554549
0.001871173
0.001100664
0.000924668
0.002096056
0.002954876
0.003261864
0.003397832
0.003405649
0.003343816
0.003237306
0.003130078
0.003036837
0.002913659
0.002782301
0.002725672
0.00279168
0.00288672
0.002822474
0.002768369
0.002706861
0.002588176
0.0024218
0.002738013
0.004163001
0.003111317
0.001453036
0.001020114
0.001849196
0.002537912
0.002712564
0.00279286
0.002824902
0.002800774
0.002701645
0.002507184
0.002326351
0.002227554
0.002170603
0.002117461
0.002114764
0.002167694
0.002279655
0.002327188
0.00233051
0.002312777
0.002263042
0.002123837
0.001987137
0.002516012
0.005090272
0.003426831
0.001594889
0.001134154
0.001469275
0.00202162
0.002301936
0.002561721
0.002783116
0.002944337
0.003026106
0.003032354
0.002854022
0.002383617
0.001986099
0.001748426
0.001631297
0.001604654
0.001639688
0.001740575
0.001825681
0.001889331
0.001947352
0.002012009
0.002068961
0.00225824
0.002211002
0.003219462
0.007693741
0.002108279
0.001231672
0.0010104
0.001515437
0.001923528
0.002336396
0.002788285
0.003066191
0.003193368
0.003259173
0.003342486
0.003437077
0.003258365
0.002484966
0.001992922
0.001718215
0.001565847
0.0014908
0.001498004
0.001558461
0.001672535
0.001862866
0.002200939
0.002599005
0.003086135
0.002710066
0.003957959
0.007485502
0.002010017
0.001177822
0.001245713
0.001602383
0.002022837
0.002638919
0.003133878
0.003105243
0.002941194
0.002838741
0.002924467
0.00312768
0.003450238
0.003221691
0.00259627
0.00218584
0.001888169
0.001692573
0.001656675
0.001859111
0.002363876
0.003111036
0.00406545
0.004734643
0.004741944
0.005478245
0.004354273
0.007786265
0.00393921
0.001644935
0.001127021
0.001267273
0.001639834
0.002193773
0.003102032
0.003166348
0.002445047
0.002165068
0.002145295
0.00232183
0.002634219
0.003041106
0.00346444
0.003413612
0.00300177
0.002806145
0.002951754
0.003746561
0.005562582
0.006880675
0.00746775
0.006815851
0.005840917
0.004713974
0.004246355
0.002882083
0.004279838
0.009472738
0.002525828
0.001351783
0.001091742
0.001258495
0.001693871
0.002477685
0.003367073
0.002387263
0.001799139
0.001672316
0.001721595
0.001919465
0.002268214
0.002782105
0.003460254
0.004259217
0.005039338
0.0056294
0.006250021
0.006846073
0.006578846
0.005611609
0.004479997
0.003682416
0.003201109
0.002834014
0.002349391
0.001369664
0.001573807
0.002674506
0.002469582
0.001342712
0.001097485
0.001268326
0.001779751
0.002812441
0.003245288
0.001900774
0.001566503
0.001449577
0.001405911
0.001434185
0.001532767
0.001702017
0.001926097
0.002174415
0.00240431
0.002561031
0.00257745
0.002504574
0.002521086
0.002622414
0.002700424
0.002494672
0.002039539
0.00162593
0.001099587
0.0008117825
0.001208507
0.002675649
0.002544144
0.001383414
0.001126991
0.001267714
0.001795315
0.002780722
0.003105292
0.00199486
0.001668114
0.001493606
0.001353756
0.001246264
0.001170771
0.001134345
0.001129134
0.001147256
0.001188032
0.00126008
0.001369232
0.001503549
0.001610702
0.00163717
0.001572817
0.001394141
0.001217211
0.001077277
0.001019952
0.001071352
0.001462615
0.002992483
0.002686785
0.001449979
0.00117106
0.00125839
0.00167549
0.002438052
0.002877468
0.002534419
0.002107774
0.001822751
0.001591029
0.001381777
0.001196364
0.001063841
0.0009860856
0.0009495942
0.000947113
0.0009762562
0.001028165
0.001086621
0.001131032
0.001148306
0.00113932
0.001117073
0.001098244
0.001102139
0.0011465
0.001242189
0.001630055
0.003166232
0.002910089
0.001546081
0.001230374
0.001258111
0.001509446
0.002037413
0.002515623
0.002693172
0.002696983
0.002420465
0.002077772
0.001750506
0.001431433
0.001185738
0.001037792
0.0009567928
0.0009171583
0.0009104289
0.0009305931
0.000968885
0.001016311
0.001068164
0.00112246
0.001167549
0.001209509
0.001259061
0.001331076
0.001436204
0.001830251
0.003462098
0.00330633
0.001691484
0.0013071
0.001281099
0.001393719
0.001692708
0.001990718
0.002225896
0.002558315
0.002821695
0.00271907
0.002330286
0.001853526
0.001439945
0.001189456
0.001059106
0.00098766
0.0009538271
0.0009516234
0.0009764077
0.00102432
0.001093075
0.001165815
0.001236209
0.001311182
0.001396995
0.001502083
0.001635062
0.002111382
0.00405166
0.005926067
0.002226292
0.001442643
0.001358562
0.001364881
0.001481672
0.001648445
0.001821057
0.002066391
0.002465472
0.002855239
0.002911391
0.002438228
0.001820935
0.001408207
0.001209498
0.001107007
0.001048984
0.00102363
0.001027567
0.001059413
0.00111492
0.001178131
0.00124871
0.001333337
0.001441731
0.001587298
0.001780352
0.002790347
0.007056804
0.003212723
0.001733011
0.001539694
0.001451591
0.001434111
0.00146754
0.001516792
0.001613775
0.00187355
0.002329161
0.002802357
0.002898304
0.00230516
0.001680395
0.001378023
0.00124285
0.001166655
0.001122026
0.001103878
0.001113377
0.001143634
0.001186086
0.001242445
0.001317548
0.001424122
0.001583615
0.001880725
0.003572147
0.003995109
0.002092541
0.001550477
0.001459623
0.001408016
0.001383427
0.001369068
0.00138154
0.001483027
0.001764257
0.002233405
0.002661789
0.002622603
0.001982241
0.001539235
0.001363654
0.001278795
0.001225987
0.001194404
0.001186473
0.001196257
0.001222694
0.00126507
0.001320463
0.00138593
0.001447189
0.001963061
0.003754942
0.007112612
0.002838848
0.001861607
0.001656802
0.00152886
0.001431002
0.001355928
0.001302811
0.001308924
0.001425919
0.001714578
0.002113282
0.002356445
0.002138675
0.001669272
0.001438995
0.001350129
0.001304754
0.001274586
0.001261171
0.001260612
0.001281118
0.001323114
0.001393881
0.001504732
0.001681569
0.002536591
0.006004111
0.006364479
0.002670008
0.001752899
0.001586846
0.001470069
0.001369026
0.001289868
0.001246676
0.001271488
0.001407769
0.001639745
0.001863238
0.00188749
0.001676194
0.001444929
0.001356822
0.001335683
0.001319589
0.001312024
0.001312581
0.001323821
0.001354154
0.001414297
0.001522471
0.002325593
0.005257942
0.004094255
0.00218316
0.001660483
0.001495812
0.001379727
0.001278087
0.001206821
0.001180829
0.001217842
0.001320892
0.001447986
0.001494273
0.001449223
0.001369654
0.001307858
0.001313032
0.001327836
0.001331335
0.00134085
0.001341281
0.00134868
0.001381102
0.001763423
0.003210083
0.007044616
0.002913689
0.001929439
0.001484719
0.001347564
0.001240079
0.001150427
0.001095128
0.001082995
0.001115345
0.001161883
0.00118389
0.001186348
0.001198787
0.001216478
0.001255375
0.001303966
0.001311525
0.00135136
0.001349539
0.001331476
0.00163297
0.002361996
0.005150669
0.006429428
0.002667047
0.00178732
0.001362954
0.001220867
0.001100281
0.001023005
0.0009782777
0.0009674197
0.0009695483
0.000974113
0.0009912872
0.001032819
0.00109115
0.001164569
0.001265829
0.001260799
0.001356278
0.001367866
0.001661339
0.00227621
0.004906079
0.006033179
0.003214063
0.001934199
0.001308169
0.001025341
0.0009592273
0.0009000553
0.0008580992
0.0008339308
0.0008331253
0.000860234
0.000913612
0.0009851696
0.001079982
0.001241223
0.001191163
0.001383861
0.002003158
0.003007158
0.004880962
0.004380943
0.001903174
0.001310759
0.001075118
0.0009099254
0.0008186905
0.0007754817
0.0007727918
0.0008031254
0.0008609993
0.0009401577
0.001045354
0.001276414
0.001537471
0.00199762
0.004349681
0.004263907
0.002285355
0.001841617
0.001304262
0.001013662
0.0009535025
0.0009495901
0.0009844034
0.001053777
0.001163709
0.001518841
0.002229251
0.002793722
0.004674281
0.003285494
0.00193825
0.001773096
0.001752444
0.001811204
0.001941134
0.002188853
0.003769943
0.01441553
0.00944578
0.009279248
0.009376853
0.009978441
0.01633917
0.0107183
0.00712812
0.006709771
0.006516208
0.005086698
0.00445502
0.004487404
0.004549347
0.00473579
0.005872842
0.007809456
0.008027521
0.00822745
0.01189823
0.008013792
0.005051426
0.003736493
0.003251265
0.003131515
0.004430597
0.00400577
0.003823342
0.003901559
0.003972875
0.004119988
0.004661371
0.005244749
0.00397545
0.004025646
0.004580415
0.006729887
0.01050511
0.005689437
0.002822111
0.002225853
0.002770861
0.002721235
0.002883085
0.003573912
0.003443287
0.003459916
0.003572809
0.00365101
0.0037532
0.00402185
0.004319334
0.003610108
0.003560747
0.003707715
0.003483117
0.004411259
0.009499813
0.004043299
0.002015377
0.001501422
0.001877649
0.002246383
0.002343334
0.002576835
0.003019479
0.003094406
0.003241533
0.003408104
0.003518364
0.003611838
0.003759475
0.003860983
0.003410792
0.00327977
0.003277833
0.003110083
0.002875561
0.004119487
0.008604632
0.003128479
0.001465159
0.001461585
0.001351351
0.001608663
0.001889618
0.002099034
0.002384057
0.002688663
0.002863247
0.00309422
0.003309411
0.003451898
0.00355448
0.003657301
0.003698533
0.003364572
0.00317518
0.003043241
0.002901475
0.002738116
0.003237396
0.003645977
0.00770406
0.002702381
0.00121291
0.001166191
0.001229367
0.001269632
0.001524223
0.001845756
0.002172686
0.002510281
0.00272882
0.002886112
0.003065845
0.003244712
0.003389667
0.003503205
0.003582389
0.003598248
0.003346018
0.003136399
0.002940489
0.00276398
0.002598999
0.002810371
0.002895723
0.003167653
0.006526541
0.002574992
0.001136303
0.001018025
0.001057144
0.001187311
0.001400803
0.001845734
0.002401261
0.002950446
0.00335509
0.003525483
0.003556466
0.003513435
0.003450006
0.003407622
0.003415896
0.003445401
0.003455508
0.003293182
0.003072445
0.002842729
0.002648279
0.002470395
0.002508013
0.002524777
0.002512561
0.002636343
0.005230557
0.002637696
0.001126035
0.0007691555
0.0009560644
0.00108727
0.001346523
0.001891006
0.002799814
0.003846884
0.004696876
0.005142976
0.005135404
0.004840299
0.004410681
0.003952931
0.003566974
0.003319859
0.003206863
0.003176555
0.003096503
0.002926363
0.002712592
0.002512064
0.002336433
0.002299404
0.002278968
0.002331224
0.00167209
0.002234148
0.00445581
0.001438039
0.0007972822
0.0008124501
0.0009942695
0.001222805
0.001721708
0.002676418
0.003871908
0.00469308
0.005061548
0.005181042
0.005124787
0.004803859
0.004299839
0.003754342
0.003276868
0.002933548
0.002749283
0.002692123
0.002678413
0.00260652
0.002475776
0.002332563
0.002203687
0.0021611
0.002165654
0.002173492
0.002051579
0.001820097
0.003121069
0.002764603
0.00104802
0.0008639991
0.0008891984
0.001071814
0.001422486
0.002129348
0.003087473
0.00374457
0.004069949
0.00423474
0.004310529
0.004322433
0.004171859
0.003664725
0.003106203
0.002658369
0.002342487
0.002167986
0.002116952
0.002144487
0.002163532
0.002145243
0.002117103
0.002129362
0.0022335
0.002398038
0.002482391
0.00260354
0.003176664
0.003065891
0.00717728
0.001645451
0.0008413566
0.0008663475
0.0009491255
0.001148637
0.001583454
0.002286098
0.002993759
0.003688554
0.00411503
0.004227454
0.004231329
0.004304884
0.004479183
0.004444141
0.003502187
0.002745938
0.002272646
0.001987789
0.001847918
0.001823844
0.001863451
0.001950412
0.002138611
0.002513829
0.003046312
0.003518107
0.00360548
0.003757341
0.004607461
0.003662672
0.007021414
0.001493864
0.0007919186
0.0008604992
0.0009754271
0.001195712
0.001628275
0.002270429
0.003165707
0.004125097
0.004145956
0.003726626
0.003465963
0.003510274
0.0037646
0.00423514
0.004296714
0.003435248
0.002777278
0.00232288
0.00205119
0.001985707
0.002188013
0.002719013
0.003651872
0.004851078
0.005763711
0.00586614
0.005475916
0.004617083
0.004908454
0.003392661
0.006178854
0.001431306
0.001011396
0.0009394708
0.001008839
0.001208294
0.001623195
0.002344372
0.003649627
0.004352181
0.003206862
0.002605223
0.002478332
0.002638504
0.002996313
0.003513059
0.004141282
0.004337007
0.00388865
0.003509647
0.003559063
0.00439481
0.006122463
0.007699737
0.008707332
0.008552198
0.007449888
0.005922197
0.004649038
0.003531523
0.003366913
0.003497977
0.003841939
0.003280846
0.001180075
0.001016044
0.0009707092
0.001024163
0.001200811
0.001624292
0.002520092
0.004201348
0.003469619
0.00221335
0.001920042
0.00190985
0.002089545
0.002444844
0.002994431
0.003753028
0.004694325
0.005687303
0.006485882
0.007228272
0.008003844
0.007868698
0.007037863
0.005867861
0.00490497
0.004183982
0.003559431
0.002985052
0.002361445
0.002218506
0.002305551
0.002166354
0.00589135
0.002092231
0.001000626
0.0009541247
0.0009487826
0.001005212
0.001168443
0.001606561
0.002686484
0.004167205
0.002715891
0.001868235
0.00165268
0.001571405
0.001578969
0.001660263
0.001818907
0.002048924
0.002326159
0.002613393
0.002859919
0.002988508
0.003004549
0.003063121
0.003195559
0.003244798
0.003037953
0.002586674
0.002008221
0.001586401
0.001630868
0.001686482
0.001652025
0.001523494
0.003202643
0.002089536
0.001013175
0.0009511987
0.0009410033
0.0009900254
0.001135595
0.001544729
0.00256158
0.003610315
0.002811853
0.002013197
0.001737043
0.001573161
0.001453047
0.001352932
0.001284412
0.001256369
0.001268827
0.001322589
0.001423769
0.001573911
0.001753386
0.001903006
0.001953586
0.001877394
0.001670612
0.001430747
0.001236029
0.001165648
0.001246602
0.001341357
0.001355415
0.001357326
0.002612658
0.002246179
0.001076129
0.000992376
0.0009648266
0.0009979578
0.001115895
0.001437942
0.002202057
0.002999275
0.003033509
0.0025927
0.002160489
0.001905905
0.001698586
0.001486318
0.001298281
0.001167915
0.001099287
0.001085617
0.001121178
0.001193206
0.001279481
0.001351959
0.001386427
0.001371473
0.001313609
0.001250167
0.001212055
0.00120457
0.001223329
0.001247131
0.001248247
0.001259563
0.002328327
0.002559908
0.001187511
0.001072393
0.001021293
0.001032866
0.001115714
0.001335389
0.001833806
0.002432813
0.002754821
0.002933467
0.002811075
0.00249239
0.002202622
0.001874084
0.001551647
0.001313875
0.001171649
0.001099619
0.001082101
0.001107775
0.001162387
0.001229581
0.001294335
0.00134855
0.001397129
0.001426774
0.001438911
0.001429214
0.00139198
0.001336738
0.00128491
0.001308099
0.002436114
0.004510877
0.001543282
0.001273211
0.001148638
0.001115366
0.001152069
0.001278085
0.00155961
0.001937553
0.00223512
0.002542312
0.002884897
0.003045208
0.002865308
0.00246199
0.001977047
0.001591767
0.001361654
0.00123463
0.001172828
0.001160946
0.001188223
0.001243001
0.001313481
0.00140419
0.001484241
0.001548155
0.001589494
0.001597273
0.001570704
0.001536959
0.001555205
0.001766286
0.004226736
0.002240004
0.001610207
0.001376414
0.001258209
0.001235172
0.001282571
0.001410583
0.00160933
0.001799639
0.00199594
0.002343317
0.002819159
0.003194457
0.003098043
0.002532795
0.001960428
0.001611447
0.001426302
0.001324399
0.001274118
0.00126348
0.001283514
0.001328914
0.001397585
0.00146051
0.001511552
0.001546366
0.001562953
0.001579363
0.001651624
0.001871619
0.002643226
0.002742194
0.001360861
0.001304962
0.001262509
0.001257908
0.001285178
0.001343812
0.001430025
0.001524608
0.001614176
0.001795951
0.002182234
0.002737083
0.003187388
0.003042412
0.002375947
0.0018771
0.00162588
0.001494328
0.001415655
0.001369083
0.001347193
0.00135429
0.001390775
0.001426372
0.001452996
0.001464568
0.001457915
0.00144104
0.001433654
0.001459047
0.002816095
0.003402489
0.001641837
0.001463745
0.001371842
0.00133792
0.001337971
0.001355477
0.001378905
0.001399326
0.001421182
0.00148211
0.001674464
0.002080228
0.002620041
0.002962042
0.002692555
0.002116258
0.0017862
0.001635675
0.001549515
0.001485287
0.00143433
0.001410096
0.001418492
0.001432368
0.001440641
0.001438933
0.001432474
0.001437003
0.001473249
0.001551578
0.003090898
0.006008366
0.002223791
0.001784201
0.001587816
0.001476392
0.001426153
0.001403569
0.001386147
0.001360034
0.0013297
0.001325597
0.001394432
0.001608288
0.001991574
0.002393601
0.002524069
0.002237773
0.001871908
0.00170156
0.001625982
0.001568679
0.001512531
0.001472453
0.001459164
0.001453369
0.001440307
0.001419458
0.001404941
0.001432966
0.00155955
0.001919553
0.004737042
0.003462224
0.001750444
0.001588859
0.001497109
0.001439022
0.001402876
0.001370145
0.001327179
0.001274835
0.001238409
0.001247502
0.001343257
0.001553858
0.0018337
0.002033538
0.002030681
0.001840186
0.001669955
0.001610813
0.001580682
0.001541974
0.001503654
0.001482388
0.001464566
0.001435467
0.001394146
0.001349211
0.001331621
0.001402026
0.002662763
0.006396828
0.002503374
0.001558725
0.001493166
0.001436633
0.001389445
0.001344954
0.001293064
0.001230345
0.001172165
0.001144439
0.001170945
0.001272438
0.001433852
0.001580809
0.001643428
0.001617444
0.00154353
0.001511723
0.001514816
0.001505739
0.001481719
0.001462119
0.00144657
0.001422865
0.001388034
0.001340808
0.001228353
0.001851877
0.004329789
0.005769834
0.002344201
0.00189645
0.001664153
0.001506368
0.001391282
0.001294699
0.001202917
0.001118342
0.001059531
0.00104363
0.00108167
0.0011628
0.00124865
0.001302072
0.001320959
0.001330666
0.001354179
0.001389987
0.001412645
0.001410667
0.001394654
0.001394344
0.001407717
0.001413853
0.001479072
0.001652558
0.003517826
0.005129005
0.002082395
0.001724595
0.001515513
0.001362398
0.001244181
0.001141171
0.001048599
0.0009762392
0.0009402691
0.0009432916
0.000975686
0.001016538
0.001047701
0.001070923
0.001107373
0.001169065
0.001231612
0.001288201
0.001313955
0.001292904
0.001308906
0.001398644
0.001438748
0.001581707
0.003229243
0.004740437
0.00195458
0.001606514
0.001376012
0.001230904
0.001100965
0.0009937469
0.0009104555
0.0008561942
0.0008323805
0.0008334273
0.0008467753
0.0008631693
0.00088727
0.0009358992
0.001017899
0.001082871
0.001158198
0.001224937
0.001202714
0.001199029
0.001446803
0.001542094
0.003258502
0.004440699
0.001857406
0.001184184
0.001081018
0.0009892694
0.0009014262
0.0008251948
0.0007677633
0.0007371991
0.0007301503
0.0007356726
0.0007487034
0.0007755135
0.0008311777
0.0009302521
0.0009733592
0.001061103
0.001181095
0.001165583
0.001088074
0.001624004
0.003305205
0.004189368
0.001721085
0.001101766
0.000992864
0.0008701368
0.0007727585
0.0007171408
0.000692268
0.0006832908
0.0006837053
0.0006943241
0.0007220729
0.0007883207
0.0009234588
0.0009165938
0.001025804
0.001222063
0.0011911
0.001640589
0.003662202
0.00406285
0.002017894
0.001235738
0.0008699988
0.0007211282
0.0007670372
0.0007386335
0.000699208
0.0006823025
0.000688483
0.0007204811
0.0008197973
0.001013641
0.0008892916
0.00108294
0.001450609
0.002245185
0.003945235
0.003571244
0.001931398
0.001521679
0.001265918
0.0009396164
0.0007577177
0.0007295982
0.000740131
0.000787852
0.0009886483
0.001401223
0.001710684
0.002105219
0.003653994
0.002755782
0.001638873
0.001514907
0.001519891
0.001645244
0.002758468
0.01205239
0.007834408
0.007401396
0.007081081
0.00722049
0.007265093
0.00745456
0.008126506
0.009437592
0.015465
0.009323663
0.005940062
0.005400912
0.004082375
0.003525622
0.004840386
0.004840139
0.00492964
0.004967561
0.005041816
0.00510779
0.004184339
0.005047052
0.006014598
0.006174425
0.01001391
0.006336555
0.003132796
0.003846487
0.003755244
0.003356662
0.003316219
0.003933027
0.003921541
0.003977274
0.003990079
0.004011015
0.004069837
0.003708325
0.004056553
0.004288568
0.004100333
0.003557505
0.007058718
0.00570395
0.003479302
0.003374841
0.002665767
0.003062257
0.003076429
0.003032395
0.00317666
0.003549391
0.003635843
0.003699148
0.003701258
0.003680272
0.003642438
0.00343191
0.003475302
0.003438563
0.003319185
0.003021978
0.003895835
0.004424144
0.007316206
0.004432072
0.002002759
0.002396287
0.002524187
0.002335653
0.002642613
0.002790147
0.002912271
0.003135153
0.00344172
0.003591984
0.003687885
0.003708167
0.003677582
0.00359887
0.003406902
0.003302881
0.003138837
0.002942082
0.002725804
0.003106729
0.003184969
0.003119659
0.007124028
0.003526084
0.001562024
0.001639992
0.00190799
0.002047338
0.002090502
0.002364915
0.002568763
0.002764726
0.003022244
0.003317601
0.003535961
0.00369775
0.003779935
0.003791964
0.003723205
0.003542455
0.003367251
0.00313602
0.002867204
0.002655975
0.002745646
0.002737072
0.00264863
0.003034887
0.006676429
0.002848998
0.001239776
0.001260664
0.001378301