/*--------------------------------*- C++ -*----------------------------------*\
  =========                 |
  \\      /  F ield         | OpenFOAM: The Open Source CFD Toolbox
   \\    /   O peration     | Website:  https://openfoam.org
    \\  /    A nd           | Version:  6
     \\/     M anipulation  |
\*---------------------------------------------------------------------------*/
FoamFile
{
    version     2.0;
    format      ascii;
    class       volScalarField;
    location    "50";
    object      k;
}
// * * * * * * * * * * * * * * * * * * * * * * * * * * * * * * * * * * * * * //

dimensions      [0 2 -2 0 0 0 0];

internalField   nonuniform List<scalar> 
140018
(
0.004215514
0.004035718
0.003848277
0.003747196
0.00402615
0.004028154
0.004057848
0.003927235
0.003773625
0.003628647
0.003463747
0.00333593
0.002704408
0.002812006
0.003276474
0.003446384
0.003580354
0.003599054
0.003547345
0.00344225
0.003290536
0.003127143
0.003045112
0.002904999
0.002507766
0.002760495
0.00282007
0.002778751
0.002756632
0.00297399
0.003132037
0.003188274
0.003144768
0.003026276
0.002876831
0.002775783
0.002696472
0.002539303
0.002716399
0.002920319
0.002909648
0.002819432
0.002673953
0.002538838
0.00268337
0.002788157
0.002789161
0.002720572
0.002634349
0.002596339
0.002610451
0.002460814
0.002547033
0.0029596
0.003090317
0.00311052
0.003067693
0.002976906
0.002853241
0.002721481
0.002641217
0.002631059
0.002625279
0.002638676
0.0027171
0.002931042
0.002980786
0.002828222
0.002853467
0.003119992
0.003245893
0.003296908
0.003292186
0.00325126
0.003191705
0.003129086
0.003071291
0.003010749
0.002981538
0.002968066
0.002953141
0.003020016
0.002992356
0.002815335
0.002155678
0.002881506
0.003170327
0.003317806
0.003378695
0.00337255
0.0033195
0.003236637
0.003140375
0.003043317
0.002955746
0.00288505
0.002843135
0.002846548
0.002906495
0.002985791
0.002997092
0.003018328
0.002330292
0.002908997
0.003220998
0.003392565
0.003470148
0.003470902
0.003417756
0.003330281
0.003225966
0.003123387
0.003043298
0.003004007
0.003016589
0.003078802
0.003171715
0.00326506
0.003346441
0.003454577
0.002258423
0.002910575
0.003277948
0.003459824
0.003557234
0.003572955
0.003530741
0.003453349
0.003358122
0.003263731
0.003195512
0.003174169
0.003206565
0.003283904
0.00338367
0.003483175
0.003572772
0.003624845
0.002710618
0.002996159
0.003343921
0.003496049
0.003606865
0.003639905
0.003608633
0.003541974
0.003458134
0.003370632
0.003306398
0.003287486
0.003322157
0.003402229
0.003506139
0.003612831
0.003705075
0.003816714
0.003492699
0.003495526
0.003527278
0.003622471
0.003675035
0.003652595
0.003597322
0.003528803
0.003450403
0.003387043
0.003361051
0.003385464
0.003456414
0.0035577
0.003675738
0.00380034
0.003740723
0.00400782
0.003652822
0.003624575
0.003690645
0.003671795
0.003623985
0.00357439
0.003511038
0.003452302
0.00341853
0.003425626
0.003476368
0.003561542
0.003669508
0.003838401
0.004000147
0.003850532
0.003681694
0.003703457
0.003678526
0.003629022
0.003595906
0.003555178
0.003510795
0.003476951
0.003469313
0.003498265
0.003562938
0.003654253
0.004011205
0.004006544
0.003834921
0.003773294
0.003692211
0.00362564
0.003593875
0.003580682
0.003560438
0.003541004
0.003530248
0.003541086
0.003580898
0.003673436
0.003905272
0.003838332
0.003972274
0.003749938
0.003642485
0.003572358
0.003587977
0.00359647
0.003604137
0.003602328
0.003605208
0.003629717
0.003615658
0.003660528
0.003680059
0.003548698
0.00358011
0.003600305
0.003638453
0.003602379
0.003257734
0.003417325
0.003527174
0.003468219
0.003247344
0.003627598
0.003928656
0.004301475
0.00477869
0.005355521
0.005967093
0.006472497
0.006839313
0.006891395
0.003137697
0.003437764
0.003608677
0.003385247
0.003368392
0.003456994
0.003659068
0.004012806
0.004550614
0.005200445
0.005838405
0.006350843
0.006573075
0.006288046
0.003586123
0.004042978
0.00396079
0.003962842
0.003901654
0.003812509
0.003707604
0.003608022
0.003574377
0.003678663
0.004004181
0.004580661
0.005195972
0.005665412
0.005809659
0.005644792
0.003485086
0.003981938
0.004046612
0.004202351
0.004408249
0.004494192
0.004528122
0.004397507
0.004182993
0.003961158
0.00380216
0.003647933
0.003785091
0.004156311
0.004646024
0.004977931
0.005109881
0.004914706
0.003157772
0.00355257
0.003715643
0.004043638
0.004365457
0.004631064
0.004806596
0.004660652
0.004452478
0.004173235
0.003930707
0.003683717
0.003529283
0.00348772
0.003627005
0.003880557
0.004176031
0.004400775
0.004415375
0.004149753
0.002913871
0.00324639
0.003395654
0.003758445
0.00430232
0.005006624
0.005249197
0.005453879
0.005353943
0.004763483
0.00426117
0.003937822
0.003701019
0.003537723
0.003385804
0.003356458
0.003439662
0.003685143
0.003845351
0.003938416
0.003832684
0.00363422
0.00323035
0.003179857
0.003430486
0.003953664
0.004854758
0.005461254
0.006150243
0.006549271
0.006805157
0.006371884
0.005198217
0.004569156
0.004194318
0.003919992
0.003643564
0.003467678
0.003424954
0.003682168
0.003645945
0.003720661
0.003751434
0.003680797
0.002749472
0.003012764
0.003095133
0.003538453
0.004185748
0.004973879
0.005683475
0.005930908
0.00617003
0.006447043
0.006830814
0.006132411
0.005384615
0.004891089
0.004453423
0.004044388
0.003846572
0.003908316
0.00430633
0.004168209
0.004270925
0.00445849
0.004528566
0.004729346
0.003059506
0.003003653
0.003089741
0.003746374
0.004075434
0.004444518
0.00486976
0.005065557
0.005370558
0.00578712
0.00627831
0.006722116
0.006376744
0.005742899
0.005430387
0.005445102
0.006097647
0.007736814
0.008606573
0.008826792
0.007251361
0.006318694
0.005590377
0.004979015
0.003188802
0.003038256
0.003121001
0.00365452
0.003815564
0.00418672
0.004325436
0.004511628
0.004830959
0.005321453
0.005998357
0.00683099
0.007717688
0.008433839
0.008855521
0.009373807
0.009938286
0.009887002
0.008450731
0.006168573
0.005062718
0.004077245
0.003493417
0.003022507
0.003339164
0.003101314
0.003084958
0.003329898
0.003636524
0.004006225
0.004045512
0.00405237
0.004115439
0.00426104
0.00449141
0.004784658
0.005102658
0.005395121
0.005594511
0.005626668
0.005552386
0.005520974
0.005411188
0.00503534
0.00426871
0.003250724
0.002965954
0.00277695
0.003492958
0.003258342
0.003048074
0.003602416
0.00405298
0.004228687
0.004140609
0.003974597
0.003820747
0.00371291
0.003653772
0.003631995
0.003640207
0.003687664
0.003795641
0.003977424
0.004211435
0.004399336
0.004444256
0.004310591
0.003807181
0.003371233
0.003256528
0.003162816
0.003615475
0.003537101
0.00320473
0.004224648
0.004816257
0.004873938
0.004645821
0.004307398
0.003969792
0.003694842
0.003499603
0.003375161
0.003303507
0.003292525
0.003348076
0.003459831
0.003594906
0.00370772
0.003762113
0.003740954
0.003684529
0.003648116
0.00359067
0.003537901
0.003694665
0.003741077
0.003487976
0.005383726
0.006343546
0.005940736
0.005547063
0.005003964
0.004435699
0.003956039
0.003617927
0.003413282
0.003281194
0.003214543
0.003213718
0.003274997
0.00338044
0.003507382
0.003638831
0.003749708
0.003846288
0.003923183
0.003918043
0.003907632
0.003738941
0.003839064
0.003716067
0.003598775
0.004722119
0.005951312
0.006425022
0.005991322
0.005203347
0.004446578
0.003898685
0.003600053
0.003415718
0.003307388
0.003264223
0.003287092
0.003371035
0.003507007
0.003675258
0.003842615
0.004033271
0.00407404
0.004113221
0.004142768
0.0037938
0.003899491
0.003909603
0.003808776
0.004064047
0.005079629
0.006074495
0.006544211
0.006131312
0.005151361
0.004296709
0.003857997
0.003616538
0.003476338
0.003398714
0.003382564
0.003432621
0.003542753
0.003679871
0.003830619
0.003999589
0.004058685
0.004112776
0.004156058
0.003984358
0.004016826
0.004065082
0.004040999
0.004006857
0.004278202
0.004987763
0.005856062
0.006382553
0.005913811
0.004787779
0.004139708
0.003822839
0.003660344
0.003563679
0.003514687
0.003531488
0.003599476
0.003712651
0.00387112
0.003914125
0.003965886
0.004019035
0.004058749
0.004179327
0.004228281
0.00423386
0.004185359
0.004093648
0.004330864
0.004892784
0.005655872
0.005969295
0.005257896
0.004411007
0.003986251
0.003807149
0.003717077
0.003647859
0.003635517
0.003638475
0.003706133
0.003821211
0.003852643
0.00388698
0.003920343
0.004241772
0.004210333
0.004208308
0.004158048
0.004074088
0.004012997
0.004191352
0.004687233
0.00511742
0.005140574
0.004581317
0.004068496
0.003860938
0.003811547
0.003737502
0.003725759
0.00370657
0.003784784
0.003806285
0.003833291
0.003855256
0.003856927
0.004299082
0.004226174
0.004164234
0.004053185
0.0039072
0.003736806
0.003865721
0.004116959
0.004358637
0.004299383
0.004013011
0.00380486
0.003786848
0.003722489
0.00374263
0.003737406
0.003750638
0.003787957
0.003823295
0.003821208
0.004212352
0.004087528
0.003967664
0.003809131
0.003605066
0.003407002
0.003257001
0.00348901
0.003658788
0.003724155
0.003636476
0.003622184
0.003643984
0.003664722
0.003674643
0.003684453
0.003729151
0.003694276
0.003904568
0.003739366
0.003595152
0.003424371
0.003244603
0.003086793
0.003016131
0.003062425
0.003204834
0.00336702
0.00345255
0.003498937
0.003568779
0.00361379
0.003599071
0.003594838
0.003523495
0.00339428
0.003217753
0.003074952
0.002943765
0.002866838
0.002879166
0.002982528
0.00313566
0.003258099
0.003339593
0.003453249
0.003566131
0.003437446
0.003029434
0.002907002
0.002800194
0.002736648
0.002739986
0.00281718
0.002948815
0.003076889
0.003167893
0.003241324
0.006060002
0.006505885
0.006935203
0.007209856
0.007363424
0.00744212
0.007452469
0.007439723
0.004616266
0.005174181
0.005507784
0.00570212
0.006142262
0.006626209
0.006992918
0.007252273
0.0074256
0.007512534
0.007590052
0.007604075
0.007062359
0.00633759
0.00370799
0.00404666
0.004398298
0.004681704
0.004957934
0.005427823
0.00598873
0.006501418
0.006938568
0.007281952
0.007501844
0.007664749
0.007710683
0.007245735
0.006543642
0.006510431
0.003007959
0.003229407
0.003273732
0.003410256
0.003683662
0.004513721
0.004988676
0.005444111
0.005935668
0.006432866
0.006892995
0.00725766
0.007455359
0.007569055
0.007551323
0.0073885
0.006780901
0.006676391
0.006428599
0.005914139
0.002645428
0.00278093
0.002913601
0.003008901
0.004250033
0.005104842
0.005713591
0.006190151
0.006513565
0.006748071
0.006954881
0.007159324
0.007342987
0.007407072
0.007445858
0.00742523
0.007360974
0.006753777
0.006723305
0.006458853
0.005919501
0.005486257
0.002492862
0.002603175
0.002684069
0.002889949
0.00511768
0.006630854
0.007493886
0.007933419
0.008185674
0.008283348
0.008222601
0.008010369
0.007744975
0.007526761
0.007347931
0.007240977
0.007148759
0.007104645
0.006627664
0.00648918
0.006341599
0.005864531
0.005302639
0.004739292
0.002471281
0.002669557
0.002881006
0.005368021
0.007219183
0.008139203
0.008722673
0.008972686
0.008974676
0.00880889
0.008576386
0.008313953
0.007929726
0.007425544
0.007053085
0.006852428
0.006706935
0.006648219
0.00631939
0.006144509
0.005956115
0.005613163
0.005066558
0.004397635
0.002564859
0.002776204
0.002966993
0.00484083
0.006481277
0.007240508
0.007768934
0.008134504
0.008320222
0.00828239
0.007907419
0.007463519
0.007141527
0.006862901
0.006508846
0.006270398
0.00608567
0.006007639
0.005993583
0.005798758
0.005661116
0.00555124
0.005281511
0.004787868
0.004152045
0.003645645
0.002420192
0.00271762
0.002953135
0.003889781
0.005336053
0.006281309
0.00714573
0.007869658
0.008428419
0.008774116
0.008979597
0.008790259
0.007794677
0.00679074
0.006091503
0.005628236
0.005379892
0.005242934
0.00523391
0.005240419
0.005180514
0.005141419
0.005175275
0.005156169
0.004869982
0.00454301
0.004233036
0.004027978
0.002525653
0.002797567
0.003100913
0.00429336
0.005381895
0.006468167
0.00757815
0.008300366
0.008720627
0.00898116
0.009248049
0.009541925
0.009385627
0.007741917
0.006516084
0.005757668
0.005285835
0.004991908
0.004870228
0.004838649
0.004878598
0.005041216
0.005438254
0.005827953
0.005483315
0.005668402
0.005797389
0.005641664
0.002700631
0.002955737
0.003398373
0.004396936
0.00551879
0.00700768
0.008005736
0.008074643
0.007952137
0.007840319
0.008046242
0.00846914
0.009110199
0.008903406
0.007571573
0.006643906
0.0059559
0.005468037
0.005267166
0.005383613
0.005868425
0.006778681
0.007945682
0.008748139
0.007898723
0.00722516
0.007061495
0.006734444
0.002593027
0.002834819
0.003071519
0.003531387
0.004569173
0.005903019
0.0077991
0.007529382
0.006604438
0.006299851
0.00631695
0.006676612
0.007292309
0.008095965
0.008957704
0.009023774
0.008259005
0.007687901
0.007637802
0.008459519
0.01027992
0.01185371
0.01275287
0.01239663
0.01118688
0.009231296
0.006723887
0.006116155
0.005686724
0.004987077
0.00268535
0.002877428
0.003119747
0.003609678
0.004718479
0.006442478
0.007943604
0.006119867
0.005431473
0.005270051
0.005371927
0.00572531
0.006334438
0.007216698
0.008352721
0.009643681
0.01084742
0.01166337
0.01239953
0.01318463
0.01319705
0.01197423
0.009784612
0.008548507
0.007590793
0.00662819
0.004860445
0.003846915
0.003322407
0.00285612
0.002784793
0.002952064
0.003182212
0.003671349
0.004897497
0.006941565
0.007283097
0.005331537
0.005004204
0.004852299
0.004779445
0.004807243
0.004940416
0.005193764
0.00555336
0.005976591
0.006403457
0.006760722
0.006944395
0.006981155
0.007030856
0.007048591
0.006798613
0.006256857
0.00571104
0.00472008
0.003502846
0.002611531
0.002705776
0.002913242
0.002883047
0.003039019
0.003258118
0.003680667
0.00489524
0.006763669
0.007200961
0.00573163
0.005303476
0.005051064
0.004810038
0.004583355
0.004376227
0.004225948
0.004147819
0.004143428
0.004219188
0.004390749
0.004657589
0.00497515
0.005219038
0.005264692
0.005085533
0.004612151
0.004065138
0.003548446
0.003229981
0.003188093
0.00318699
0.003230223
0.002989219
0.003135452
0.003342274
0.003659818
0.004612155
0.006135504
0.006915408
0.00667885
0.006268195
0.005837184
0.005438108
0.005021229
0.004580503
0.004197821
0.00392886
0.003773702
0.003728627
0.003789102
0.00392645
0.004087201
0.004205081
0.004229348
0.004139137
0.003972184
0.003787752
0.003625076
0.003518565
0.003529858
0.003435803
0.003377721
0.003107152
0.003242772
0.003433789
0.003640809
0.004271148
0.005383552
0.006357554
0.006900415
0.007244514
0.007058126
0.006532457
0.005934559
0.005244225
0.004604036
0.004149397
0.003864652
0.003709504
0.003667061
0.003716585
0.003822552
0.003943992
0.004046397
0.004127213
0.004134279
0.004088147
0.004011647
0.003915137
0.003873453
0.003687745
0.00354045
0.003219853
0.003344642
0.003518464
0.003630469
0.004003829
0.004675902
0.005390843
0.005993264
0.006774134
0.00752344
0.007700205
0.007175143
0.006276952
0.005307946
0.004608426
0.004187466
0.003936829
0.003809746
0.003787383
0.003846554
0.003958198
0.004105622
0.004221597
0.004276079
0.004287851
0.004264645
0.004189777
0.004147338
0.003935004
0.003738927
0.003420683
0.003485035
0.003630314
0.003658893
0.003852435
0.004196208
0.004625445
0.005092746
0.005701103
0.006602573
0.007575258
0.00807744
0.007503245
0.006245777
0.005205358
0.004611396
0.004271183
0.004067951
0.003969019
0.003956042
0.004006015
0.004107487
0.004179826
0.004218243
0.004234331
0.004231155
0.004198991
0.004222687
0.004090029
0.003872677
0.00371735
0.003845644
0.003813192
0.003865888
0.00401371
0.004196655
0.00438736
0.004687852
0.00532505
0.006346597
0.007491778
0.008102092
0.007264249
0.005879316
0.005046761
0.004617208
0.004356297
0.004191883
0.004100865
0.004078445
0.004096207
0.004104422
0.004101409
0.00408978
0.004055932
0.004042948
0.004086705
0.00400922
0.003891989
0.004008175
0.00414445
0.004094255
0.00413693
0.004192378
0.00424053
0.004313748
0.004561959
0.005178819
0.006214252
0.007300325
0.007617056
0.006522493
0.00542381
0.004886585
0.004590524
0.004390785
0.004250591
0.004173029
0.00412274
0.004084397
0.004051252
0.004019036
0.00398062
0.003980747
0.003852596
0.003741875
0.003952778
0.004010879
0.004135921
0.004065243
0.004039105
0.004037093
0.004012031
0.003985874
0.004054982
0.004370153
0.005066512
0.006032147
0.006773931
0.006625099
0.005667172
0.005000423
0.004669336
0.004476173
0.004339922
0.004242104
0.004154479
0.004090145
0.004022346
0.00394631
0.003889803
0.003875324
0.003725899
0.003535102
0.004138418
0.004205617
0.004288355
0.00416877
0.004094528
0.004026651
0.00394824
0.003908656
0.004013064
0.00436555
0.004949546
0.005569154
0.005811492
0.005494648
0.004892297
0.004551821
0.004405742
0.004307279
0.004226226
0.004131868
0.004063973
0.003977146
0.003912922
0.003897503
0.003823449
0.003639797
0.004187462
0.004241345
0.00427607
0.004094385
0.003975773
0.003852943
0.003752257
0.003734055
0.003857125
0.004139777
0.004505173
0.004726957
0.004723914
0.0045464
0.004291532
0.004187589
0.004158022
0.00412172
0.004009814
0.003936266
0.003833696
0.00376266
0.003665221
0.003544266
0.004057544
0.004007346
0.004000113
0.003977591
0.003766789
0.00361815
0.003483126
0.003407347
0.003425436
0.003547195
0.003715014
0.003841014
0.003909898
0.00395398
0.003929154
0.003890749
0.00391838
0.003943598
0.00380578
0.003775851
0.003677476
0.003558775
0.00346123
0.003279115
0.003901647
0.003790055
0.003726886
0.003651492
0.003392728
0.003227389
0.003119581
0.003073597
0.003095961
0.003147838
0.003204785
0.003279928
0.003389905
0.00348637
0.003534967
0.003609201
0.003717095
0.003581058
0.003626426
0.003522595
0.003382497
0.003237066
0.00366774
0.003583014
0.003420124
0.003305389
0.003187064
0.002969969
0.002837747
0.002760909
0.002731968
0.002754388
0.002831418
0.002952052
0.003073467
0.00317124
0.003337651
0.00347466
0.0033911
0.00346333
0.00339919
0.003160433
0.003260522
0.003111396
0.002968634
0.002834842
0.002705119
0.002606391
0.002547884
0.002544182
0.002600398
0.002704738
0.002819332
0.002922463
0.003127748
0.003256189
0.003168931
0.003206863
0.002841263
0.002714841
0.002598312
0.002465503
0.002400262
0.00236748
0.002374392
0.002424972
0.002510329
0.002600911
0.002688015
0.002901489
0.003054215
0.002985407
0.002329916
0.002275615
0.002249003
0.002257648
0.002301697
0.002370848
0.002438785
0.002514286
0.006607979
0.006914849
0.00710993
0.007168255
0.007183338
0.007192709
0.005429435
0.005972324
0.006415774
0.006885882
0.006962636
0.007274653
0.007471066
0.007542986
0.007580342
0.007657452
0.00775648
0.007223102
0.006570776
0.005827646
0.004511464
0.005057689
0.005441037
0.006029902
0.006447358
0.00654277
0.006899917
0.007331629
0.007567421
0.007662463
0.007686653
0.007649928
0.007615908
0.007518518
0.006922798
0.006192568
0.006075023
0.005372666
0.003989441
0.00431083
0.004815774
0.005068734
0.005773666
0.006222257
0.006378825
0.006958128
0.007503727
0.007826808
0.007991201
0.00804392
0.007974157
0.00781517
0.007724173
0.007101353
0.00630382
0.006407942
0.005739341
0.005557943
0.003407976
0.003699339
0.004036617
0.004379989
0.004730593
0.005467161
0.005900079
0.006084188
0.006769124
0.00745917
0.007925421
0.008229849
0.008393108
0.008378699
0.008263838
0.008156646
0.007521855
0.006603549
0.006599562
0.006119797
0.005875116
0.005576782
0.002921982
0.003131729
0.003310979
0.003760701
0.004077619
0.004467182
0.005259659
0.00574572
0.00583399
0.00655109
0.007318584
0.007852409
0.008225365
0.008499984
0.008598279
0.008615296
0.008592597
0.008000169
0.007109881
0.006871685
0.006439716
0.005931304
0.00569295
0.005303022
0.002587461
0.002747934
0.002886714
0.00315627
0.003756297
0.004215745
0.004784325
0.005751139
0.006395854
0.006424711
0.0069087
0.00746412
0.007882747
0.00820799
0.008461333
0.008542155
0.00858011
0.00871919
0.008306744
0.007521172
0.007189855
0.006700409
0.006010459
0.005574442
0.005211283
0.00467524
0.002332698
0.00249609
0.002627639
0.002875466
0.003334237
0.004262786
0.005300973
0.006474768
0.007802375
0.008660557
0.008817917
0.008858086
0.008802737
0.008654731
0.008517313
0.008462394
0.008393001
0.008372892
0.008528217
0.008251104
0.007592156
0.007240615
0.006753712
0.006025164
0.005413343
0.004918445
0.004417218
0.003780604
0.00213081
0.002308072
0.002530266
0.00270719
0.003186346
0.004009171
0.005648836
0.007835118
0.01015287
0.01205648
0.01309396
0.01312277
0.0125086
0.0115577
0.01047542
0.009487407
0.008755179
0.008278354
0.008036769
0.008061822
0.007902294
0.007408356
0.007053081
0.006607959
0.005942299
0.005318083
0.004662803
0.004292241
0.003671148
0.003020172
0.00215584
0.00237866
0.002645945
0.003035628
0.003805475
0.005272899
0.007773897
0.01061943
0.01261553
0.01366037
0.01416514
0.01425272
0.01365934
0.01250623
0.01111281
0.009768567
0.008670406
0.007915945
0.007474127
0.007347807
0.007243442
0.006933354
0.006663458
0.006349017
0.005857961
0.00539066
0.004789774
0.004508642
0.004075896
0.003552997
0.002186349
0.00228653
0.002440581
0.002855899
0.003446182
0.004578815
0.006550923
0.008991878
0.01062718
0.01147157
0.01195867
0.01226266
0.01247744
0.01241539
0.01145569
0.01010886
0.008858005
0.007827207
0.007094418
0.006645803
0.006471657
0.006403779
0.006268673
0.006167697
0.006117102
0.006008282
0.005871425
0.005625175
0.005225604
0.004851581
0.004578002
0.004030625
0.002227165
0.002408289
0.002579486
0.003068744
0.00381142
0.005197207
0.007119992
0.008833025
0.01033468
0.01124482
0.01151488
0.01156345
0.0117771
0.01224462
0.01248227
0.01069555
0.008913753
0.007658796
0.006782534
0.006221625
0.005945958
0.005856291
0.005866949
0.00608073
0.006579901
0.007192526
0.007484311
0.007587705
0.007303218
0.006378451
0.00631874
0.005834117
0.002331866
0.002535896
0.002753154
0.003268502
0.004085043
0.005421488
0.007049
0.008981353
0.01082891
0.01085236
0.01007462
0.009607972
0.009722046
0.01025526
0.01122033
0.01169127
0.01003784
0.008564997
0.007463085
0.006713937
0.006352412
0.006419769
0.006962536
0.00812197
0.009718013
0.01103525
0.01105626
0.01004877
0.008825991
0.007261156
0.006855341
0.006207263
0.002474878
0.002573478
0.002855798
0.003346511
0.004119084
0.005333828
0.007037014
0.009688751
0.01072784
0.008750344
0.00770853
0.007472365
0.00778113
0.008478982
0.009498805
0.01075521
0.01133412
0.01057358
0.009643405
0.009322275
0.01003364
0.01173927
0.01362501
0.01515866
0.01557105
0.01450488
0.01229946
0.009674089
0.007840119
0.006374077
0.005395968
0.004974649
0.002446407
0.00259936
0.002656996
0.00293969
0.003376454
0.004073546
0.005270649
0.007288931
0.01035526
0.008917163
0.006832672
0.006284903
0.00624494
0.006552477
0.007164254
0.008106186
0.009389076
0.01093466
0.01250052
0.01366417
0.01457303
0.01555499
0.01575623
0.01487791
0.01307421
0.01143999
0.01008439
0.008739751
0.00722121
0.006120168
0.005292856
0.004583405
0.004012831
0.003653033
0.002513784
0.002662726
0.002734945
0.00300034
0.003397649
0.004022001
0.005211089
0.007464643
0.009877598
0.007627819
0.006180693
0.005795826
0.005650911
0.005643054
0.005730352
0.005937081
0.006285317
0.006756109
0.007297854
0.00783603
0.008245026
0.008486427
0.008685048
0.008846453
0.008687678
0.008145596
0.007406309
0.006068442
0.004892097
0.004656743
0.004404416
0.00393245
0.003575429
0.003400931
0.002617696
0.002749547
0.002815457
0.003054052
0.003416612
0.003970294
0.005051643
0.007089759
0.008903185
0.007897205
0.006571601
0.006102632
0.005840405
0.005616257
0.005355768
0.005099344
0.004920997
0.004868092
0.004960732
0.005207896
0.005594369
0.006052336
0.006431145
0.006560401
0.006360291
0.005797602
0.00507591
0.004380094
0.00393451
0.003908287
0.003902724
0.003648489
0.003396157
0.003102522
0.002744468
0.002860918
0.002909379
0.003117114
0.003441156
0.003925659
0.004801108
0.006366815
0.007840297
0.008131702
0.007743343
0.007087509
0.006693329
0.006343566
0.005878183
0.005349085
0.004898626
0.00461401
0.004516141
0.004594039
0.00480187
0.005062037
0.005279702
0.005370095
0.005284356
0.005028578
0.004713912
0.004453839
0.004245027
0.004072034
0.003870911
0.003551255
0.003232244
0.002861742
0.002876477
0.00298735
0.003018938
0.003199177
0.003482571
0.003891321
0.004528456
0.00562494
0.006812104
0.007533503
0.008112553
0.008280721
0.007958283
0.00754872
0.006933622
0.006148496
0.005433804
0.004934619
0.004657566
0.004576293
0.004650153
0.004820495
0.005019273
0.005182448
0.005270593
0.005319734
0.00528091
0.005159227
0.004940035
0.004605931
0.0041715
0.003646868
0.00323414
0.002819777
0.003034391
0.003125502
0.003120126
0.003277959
0.003526282
0.003864666
0.004321757
0.005017599
0.00583126
0.00648458
0.0071789
0.008048207
0.008755712
0.008851252
0.00829693
0.007298558
0.006284978
0.005556673
0.005112122
0.00488827
0.004838371
0.004915184
0.005063833
0.005226127
0.005427949
0.005560512
0.005606165
0.005543062
0.005329982
0.004947935
0.004433383
0.003848274
0.003465533
0.00293808
0.003357439
0.0032826
0.003375076
0.00359729
0.003879594
0.004213287
0.00461628
0.005113019
0.005561497
0.006012433
0.006796223
0.007933317
0.009055482
0.00942833
0.008580562
0.007291385
0.006302178
0.005695417
0.005344008
0.005166148
0.005113278
0.005141965
0.00522007
0.005356636
0.005440293
0.005448711
0.005356883
0.005130454
0.004765848
0.004300887
0.003946384
0.003785311
0.003509205
0.003661736
0.003673925
0.003834661
0.004053642
0.004306062
0.004568879
0.004825762
0.005085419
0.005312038
0.005712715
0.006546238
0.007814947
0.009099715
0.009412088
0.008264566
0.007026528
0.006260548
0.005818033
0.005545524
0.005368895
0.00525198
0.005204696
0.005240306
0.005241009
0.005180873
0.00503775
0.004796915
0.004476124
0.004114355
0.003855614
0.003588828
0.003621197
0.003780831
0.003812747
0.003972028
0.004179648
0.004406868
0.004619882
0.00478621
0.004889862
0.004977467
0.005108065
0.005490617
0.006353361
0.007633784
0.008753481
0.00873028
0.007587062
0.006673279
0.006173696
0.005870939
0.005630027
0.005407856
0.00525784
0.005198747
0.005124691
0.004992208
0.004777378
0.004483914
0.004144981
0.003818205
0.003651381
0.003399073
0.003674613
0.00381016
0.003785409
0.003894776
0.004109859
0.00432955
0.004520016
0.004646756
0.004679053
0.004644431
0.004648107
0.004786261
0.005252005
0.006150659
0.007246874
0.00794025
0.007682211
0.006832985
0.006280406
0.005994644
0.005767577
0.005512604
0.005307512
0.005179321
0.005045882
0.004851346
0.004575503
0.004227184
0.003851595
0.003566443
0.003446683
0.003129841
0.00388951
0.004038331
0.00403717
0.004132929
0.004303582
0.004449747
0.004537101
0.00453758
0.004454749
0.004374614
0.004376165
0.004573845
0.005072196
0.005830158
0.006551131
0.006870553
0.006595801
0.006083937
0.005821617
0.005677152
0.005452863
0.005236371
0.005076264
0.00489136
0.004649498
0.00434819
0.003983933
0.003688587
0.003468426
0.003248564
0.003841565
0.003927336
0.004060361
0.004094318
0.004191056
0.004273935
0.004305212
0.00427338
0.00416537
0.004027934
0.0039508
0.004003529
0.004267236
0.004744296
0.005285343
0.005683569
0.005797968
0.005597292
0.005392121
0.005363171
0.005201409
0.00499882
0.004838223
0.004606047
0.004318632
0.00401132
0.003676437
0.003444663
0.003191503
0.002950037
0.003969759
0.004028928
0.003909833
0.00389355
0.003918995
0.003913048
0.003859759
0.003746161
0.003591933
0.00348478
0.003486729
0.003642742
0.003945629
0.004313125
0.004634085
0.004828742
0.004859346
0.004791776
0.004886627
0.004806409
0.004625822
0.004496776
0.004253908
0.003936353
0.003633815
0.003359112
0.003166367
0.002838677
0.003931769
0.003910192
0.003744296
0.003654436
0.003599361
0.003528251
0.003417294
0.003275284
0.003153776
0.003126353
0.003206789
0.003380474
0.003600169
0.003813064
0.003981326
0.004082985
0.004113085
0.004311835
0.004352215
0.004164624
0.004080241
0.003882116
0.003566815
0.003366807
0.003228705
0.002872617
0.00380873
0.003758518
0.00352257
0.003393587
0.003290425
0.00318061
0.003049605
0.0029288
0.002861208
0.002866741
0.002934373
0.003039759
0.003164459
0.003301847
0.003434405
0.003522672
0.003752173
0.003865979
0.003683383
0.003645616
0.003503585
0.003273294
0.003179467
0.002948001
0.003584441
0.003476362
0.003403803
0.00318795
0.003036856
0.002871339
0.002725123
0.002615296
0.002560544
0.002565163
0.002616201
0.002706124
0.002832271
0.002957709
0.003042468
0.003266414
0.003404792
0.003252475
0.00331718
0.003183497
0.003141213
0.00292468
0.003227012
0.003089981
0.002993183
0.002732743
0.002552824
0.002428771
0.002340961
0.002296168
0.002296639
0.002339578
0.002417361
0.002518047
0.002608728
0.002665435
0.002899197
0.003037436
0.002982682
0.00311585
0.002955927
0.002924145
0.002857109
0.002739647
0.002605411
0.002512487
0.002432722
0.002284213
0.00219988
0.002176294
0.002198914
0.002251292
0.002318729
0.002374362
0.002464395
0.002740313
0.002854098
0.002855047
0.002904342
0.002779357
0.0026308
0.002514831
0.002401997
0.002320608
0.002263128
0.002229522
0.002220337
0.002236827
0.00227338
0.002313661
0.00244347
0.002550469
0.002619451
0.002624095
0.002198859
0.002149442
0.002122584
0.002123544
0.002143554
0.002179284
0.005807715
0.006325138
0.006745253
0.00693964
0.00715701
0.007206434
0.00721616
0.007226374
0.007221604
0.006891474
0.005111129
0.005666517
0.006152445
0.006270815
0.006764085
0.006835466
0.007128984
0.007338835
0.007385913
0.007387839
0.007409099
0.007617204
0.007233735
0.006619003
0.005844431
0.005381684
0.004885015
0.005196193
0.005537982
0.006158978
0.006579081
0.007187719
0.007380287
0.007947796
0.008167047
0.008188072
0.008124902
0.00793726
0.007918744
0.007331939
0.006614978
0.005818601
0.005679074
0.00525448
0.003944598
0.004456071
0.004549311
0.005209605
0.005711834
0.006592748
0.007218454
0.00790972
0.008312549
0.008866005
0.009095454
0.009093627
0.008975152
0.008756385
0.008558373
0.007898037
0.007144893
0.006238007
0.005982901
0.005236886
0.005214641
0.004655653
0.003499682
0.003794447
0.004123772
0.004475436
0.005332889
0.006029959
0.006956794
0.007698336
0.008427549
0.008962667
0.009573142
0.009892958
0.009954509
0.009836943
0.009578885
0.009264349
0.008589755
0.007841982
0.007009095
0.006639657
0.005713691
0.005496738
0.005062723
0.004782674
0.003036478
0.003295742
0.003531598
0.003935243
0.004466976
0.005290071
0.006003459
0.006884808
0.007648186
0.00836783
0.008972099
0.009723037
0.01025582
0.01054563
0.01060652
0.01042978
0.01009474
0.009409622
0.0086405
0.007809792
0.00739619
0.006541116
0.006013501
0.005504187
0.005087778
0.004626143
0.002617588
0.002828316
0.003024857
0.003337039
0.003792447
0.004301064
0.004997963
0.005673182
0.006519872
0.007271807
0.007903506
0.008512785
0.009367496
0.01008807
0.01061777
0.01092808
0.01102161
0.01087923
0.01027744
0.009526144
0.008647802