/*--------------------------------*- C++ -*----------------------------------*\
  =========                 |
  \\      /  F ield         | OpenFOAM: The Open Source CFD Toolbox
   \\    /   O peration     | Website:  https://openfoam.org
    \\  /    A nd           | Version:  6
     \\/     M anipulation  |
\*---------------------------------------------------------------------------*/
FoamFile
{
    version     2.0;
    format      ascii;
    class       volScalarField;
    location    "50";
    object      k;
}
// * * * * * * * * * * * * * * * * * * * * * * * * * * * * * * * * * * * * * //

dimensions      [0 2 -2 0 0 0 0];

internalField   nonuniform List<scalar> 
140018
(
0.004171494
0.003988678
0.003799601
0.0036924
0.004057722
0.004038412
0.004040024
0.003900267
0.003739683
0.003584381
0.00341824
0.003283273
0.002839968
0.002906044
0.003372135
0.003519134
0.003612947
0.00360496
0.003533953
0.003412005
0.003250585
0.003079936
0.003005996
0.002873949
0.002553897
0.002792552
0.002845482
0.002811736
0.002808254
0.00301595
0.00315343
0.003187728
0.003124365
0.002993942
0.002841934
0.002752246
0.002695248
0.002563536
0.002717119
0.002913171
0.002898086
0.002805771
0.002661132
0.002562288
0.002701409
0.002793759
0.002782371
0.002711026
0.002630983
0.002609406
0.002655541
0.002522448
0.002507756
0.002935577
0.003067524
0.003087243
0.003046321
0.002960173
0.002843838
0.002721695
0.00266071
0.002659965
0.002662026
0.002689615
0.002791576
0.003069105
0.003096982
0.002915256
0.00283249
0.003099411
0.003226217
0.00328099
0.003282814
0.003250906
0.003202089
0.003150425
0.003102758
0.003052671
0.003033183
0.003018461
0.002985659
0.00305131
0.00301188
0.002851267
0.002144932
0.00285844
0.003142233
0.003289965
0.003353368
0.003351803
0.003304879
0.003228978
0.003139621
0.003048389
0.00296501
0.002897584
0.002859532
0.002866985
0.002934674
0.003019934
0.003034759
0.003052335
0.002313878
0.002878032
0.003186434
0.003360388
0.003440206
0.003444101
0.003395101
0.003312147
0.003212649
0.003115106
0.003040286
0.003006904
0.003026461
0.003095792
0.003193948
0.003288537
0.003366897
0.003464325
0.002227637
0.002871889
0.003244721
0.003432581
0.0035329
0.003551003
0.003512444
0.003438715
0.003347133
0.003256618
0.00319263
0.003176182
0.003214103
0.003296631
0.003399683
0.003499229
0.00358482
0.003631536
0.002509851
0.002894233
0.003310934
0.003473049
0.003589678
0.003623783
0.003595507
0.003531611
0.003450124
0.003365221
0.003304156
0.003289211
0.00332845
0.003412865
0.003519758
0.00362715
0.003717431
0.003826073
0.003358076
0.003455005
0.003500367
0.003611345
0.003664246
0.003644065
0.003590999
0.003523758
0.00344662
0.003385225
0.003362167
0.003390345
0.003465239
0.003569869
0.003689896
0.003814698
0.00369189
0.003962011
0.003600672
0.003615357
0.003685401
0.003667453
0.003621644
0.003572845
0.003509392
0.003451208
0.003418997
0.003428755
0.003482724
0.0035712
0.003681974
0.003852042
0.003957821
0.003800211
0.003659787
0.003703775
0.003678302
0.003630304
0.003598602
0.003556582
0.003511427
0.003477559
0.003471214
0.003502201
0.003569322
0.00366286
0.003982226
0.003991002
0.003816979
0.003771677
0.003695799
0.003629791
0.003601477
0.003585964
0.00356417
0.003543255
0.00353255
0.003544275
0.003585835
0.003680539
0.003888375
0.003832449
0.003975921
0.003756743
0.00364837
0.00358555
0.003597435
0.003604428
0.003609492
0.003607166
0.003609738
0.003636401
0.003611249
0.003676813
0.003686771
0.003566067
0.003593241
0.00361308
0.003647701
0.003613039
0.003273704
0.003446449
0.003546643
0.003486892
0.003199054
0.003553886
0.003835963
0.004186638
0.004644934
0.005214475
0.005836389
0.006365846
0.006759087
0.006824285
0.003115019
0.003403559
0.003570144
0.00334692
0.003320641
0.003386035
0.00355902
0.003883922
0.004403895
0.005055941
0.005712195
0.006246818
0.006488926
0.006221145
0.003581546
0.004027304
0.003946191
0.003945485
0.003881976
0.003787181
0.003674002
0.003560703
0.003506428
0.0035855
0.003889466
0.004454763
0.005070203
0.005552241
0.005716678
0.005553532
0.003532066
0.004027812
0.004085418
0.004222885
0.004407537
0.004475208
0.004494031
0.004351681
0.004129982
0.003909722
0.003736011
0.00356952
0.003691107
0.004050122
0.004537022
0.004875857
0.005010722
0.004815695
0.003225399
0.003624988
0.003778265
0.004092634
0.004391608
0.004636074
0.004767024
0.004604285
0.004393254
0.004118176
0.003891898
0.003644328
0.003486463
0.003430364
0.003550939
0.003796069
0.004090304
0.004313903
0.004329094
0.00406631
0.002970316
0.00331627
0.003448901
0.003810454
0.004344568
0.005024689
0.005240465
0.005390196
0.005241714
0.004665651
0.004198673
0.003904615
0.003686518
0.003532007
0.003367406
0.003323943
0.003392111
0.003629144
0.003789366
0.003887172
0.003788408
0.00360362
0.003289051
0.003237568
0.003475359
0.004013289
0.004952286
0.005579936
0.006251676
0.006616468
0.006776707
0.006206357
0.005127159
0.004561347
0.004215783
0.003952033
0.003661232
0.003468958
0.003414792
0.003696032
0.003653657
0.003747851
0.003808878
0.003756921
0.00279923
0.003078062
0.003148881
0.003578526
0.004267618
0.005158825
0.005913309
0.00615748
0.006368464
0.006583159
0.006848803
0.006007799
0.005368956
0.004912257
0.004480217
0.00406472
0.003891074
0.004037493
0.004568454
0.004402347
0.004538148
0.004758726
0.004809173
0.004975184
0.003105502
0.003058204
0.003135118
0.003799751
0.004265921
0.004613464
0.005048468
0.005230919
0.005528965
0.005930121
0.006383559
0.006735259
0.00631286
0.005756089
0.00552403
0.005662015
0.006561685
0.008609957
0.009231331
0.009000436
0.007391773
0.006337543
0.005506745
0.004849996
0.003226567
0.003086297
0.003154987
0.003755902
0.003921135
0.00427256
0.004416959
0.004629541
0.004985995
0.00551866
0.006236684
0.00709883
0.007989354
0.008675141
0.009131914
0.009693684
0.01016089
0.009709356
0.008099422
0.005957547
0.004927104
0.00396931
0.003406152
0.002946619
0.003370403
0.003137175
0.003135921
0.003414819
0.003644318
0.004002172
0.004057511
0.004093431
0.004189502
0.004366846
0.004623986
0.004935005
0.005256713
0.005532663
0.005684913
0.005641709
0.005488163
0.005448545
0.005377948
0.004990389
0.004198506
0.003219509
0.002946614
0.002775596
0.00352273
0.003269808
0.003068389
0.003559569
0.003964023
0.004140288
0.004073065
0.003936067
0.003812003
0.003728068
0.003683872
0.003669156
0.00367884
0.003724376
0.003829244
0.004007406
0.004234518
0.004404954
0.004429094
0.004277517
0.00378128
0.003364848
0.003246848
0.003153889
0.003648339
0.003540602
0.003186201
0.00408582
0.004613569
0.004688008
0.004497256
0.00419904
0.003903858
0.00366432
0.003491315
0.003378385
0.003313536
0.00330756
0.003367032
0.003480761
0.003614415
0.003721938
0.003768452
0.003740305
0.003680148
0.003643612
0.003584655
0.003532046
0.003730116
0.003752848
0.00345004
0.005422105
0.006078114
0.005672297
0.005314184
0.004814346
0.00430572
0.003883269
0.003583421
0.003397222
0.003275287
0.003216115
0.003221785
0.003288273
0.003396599
0.003523477
0.003652292
0.003758958
0.003850561
0.003923295
0.003914441
0.003900968
0.003773564
0.003859486
0.003683451
0.003552863
0.004833668
0.005973614
0.006262611
0.005739911
0.004999842
0.004321984
0.003838642
0.003570488
0.003399922
0.003300078
0.003264006
0.003293202
0.003382113
0.003521215
0.003690052
0.003855826
0.004042497
0.004080483
0.004116273
0.004142306
0.00382457
0.00392417
0.00390246
0.00375535
0.004099739
0.005232707
0.006140726
0.006441636
0.005897333
0.00496677
0.004205356
0.003817654
0.003595671
0.003464472
0.003393242
0.003383088
0.003438489
0.003552958
0.003692372
0.003843231
0.004011504
0.004069639
0.004122126
0.004163159
0.004006006
0.004040971
0.004074297
0.00402092
0.003964956
0.004295216
0.005067574
0.005915984
0.006318282
0.005713219
0.00465672
0.004087745
0.003800768
0.003648372
0.00355663
0.003512407
0.003533744
0.00360574
0.003721716
0.003881232
0.003925391
0.003978136
0.004031975
0.0040711
0.004201934
0.004241462
0.004231278
0.004166559
0.004090297
0.004374046
0.004970352
0.00570619
0.005908728
0.005110725
0.004343023
0.003964974
0.003799549
0.003712804
0.003646999
0.003636811
0.003642828
0.00371289
0.003829504
0.003862468
0.003898351
0.00393339
0.004257883
0.004224616
0.004214533
0.004152344
0.004057782
0.00401408
0.004221337
0.004736104
0.005138538
0.005083427
0.004509694
0.004047438
0.00386104
0.003814275
0.003741696
0.003730411
0.003713244
0.003793317
0.003815963
0.00384455
0.003867885
0.003871001
0.004306139
0.004228487
0.00415816
0.00403716
0.003883228
0.00370945
0.003870173
0.004140242
0.004364745
0.004284773
0.004000491
0.003812924
0.00379745
0.00373363
0.003753625
0.003748002
0.003762648
0.003801483
0.003839072
0.003838967
0.004212653
0.004083344
0.003957217
0.003791977
0.003583815
0.003388029
0.003248921
0.003505117
0.003683997
0.003740311
0.003652505
0.003642551
0.003661333
0.003679651
0.003688249
0.003699763
0.003745061
0.00371164
0.003902032
0.003734082
0.003585005
0.00341135
0.003232007
0.00308155
0.003024435
0.003086372
0.00323845
0.003399937
0.003478065
0.003521067
0.003588174
0.003629312
0.00361701
0.003610958
0.003515052
0.003382953
0.003209296
0.003067074
0.002940454
0.002873221
0.002897972
0.003011939
0.003169298
0.003288338
0.00336622
0.003477869
0.003583194
0.003455083
0.003019449
0.002898806
0.002797403
0.002742542
0.002756236
0.00284296
0.002980488
0.003108442
0.003196591
0.003267274
0.006023278
0.006471715
0.006904109
0.007183699
0.00734212
0.007424154
0.007435807
0.007422651
0.004567976
0.005118742
0.005446654
0.005641336
0.006079695
0.006567123
0.006942273
0.007212337
0.007395997
0.007490896
0.007576414
0.00759687
0.007057909
0.006326858
0.003661302
0.003990109
0.004327875
0.004598937
0.004866486
0.005326935
0.005885835
0.006407098
0.006860506
0.007223418
0.007461103
0.007640631
0.007696524
0.00723876
0.006536658
0.006498798
0.002982098
0.00320187
0.00324131
0.003363
0.003618376
0.004423148
0.004894471
0.005342472
0.005826554
0.006325257
0.006798253
0.007182756
0.007400243
0.007531627
0.00752564
0.007371262
0.006767698
0.006660489
0.006412184
0.005889251
0.002637372
0.002769435
0.002904068
0.002994115
0.004151675
0.00497958
0.005585801
0.006064231
0.006386019
0.006624631
0.00683831
0.007052213
0.00724845
0.007326167
0.007377779
0.007372491
0.007318912
0.006723479
0.00669296
0.006426635
0.00588179
0.005434914
0.002496588
0.002610768
0.00269163
0.002890852
0.004960187
0.006417296
0.007278782
0.007724676
0.007980146
0.008081785
0.008028108
0.007832215
0.007589755
0.007391972
0.007230393
0.007135062
0.007057621
0.007022311
0.006566609
0.006429312
0.006286817
0.005803399
0.005229219
0.004638254
0.002489367
0.002690713
0.002897651
0.005219218
0.00702563
0.00796523
0.008551644
0.008787347
0.008770013
0.008593291
0.008354865
0.008096053
0.007721707
0.007247199
0.006901871
0.006715388
0.006578564
0.006526816
0.006218843
0.006055622
0.005869219
0.005525007
0.004962088
0.004266576
0.002582355
0.002807504
0.00299791
0.004755435
0.006357864
0.007149332
0.007689035
0.008045806
0.008199961
0.008109887
0.007706451
0.00725998
0.006939142
0.006659344
0.006324942
0.006109624
0.005943428
0.005870233
0.005855801
0.005673523
0.005553897
0.005460942
0.005204209
0.004702692
0.004072497
0.003598227
0.002439768
0.002743353
0.002985263
0.003878973
0.005259816
0.006217561
0.007094915
0.007846253
0.008424373
0.008752224
0.008885514
0.008571651
0.00756123
0.00659698
0.005927108
0.005489443
0.005263795
0.005143893
0.005136409
0.005136838
0.005079774
0.005068788
0.00515552
0.005188773
0.004939867
0.004658825
0.004381321
0.00417523
0.002551653
0.00282738
0.00313527
0.004274681
0.005342286
0.006419497
0.007576678
0.00839553
0.008895667
0.009169851
0.009390733
0.009561354
0.009182342
0.007559357
0.006418171
0.005701072
0.005254093
0.004971557
0.004849213
0.004817294
0.004886285
0.005137759
0.005681039
0.006184048
0.005815411
0.006024805
0.006138175
0.005924935
0.002732447
0.002991786
0.003429413
0.004369731
0.005483078
0.006963579
0.008122763
0.008374134
0.008314532
0.008172176
0.008328349
0.008669508
0.009170375
0.008703297
0.007484557
0.006619386
0.0059668
0.005503199
0.005346744
0.005586933
0.006285805
0.007469141
0.008807739
0.009524908
0.00835373
0.007432327
0.007167621
0.006764788
0.002611182
0.00286169
0.003103693
0.003556285
0.004567625
0.005880463
0.007795479
0.007902582
0.006953574
0.006576321
0.006556429
0.006904246
0.007506259
0.008272566
0.009052271
0.008976848
0.008250699
0.007815366
0.007938212
0.009087467
0.01138963
0.01295346
0.01342063
0.01256918
0.01098119
0.008877845
0.006422701
0.00584604
0.005460462
0.004729297
0.002705348
0.002901649
0.003148982
0.003635992
0.004732124
0.006416534
0.008151036
0.006421247
0.005587371
0.005401089
0.00552319
0.005918921
0.006579645
0.007512255
0.008686618
0.009992267
0.01118116
0.01199678
0.01277587
0.01346477
0.01300247
0.01148613
0.009316646
0.008180637
0.00729375
0.006381946
0.004677384
0.003682888
0.003230894
0.002827385
0.002804657
0.00297598
0.003211478
0.003709113
0.004932901
0.00698543
0.007500833
0.005405939
0.005011074
0.004863449
0.004816966
0.004881702
0.005054452
0.005341651
0.005722205
0.006147488
0.006551875
0.006856054
0.006955434
0.006896115
0.006916759
0.006958629
0.00668845
0.006081902
0.005484815
0.004515798
0.003375746
0.002636544
0.002783161
0.002967538
0.002902348
0.003062699
0.003287786
0.00372963
0.004975913
0.006914125
0.007284083
0.005612934
0.00518569
0.004952978
0.004737893
0.004543166
0.004369171
0.004245076
0.004181958
0.004183288
0.004259094
0.004428087
0.004689768
0.004993851
0.005208569
0.005217217
0.005003702
0.004516703
0.003972754
0.003490231
0.003208846
0.003192002
0.003190344
0.003244007
0.003008645
0.003159561
0.003372835
0.003712458
0.004718614
0.006305808
0.006995744
0.006514603
0.006028154
0.005634864
0.005272692
0.004896329
0.004500815
0.004157981
0.003915037
0.003775386
0.003740606
0.003807971
0.003947886
0.004105163
0.004213385
0.004224542
0.00412254
0.003951321
0.00376643
0.003608854
0.003509327
0.003522504
0.003428568
0.003367593
0.00312706
0.003267552
0.003465062
0.003691533
0.004371259
0.005553834
0.006502405
0.006887828
0.007074711
0.006791835
0.006282066
0.005726576
0.005094878
0.004516193
0.004103763
0.003842766
0.003702839
0.003671613
0.003728931
0.003838695
0.003959925
0.004059758
0.004135846
0.004137051
0.004085818
0.004005196
0.003904876
0.0038571
0.003669933
0.003522286
0.003239481
0.003369119
0.003549036
0.003675655
0.004085425
0.004822539
0.005543063
0.006113657
0.006845555
0.007476104
0.007482736
0.006912857
0.006055649
0.005168121
0.004534829
0.004148519
0.003916628
0.003802596
0.003790463
0.003857389
0.003974099
0.004124422
0.004239384
0.004290757
0.004298158
0.004269153
0.004186647
0.004134909
0.003917956
0.003719535
0.003438386
0.003508647
0.003659482
0.003697336
0.00391264
0.004297213
0.004765197
0.005251317
0.005878202
0.006760954
0.007629526
0.007943153
0.007247694
0.006048848
0.005102041
0.004560129
0.004242834
0.004052907
0.003964224
0.003960241
0.004018261
0.004123939
0.004197873
0.004235944
0.004249938
0.004243034
0.004205054
0.004221472
0.004083908
0.003864693
0.003741983
0.003874143
0.003845259
0.003906872
0.004073064
0.0042791
0.004493628
0.004825595
0.005502173
0.006527588
0.00759444
0.008017763
0.007040371
0.00574012
0.004985299
0.004586428
0.004338727
0.004182676
0.004099181
0.004084864
0.004107346
0.004118289
0.004116555
0.004105022
0.004070332
0.00405602
0.004098779
0.004020534
0.003914597
0.004033812
0.004172877
0.004126227
0.004173491
0.0042335
0.004287595
0.00437242
0.004654856
0.005320095
0.006376599
0.007395661
0.00753787
0.006359001
0.005348717
0.00485775
0.004576893
0.004383384
0.004248752
0.004177237
0.004130971
0.004095558
0.004064311
0.004033322
0.00399535
0.003994822
0.003866873
0.003757
0.003970618
0.004031967
0.004159314
0.004088297
0.004062849
0.004060117
0.004030381
0.004002539
0.004088304
0.00444189
0.005186056
0.006157824
0.006825451
0.00654945
0.005579316
0.004973383
0.004664306
0.004477421
0.004344261
0.004249457
0.004164737
0.004102591
0.004036624
0.003961769
0.003906171
0.003891569
0.003741843
0.003550783
0.004155079
0.004223274
0.004305457
0.004182961
0.004105559
0.004033138
0.003951965
0.003918912
0.004045437
0.004431963
0.005038898
0.005639585
0.005824815
0.005450648
0.004867688
0.004556622
0.004417902
0.004320511
0.004239707
0.004147401
0.004080882
0.003996197
0.003934103
0.003920379
0.003846545
0.003661512
0.004200824
0.004253675
0.004286537
0.004102075
0.003980167
0.003855923
0.003758517
0.003752624
0.003895485
0.004195578
0.004559388
0.004759223
0.004736592
0.004547133
0.00430412
0.004209237
0.004180008
0.004140752
0.0040302
0.003955925
0.003854619
0.00378579
0.003689384
0.003570016
0.004064472
0.004014169
0.004007089
0.00398297
0.003769935
0.003620671
0.003487193
0.003418252
0.003448078
0.003581453
0.003751991
0.003872762
0.003939299
0.003983583
0.003954512
0.003919256
0.003946846
0.003966321
0.003829434
0.003796321
0.003697439
0.003580209
0.003483281
0.003299834
0.003903162
0.003789422
0.003724365
0.003647462
0.003387565
0.003223263
0.003120964
0.003083218
0.003113878
0.003170462
0.003230361
0.003310807
0.003426934
0.003522725
0.003568618
0.003642305
0.003741414
0.003604504
0.003646479
0.003540492
0.003402216
0.003255104
0.003662883
0.003576332
0.003410853
0.003295185
0.00317695
0.002964457
0.00283802
0.002767648
0.002745488
0.002775245
0.00285954
0.002985783
0.00310868
0.003205248
0.003371872
0.003499039
0.003411963
0.003483845
0.003414915
0.00317524
0.003250084
0.003100816
0.002958859
0.002826493
0.002699922
0.002605851
0.00255384
0.002557976
0.002621921
0.002732051
0.002848783
0.00295179
0.003159499
0.003282555
0.003187221
0.003223277
0.00282977
0.002703587
0.002588563
0.002460727
0.002399935
0.002372475
0.002385542
0.002442267
0.00253253
0.002625515
0.002713429
0.00293069
0.003080458
0.003001492
0.002322787
0.002272766
0.002251462
0.002265816
0.002315198
0.002388599
0.002458847
0.002534211
0.006597907
0.006904647
0.007097967
0.007153293
0.007164274
0.00716864
0.005419539
0.005961359
0.006403917
0.006873652
0.006950269
0.007262538
0.00745923
0.007530099
0.007565044
0.007639779
0.007739916
0.007205081
0.006552358
0.005804539
0.004494199
0.005036911
0.005419825
0.006007121
0.006425006
0.00652168
0.006881012
0.007315763
0.007555214
0.007652735
0.007677379
0.007639733
0.007606678
0.007508872
0.006913566
0.006180544
0.006064989
0.005362589
0.003961044
0.004281122
0.004781795
0.005032547
0.005734742
0.006182874
0.006340566
0.006920753
0.007472479
0.007804243
0.007977641
0.0080375
0.00797128
0.007814203
0.007726611
0.007102574
0.006299695
0.006404238
0.00573613
0.005551055
0.003376991
0.003664916
0.003997296
0.004334679
0.004679905
0.005409422
0.005838712
0.006018284
0.006703018
0.007399343
0.007876232
0.008194542
0.008372789
0.008370456
0.008265896
0.008168946
0.007532412
0.006606659
0.00659997
0.006118843
0.005869143
0.005562694
0.002898954
0.003105141
0.003279953
0.003722932
0.00403256
0.004409001
0.005193305
0.005678215
0.005758559
0.006469947
0.007240477
0.007785514
0.008167054
0.008449515
0.008560064
0.008596417
0.008594149
0.008008305
0.00711484
0.006871464
0.006437042
0.005921461
0.005672835
0.005273167
0.002575855
0.002734786
0.002872853
0.003134148
0.003726115
0.004174267
0.004723315
0.005671784
0.006313849
0.006344587
0.006818647
0.007368325
0.007792087
0.008127644
0.008388833
0.008479934
0.008528134
0.008683661
0.008285823
0.007507187
0.007175011
0.006684388
0.005989797
0.005546703
0.005172426
0.004630893
0.002328705
0.002495647
0.002629326
0.002876835
0.003320358
0.004229496
0.005232057
0.00635536
0.007641607
0.008490289
0.008660975
0.008710918
0.008664886
0.008531378
0.008410383
0.008367186
0.008304375
0.008292235
0.008455012
0.008196647
0.007541262
0.007193982
0.006712102
0.005984434
0.005377601
0.004886395
0.004374018
0.003737901
0.002133763
0.002314691
0.002542249
0.002723766
0.003202112
0.004001983
0.005564832
0.007661651
0.009909283
0.01176662
0.01278352
0.01281839
0.01222671
0.01130703
0.01026453
0.009318175
0.008618979
0.008161555
0.007927146
0.007952504
0.007803811
0.007321683
0.006978098
0.006549004
0.005897241
0.005293208
0.004641641
0.004271924
0.003662512
0.003029061
0.002168818
0.002396004
0.002670997
0.003067976
0.003822904
0.005238911
0.007652386
0.01046056
0.01248974
0.01355627
0.01402694
0.01402963
0.01336853
0.01219716
0.01082134
0.009519716
0.008471049
0.007757332
0.007338119
0.007215536
0.007115287
0.006817643
0.006568839
0.006288505
0.005838752
0.00542134
0.00483929
0.004565337
0.004151673
0.003633608
0.00219645
0.002310455
0.00246867
0.002888868
0.003480933
0.004587991
0.006507587
0.008923008
0.01059407
0.01147429
0.01197922
0.01225992
0.01237942
0.01215339
0.01111929
0.009796926
0.00858965
0.00760897
0.006924761
0.006512458
0.00635232
0.006288395
0.006165679
0.00610472
0.006134563
0.006131325
0.006083322
0.005874136
0.005437418
0.005034512
0.00472229
0.004142201
0.002240614
0.0024333
0.002612872
0.003105975
0.003843435
0.005204077
0.007093721
0.008797179
0.01031212
0.01132173
0.01170289
0.01179664
0.01196456
0.01228212
0.0122321
0.01038435
0.00870504
0.007509754
0.006679879
0.006153015
0.005894477
0.005819403
0.00587545
0.006211259
0.006912518
0.007720722
0.008068037
0.008117212
0.007711985
0.00664328
0.00647709
0.005892182
0.002349602
0.002561819
0.002788537
0.003307679
0.00411526
0.005432422
0.007032005
0.008934864
0.01087866
0.01116615
0.01051127
0.01001383
0.01006634
0.0105068
0.01131331
0.0114378
0.009834972
0.008457348
0.007422685
0.006724266
0.00642732
0.006638517
0.007431847
0.008940314
0.01080557
0.01208456
0.0117693
0.01039976
0.008940303
0.007262705
0.006787421
0.006079409
0.002495848
0.00259869
0.002887174
0.003381686
0.004143629
0.005341237
0.007022295
0.009642564
0.01105639
0.009202422
0.008046874
0.007755051
0.008047394
0.008735071
0.009723122
0.01090586
0.01129717
0.01053243
0.009750169
0.009627606
0.01072187
0.01291168
0.0149511
0.01622891
0.01603544
0.01439566
0.01189378
0.009257012
0.007508808
0.006171784
0.005254321
0.004852131
0.00245652
0.002618338
0.002680648
0.002968649
0.003410177
0.00410252
0.005292577
0.007282774
0.01043156
0.009327797
0.007047203
0.006433085
0.006400659
0.006748429
0.007415732
0.00841489
0.009744742
0.01131377
0.0128669
0.01402022
0.01498032
0.01590265
0.015667
0.01443841
0.01247262
0.01089262
0.009628584
0.008356455
0.006923279
0.005844291
0.005115048
0.004551524
0.003948642
0.003641201
0.00252531
0.002679753
0.002756649
0.003027328
0.003431534
0.004060901
0.005259766
0.00753031
0.01010412
0.007769169
0.006192772
0.00579652
0.005669226
0.0056949
0.005824006
0.006070635
0.006446112
0.006923392
0.007446143
0.00793568
0.00826312
0.008399339
0.008545433
0.008705413
0.008507988
0.007881063
0.007050557
0.005751721
0.004743843
0.004579025
0.004345185
0.003938523
0.003561767
0.003365358
0.00262961
0.002765882
0.002835771
0.003079735
0.003451093
0.00401926
0.00513025
0.007245332
0.009109976
0.007822172
0.00643097
0.005980562
0.005737866
0.005540371
0.005313712
0.00509154
0.004938773
0.00490017
0.004998864
0.005247375
0.005629754
0.006070523
0.006411177
0.006488517
0.006238513
0.005649966
0.004935185
0.004285399
0.00391547
0.003920155
0.003904569
0.003644463
0.003369225
0.003056781
0.00275643
0.00287712
0.002929234
0.003142537
0.003476577
0.003979496
0.004895109
0.006543651
0.008035096
0.008125826
0.007508631
0.006857407
0.006494859
0.006176041
0.005750249
0.005267398
0.004856742
0.004599823
0.004520587
0.004610718
0.004823818
0.00508023
0.005284676
0.005355531
0.005250774
0.004984235
0.004678178
0.004430616
0.004237659
0.004073365
0.003867955
0.00353615
0.003203975
0.002828826
0.002888376
0.003003634
0.003038913
0.003224971
0.003518688
0.003946113
0.004622235
0.005789402
0.007011643
0.00764402
0.008076372
0.008072989
0.007697959
0.007308223
0.006731303
0.006005078
0.005347475
0.004888267
0.004637347
0.004574309
0.004660612
0.004837492
0.005036931
0.00519613
0.005280474
0.00532272
0.005278874
0.005154457
0.004933536
0.004596564
0.004157521
0.003628946
0.003212246
0.002800347
0.003045342
0.003141472
0.003139873
0.003303467
0.003561416
0.003915849
0.004400656
0.005149012
0.006005902
0.006651156
0.007317132
0.008107156
0.008653961
0.008618099
0.008046139
0.00709917
0.006159256
0.00548524
0.005073033
0.004870226
0.004836131
0.004925156
0.005082665
0.005251502
0.005454804
0.005585215
0.005627271
0.005558907
0.005338299
0.004946538
0.004421531
0.003827734
0.003442969
0.002922062
0.003374555
0.003303096
0.003400133
0.003630751
0.003925698
0.004277319
0.004710124
0.005243891
0.00571143
0.006182941
0.006982141
0.008074132
0.009061327
0.00924966
0.008353958
0.007132224
0.006212638
0.005645574
0.005315874
0.005153166
0.005113278
0.005153248
0.005243644
0.005384025
0.005468757
0.005476017
0.005380693
0.005148077
0.004774989
0.004300694
0.003940167
0.003771717
0.003525231
0.003682186
0.003698904
0.003866878
0.004095636
0.004359282
0.004635484
0.004912389
0.005186686
0.005425278
0.005858459
0.006730468
0.007989012
0.009169338
0.009282594
0.008093022
0.006924923
0.006208828
0.005789251
0.005528707
0.005362062
0.00525538
0.005221041
0.005261926
0.005265434
0.005206176
0.00506238
0.004819132
0.004494263
0.004127146
0.003862366
0.003593354
0.003635646
0.003799941
0.003835722
0.004000967
0.004216085
0.00445096
0.004669218
0.004838028
0.00494727
0.005040224
0.005184109
0.005608886
0.006524311
0.007809758
0.008836326
0.008641352
0.007484071
0.006624996
0.006153912
0.005860847
0.005625074
0.005409752
0.005269124
0.005218335
0.005147554
0.005016571
0.004801908
0.004507278
0.004165999
0.003835984
0.003666032
0.003412381
0.003686228
0.003826488
0.003804954
0.003917965
0.004138458
0.004363405
0.004556542
0.004681427
0.00470878
0.004673506
0.004681652
0.004846032
0.005363215
0.006309801
0.007398286
0.008007651
0.007634786
0.006790729
0.006273233
0.005999457
0.00577344
0.005522013
0.005323496
0.005202935
0.00507262
0.004879348
0.00460296
0.004252464
0.003873307
0.003585751
0.00346353
0.003143345
0.003903538
0.004054535
0.004055489
0.00415336
0.004326734
0.004474317
0.004560965
0.004555928
0.004467149
0.004390896
0.004407778
0.004639937
0.005182646
0.005965161
0.006663682
0.006923076
0.006586254
0.00608662
0.005842289
0.005697891
0.005474316
0.005261527
0.005106051
0.004923622
0.004682795
0.004380482
0.004013433
0.003715172
0.003492662
0.003269851
0.003850649
0.003939013
0.004073317
0.004108496
0.00420599
0.004290139
0.004320369
0.004285529
0.004173961
0.00403915
0.003971635
0.004046203
0.004341586
0.004844969
0.005387861
0.005762481
0.00584215
0.005617485
0.005423623
0.005396298
0.005233455
0.005032488
0.004872033
0.004640265
0.004353145
0.004044052
0.003706438
0.003471709
0.003215694
0.002968834
0.003977087
0.00403671
0.003917391
0.003900637
0.003924972
0.003917398
0.003861731
0.003745605
0.00359207
0.003494146
0.003512953
0.003692415
0.004016385
0.004391678
0.004704992
0.004885616
0.004902958
0.004832304
0.004928942
0.004844331
0.004664692
0.004532028
0.004286994
0.003968134
0.003662124
0.003384157
0.003190467
0.002859216
0.00393528
0.003912344
0.003745418
0.003653503
0.003596143
0.003522751
0.003410036
0.003268931
0.003155371
0.003141431
0.003239052
0.003427844
0.003655057
0.00386732
0.004032048
0.004131055
0.004159472
0.004362309
0.004391971
0.004202056
0.00411401
0.003912115
0.003594672
0.003391166
0.003249144
0.002889358
0.003806823
0.003754561
0.003517158
0.003385726
0.00328041
0.003169132
0.003039334
0.00292449
0.002868042
0.00288576
0.002963409
0.003074895
0.003203462
0.003345031
0.003480912
0.003567818
0.00380015
0.003906199
0.003715023
0.003675227
0.003527797
0.003295291
0.003198091
0.002961148
0.003578125
0.003467766
0.003394117
0.003177178
0.003026679
0.002862717
0.002720517
0.002617423
0.002570832
0.002582778
0.002639991
0.002736343
0.002867934
0.002996054
0.003080411
0.003306561
0.003440635
0.003279056
0.00334141
0.003200919
0.003157435
0.002933194
0.003218127
0.003078826
0.002980987
0.00272004
0.002540783
0.00241913
0.002336832
0.002299128
0.002306873
0.002356165
0.002439331
0.002544364
0.002637506
0.002694835
0.002931175
0.003066831
0.003005553
0.003135144
0.00296924
0.002934367
0.00284602
0.002726483
0.00258998
0.002497004
0.002418946
0.002275465
0.002197226
0.002179963
0.002208181
0.002265211
0.00233643
0.002394571
0.002487269
0.002765274
0.002877414
0.002874416
0.002921831
0.002790072
0.002614249
0.002498822
0.002387813
0.002309425
0.002257082
0.002228556
0.002224013
0.002244717
0.002284857
0.002327679
0.00246117
0.002569605
0.002638181
0.002639772
0.002193325
0.002146964
0.002123504
0.002127869
0.002150809
0.002188179
0.005805513
0.006321078
0.006738759
0.006929967
0.007143759
0.007188837
0.007193503
0.007198472
0.007189287
0.006854472
0.005113078
0.005666993
0.00615131
0.00626823
0.006760109
0.00682924
0.007120534
0.007327583
0.007370638
0.00736762
0.007383926
0.007588687
0.007202702
0.006588653
0.005810422
0.005347051
0.00488319
0.005194751
0.005534403
0.0061546
0.00657422
0.007182494
0.007373809
0.007941582
0.008160446
0.008178918
0.008111051
0.007918485
0.007899015
0.007310665
0.006594207
0.005795865
0.005655581
0.005234698
0.003939019
0.004448734
0.004541819
0.005200702
0.005701172
0.006580505
0.007206954
0.00789933
0.008302995
0.008861208
0.009095948
0.009097095
0.008977202
0.008753708
0.008554402
0.007891896
0.007138175
0.006227258
0.005972677
0.005231112
0.005209754
0.004646885
0.003484637
0.003781438
0.004107774
0.004458365
0.00531103
0.006003869
0.006927239
0.007668942
0.008399101
0.008935831
0.009555377
0.0098885
0.009964138
0.009856752
0.009600987
0.009286301
0.008607495
0.007855659
0.007014241
0.006642145
0.005716283
0.005497145
0.005057547
0.00477238
0.003016281
0.003275665
0.003511069
0.003911126
0.004436684
0.005251276
0.005955705
0.006828659
0.007587831
0.008304034
0.008905702
0.009665293
0.01021553
0.01053008
0.01061823
0.01046139
0.01013842
0.00945301
0.008679412
0.007833446
0.007411106
0.006549309
0.006014261
0.005498044
0.005074654
0.004607504
0.002599552
0.002808782
0.003005213
0.003315149
0.003765252
0.004265433
0.00495298
0.005616045
0.006449929
0.007192967
0.00781554
0.008416084
0.009272303
0.01000428
0.01056197
0.01089849
0.0110197
0.01090932
0.01032111
0.009574583