/*--------------------------------*- C++ -*----------------------------------*\
  =========                 |
  \\      /  F ield         | OpenFOAM: The Open Source CFD Toolbox
   \\    /   O peration     | Website:  https://openfoam.org
    \\  /    A nd           | Version:  6
     \\/     M anipulation  |
\*---------------------------------------------------------------------------*/
FoamFile
{
    version     2.0;
    format      ascii;
    class       volScalarField;
    location    "50";
    object      nut;
}
// * * * * * * * * * * * * * * * * * * * * * * * * * * * * * * * * * * * * * //

dimensions      [0 2 -1 0 0 0 0];

internalField   nonuniform List<scalar> 
140018
(
0.0001888606
0.0002978653
0.0002908105
0.0001779464
0.0001981009
0.0003270218
0.0004439545
0.0005456221
0.0005344122
0.0004186528
0.0003015952
0.0001788714
0.0001602101
0.00027285
0.0004117519
0.0005433672
0.0005948951
0.0006197087
0.0006140894
0.0005794156
0.0005244927
0.0003956225
0.0002794994
0.0001626359
0.0001523959
0.0003473472
0.0004791173
0.000526353
0.0005588772
0.0005983288
0.0006217303
0.0006257358
0.0006108506
0.0005797576
0.0005311157
0.0004726121
0.0003420054
0.0001527155
0.0002645775
0.0004852614
0.0005527381
0.0005763285
0.0005775268
0.0005737378
0.0005934542
0.0006038835
0.0005989006
0.0005828736
0.000557712
0.0005238771
0.0004621168
0.0002541096
0.0001559182
0.0003851704
0.0005506503
0.0006043775
0.0006222917
0.0006232765
0.0006152892
0.0006035238
0.0005960823
0.0005939308
0.0005895961
0.0005829142
0.0005724532
0.0005479238
0.0003935847
0.0001672071
0.0002737482
0.0005107642
0.0006002619
0.0006404898
0.0006556499
0.0006587086
0.0006565663
0.0006529094
0.0006477854
0.0006403719
0.0006349548
0.0006269287
0.0006092764
0.0005822207
0.0005023796
0.0002738261
0.0001348977
0.0003728516
0.0005548356
0.0006257322
0.0006567908
0.0006673333
0.000667224
0.0006623043
0.0006548496
0.0006451646
0.0006343807
0.0006244264
0.000616165
0.0006072301
0.0005908103
0.0005435838
0.0003837045
0.0001610825
0.000225892
0.0004676422
0.0005824482
0.0006420598
0.0006699936
0.0006787048
0.0006784701
0.0006732162
0.0006637723
0.0006536146
0.0006452213
0.0006389013
0.0006367422
0.000636111
0.0006262416
0.0005916654
0.0005061393
0.0002770123
0.0002214638
0.0004670042
0.0005875557
0.0006488143
0.0006788388
0.0006890202
0.0006899241
0.0006858106
0.0006775131
0.0006683553
0.0006612733
0.0006567583
0.0006562876
0.0006564268
0.0006462013
0.0006104846
0.0005221664
0.0002836366
0.000146954
0.0003753865
0.0005694254
0.000642771
0.0006793402
0.000693795
0.0006959298
0.0006927613
0.0006868706
0.0006785386
0.0006706027
0.0006663633
0.0006657753
0.0006632558
0.0006477685
0.0005964109
0.0004255998
0.0001806248
0.0002997882
0.000539294
0.0006252436
0.0006716708
0.0006925346
0.0006972961
0.0006952916
0.000690824
0.0006833655
0.0006755999
0.000670478
0.0006668961
0.0006588789
0.0006319906
0.0005576648
0.0003179104
0.0001892942
0.00044814
0.0005975054
0.0006534243
0.000683503
0.0006926478
0.0006932023
0.0006906308
0.0006845842
0.0006771454
0.0006693588
0.0006599002
0.0006419649
0.0005943394
0.0004314665
0.0001932183
0.0003202416
0.0005555419
0.000621215
0.00066122
0.0006776857
0.0006827793
0.0006832658
0.0006794317
0.000671865
0.0006593483
0.0006405778
0.0006075916
0.0005375363
0.000307772
0.0001912584
0.0004163985
0.0005560956
0.0006103801
0.0006420342
0.000656794
0.0006629331
0.0006616124
0.0006507876
0.0006286702
0.0005907102
0.000535394
0.0003944981
0.0001837174
0.0001890166
0.0003148306
0.000448478
0.0005622396
0.0005975102
0.0006154928
0.0006167619
0.0005936149
0.0005505741
0.0004267638
0.0003052622
0.0001824175
0.0001872769
0.0003117997
0.0004237102
0.0005191833
0.0005213488
0.0004186218
0.0003101797
0.0001867032
0.0001667566
0.0002753552
0.0002795366
0.0001719866
0.0001716461
0.0002986989
0.0003367846
0.000364029
0.00038846
0.0004112123
0.000428607
0.0004318498
0.0004094772
0.0002496095
0.0001731231
0.0003090109
0.0004429416
0.000550089
0.0005896173
0.0006229567
0.0006539826
0.0006847709
0.0007145242
0.0007324031
0.0007227775
0.0005883711
0.0004277603
0.000245538
0.0001962203
0.0004524304
0.000609246
0.0006899329
0.0007539414
0.000797525
0.0008386564
0.0008632199
0.000858636
0.0008342315
0.0008165116
0.000816592
0.000790077
0.0007292081
0.0005418901
0.000245714
0.0001985428
0.0004726982
0.0006683051
0.0007854727
0.0008862009
0.0009898607
0.001114097
0.001084556
0.001047465
0.00100273
0.0008798023
0.0009978977
0.0009048923
0.0008557098
0.0008201342
0.0007348732
0.0005306042
0.0002340574
0.0001858502
0.000448704
0.0006580049
0.0008074606
0.0009646107
0.001141079
0.001219874
0.001227567
0.001216006
0.001165063
0.00110788
0.0009554137
0.0009638645
0.0009187592
0.001004344
0.0009028688
0.0008131898
0.0007087149
0.0004932964
0.0002103986
0.0001684573
0.00040942
0.0006135104
0.0007795269
0.001013278
0.00122591
0.001244349
0.001346182
0.001371894
0.001297279
0.001223986
0.001159506
0.001064705
0.001025613
0.0009660646
0.0009816687
0.0009212987
0.0009312895
0.0007814386
0.0006548488
0.0004400682
0.0001868804
0.0003022149
0.0005513742
0.0007115612
0.0009214234
0.001097878
0.001317407
0.001542602
0.00164987
0.00167652
0.001571896
0.001376208
0.001259946
0.00117149
0.001110862
0.001047859
0.001027559
0.0009753499
0.0009895259
0.0008814093
0.0007403031
0.0005986208
0.0003233799
0.0001590191
0.0004095467
0.0006159763
0.0007970085
0.001092227
0.001147978
0.001445495
0.001540628
0.001582185
0.001597643
0.001589519
0.00144669
0.001347516
0.001271665
0.001203856
0.001135168
0.001115909
0.001087446
0.001021509
0.001105121
0.0008932989
0.0007533554
0.0005108229
0.0002117688
0.0002754195
0.0005228104
0.0006769434
0.0009103462
0.0007470285
0.00102108
0.001290344
0.00135784
0.001408925
0.001463012
0.001518346
0.001557144
0.001498255
0.001426308
0.001379776
0.00137038
0.001453708
0.00156922
0.001516298
0.001318276
0.001267395
0.0009632072
0.0007058724
0.000346866
0.0003045016
0.0005646078
0.0007269506
0.001014628
0.0007671364
0.001069491
0.001167531
0.001224762
0.001280444
0.001350347
0.001439159
0.001540877
0.001638495
0.001703162
0.001731895
0.001765415
0.001788414
0.001711906
0.001477907
0.0009969451
0.001164576
0.0008165803
0.0005957322
0.0002924002
0.0003218611
0.0005948186
0.0007727153
0.0005901017
0.0007685121
0.001026903
0.00109586
0.001125573
0.001144384
0.001163294
0.001186269
0.001214105
0.001244168
0.001272878
0.001295056
0.001305641
0.001300445
0.001277457
0.001198322
0.0009506132
0.0007128431
0.0007845202
0.0005784127
0.0002935679
0.0003333368
0.0006212127
0.0007989823
0.0006542083
0.0009225837
0.001050816
0.001094848
0.001104715
0.001100442
0.00109115
0.001079555
0.001070788
0.001066198
0.001070885
0.001087692
0.001115815
0.001144297
0.001153204
0.001129423
0.00107178
0.0009425192
0.0008385305
0.0006204877
0.0003171
0.0003392677
0.0006467465
0.0008164122
0.0007790767
0.001008044
0.001127387
0.0011546
0.001145144
0.001121603
0.001093772
0.001064602
0.001042236
0.001025725
0.0010208
0.001028957
0.001048255
0.001068488
0.001078245
0.001064003
0.001009062
0.000935271
0.0008729333
0.0006522934
0.0003356767
0.0003388253
0.0006517752
0.000814015
0.001078719
0.001222592
0.001258629
0.001268985
0.00123432
0.00118526
0.001134999
0.001087208
0.001055431
0.001030573
0.00101609
0.001014716
0.001026214
0.001044704
0.001060513
0.00105452
0.001019762
0.0009588714
0.0008675345
0.000667517
0.0003483069
0.000329787
0.0006329308
0.0007877701
0.0009932181
0.001139953
0.001315404
0.00139416
0.00136182
0.001286669
0.00120616
0.001129865
0.001087636
0.001057223
0.001036725
0.001026408
0.001028477
0.001041849
0.001056879
0.001065015
0.00105534
0.001055846
0.0008289309
0.000655079
0.0003468624
0.0003063987
0.0005940686
0.0007565911
0.0009081334
0.001009369
0.001216821
0.001380922
0.001444294
0.001406278
0.001302083
0.001182837
0.001124971
0.001089655
0.001065625
0.001047288
0.001036867
0.001036505
0.001038635
0.001027845
0.000994984
0.0009369701
0.0007735861
0.0006096851
0.0003204585
0.0001906416
0.0004710044
0.0007015081
0.0008468694
0.001055783
0.001114585
0.001230385
0.001358218
0.001443731
0.001401327
0.001239995
0.001155968
0.001113954
0.001090775
0.001069736
0.001046227
0.001030873
0.001022132
0.001022647
0.001043857
0.0008363755
0.0006948641
0.0004706284
0.0001925639
0.0003421802
0.0006321008
0.0007872733
0.0009405639
0.0009742609
0.001055381
0.001188287
0.001338395
0.001406804
0.001288319
0.001175508
0.001121053
0.001100055
0.001083498
0.001044454
0.001017851
0.0009690311
0.0009403926
0.0009015263
0.0007520261
0.0006077178
0.000332011
0.000202285
0.0004635968
0.0006802636
0.000815044
0.0009813444
0.0009870224
0.001059163
0.001162575
0.001263912
0.00125307
0.001168634
0.001099078
0.001071357
0.001077446
0.001028508
0.001014778
0.0009421237
0.0009474805
0.0007809362
0.0006493202
0.0004442969
0.0001932216
0.0002160631
0.0004852879
0.000692155
0.0008046688
0.000909615
0.001022417
0.001021308
0.001084629
0.001096682
0.001079503
0.001037465
0.001006331
0.001042913
0.0009769114
0.0010245
0.0008906367
0.0007749559
0.0006609862
0.00046192
0.0002035627
0.0002174993
0.0004776534
0.0006604333
0.0007468214
0.0008012096
0.0008627924
0.0009468874
0.0009194889
0.0009337618
0.0009390277
0.0009147193
0.0009987577
0.0008924088
0.0008081099
0.0007339961
0.0006367587
0.0004564094
0.0002038632
0.0002057983
0.000436548
0.000583004
0.0006443098
0.0006904081
0.0007204704
0.0007599005
0.0007986421
0.0008170717
0.0008032398
0.0007624884
0.0007172565
0.0006576855
0.0005844673
0.0004284812
0.0001974597
0.0001844801
0.0003082412
0.0004208846
0.0005267071
0.0005535244
0.0005705605
0.0005839138
0.0005943542
0.0005968559
0.0005825459
0.0005490092
0.0004356453
0.0003158882
0.0001820893
0.0001661746
0.0002678311
0.0002849542
0.0002913989
0.0002953937
0.0002995017
0.0003025332
0.0002987625
0.0002795682
0.0001716487
0.0002385159
0.0004057834
0.0004511555
0.000470009
0.0004749279
0.0004672898
0.0004336948
0.0002630105
0.0002160898
0.0003981548
0.0004778942
0.0006371933
0.0008179064
0.0008870991
0.0009236179
0.000940407
0.0009386177
0.0009039905
0.0007311388
0.0005592982
0.0004628394
0.0002520493
0.0002318054
0.0005180963
0.0007340189
0.0008609531
0.0009760527
0.001075879
0.00115774
0.001216692
0.001256581
0.001275507
0.00126296
0.001211294
0.00110151
0.0009369796
0.0006555798
0.0003057712
0.0001827033
0.0003416348
0.0005306317
0.0007614388
0.0009541675
0.0009294407
0.001052342
0.001149874
0.001225872
0.001283327
0.00132607
0.001350213
0.001339889
0.00129734
0.0012264
0.001346267
0.00106808
0.0007534964
0.0004787423
0.0002541624
0.000176337
0.0004150473
0.0006203836
0.0007981234
0.0009332271
0.001145239
0.001199716
0.001304675
0.001378052
0.001428575
0.001453986
0.001458265
0.001444882
0.001404325
0.00135356
0.001295122
0.001395799
0.001183165
0.001188775
0.0009172354
0.0006018697
0.0002530877
0.0001653808
0.0004015538
0.0006148351
0.0008182014
0.001107669
0.001338544
0.001533251
0.001636457
0.001705367
0.001745042
0.001750032
0.001717291
0.001656432
0.00157808
0.001487302
0.001400147
0.001325761
0.001388706
0.001238733
0.001225427
0.001207013
0.0009048093
0.0005690707
0.0002263364
0.0002980619
0.0005920013
0.0008172385
0.001169636
0.001503398
0.001750545
0.001937045
0.002040601
0.002070144
0.002052947
0.002007087
0.00194253
0.001841749
0.001698943
0.001572905
0.001453848
0.001349274
0.001358361
0.001257296
0.001219254
0.001197869
0.00113441
0.0008093494
0.0003935456
0.000192899
0.0004882103
0.0007929227
0.001100627
0.001433469
0.001695874
0.001905184
0.002062425
0.002160668
0.002191008
0.002131891
0.002039098
0.001945476
0.001838759
0.001700357
0.001588581
0.001466624
0.001360455
0.001326123
0.001243074
0.00120034
0.001186001
0.001147706
0.001001631
0.0005932683
0.0002289173
0.0001563317
0.0004246936
0.0007071894
0.0009216651
0.001231641
0.001511435
0.0017685
0.001990838
0.002169353
0.002278218
0.002343299
0.002316937
0.002158693
0.001972113
0.001808343
0.001662517
0.001554029
0.001452329
0.001364171
0.001300796
0.001229202
0.001187425
0.001188934
0.001171169
0.0009725297
0.0008834992
0.000536623
0.0002039228
0.0002779442
0.0005841386
0.0008755867
0.001085206
0.00133536
0.001587443
0.001852947
0.0020689
0.002230235
0.002321986
0.002374499
0.002393823
0.002328894
0.002069626
0.001860265
0.001702464
0.001586678
0.001492135
0.001412771
0.001340148
0.001284768
0.001275289
0.001319745
0.001324284
0.000986253
0.001205448
0.0008567415
0.0004220742
0.0003343075
0.0006839496
0.0008496971
0.001072471
0.001337613
0.001653794
0.00189482
0.002032482
0.002115409
0.002117348
0.002134586
0.002162764
0.002193651
0.002116051
0.001941891
0.001804095
0.001697011
0.00161037
0.001553045
0.001511068
0.001504318
0.001613908
0.001717366
0.001724554
0.001324485
0.0009075085
0.001061883
0.0005289586
0.0001557786
0.000448063
0.0007692506
0.0008981841
0.001145047
0.001418645
0.00176312
0.001775096
0.001779801
0.001797782
0.001803393
0.001847756
0.001925031
0.002025309
0.00212875
0.002124595
0.002041017
0.001958984
0.001921356
0.001983789
0.00209887
0.00219474
0.002170693
0.002086105
0.001858061
0.001504771
0.0008743021
0.001067234
0.0006270092
0.0002125006
0.0002607864
0.0005605641
0.0008174531
0.0009454457
0.001189801
0.001495538
0.001775888
0.001554465
0.001561683
0.001569953
0.001594746
0.001642659
0.001717764
0.001825616
0.001962619
0.002109798
0.002232764
0.002300964
0.0023504
0.002383412
0.002312833
0.002115937
0.001743749
0.001635626
0.001495698
0.001293441
0.0008380951
0.0008912626
0.0005969482
0.0002690103
0.0002866677
0.0005936355
0.0008457725
0.000976229
0.001230519
0.001561512
0.001560301
0.00138374
0.00144269
0.001468554
0.00148536
0.001495478
0.001500081
0.001508793
0.001529999
0.001564211
0.001606879
0.001651871
0.001689277
0.001708904
0.001707891
0.001661837
0.001490945
0.001334467
0.0013275
0.001128781
0.0009327222
0.0007706776
0.0005768597
0.0002962143
0.0002979887
0.0006102373
0.0008632351
0.0009875357
0.001241216
0.001547246
0.001537765
0.001421379
0.001450874
0.001478221
0.001492356
0.00149056
0.001467468
0.001429777
0.00139398
0.001372832
0.001374197
0.00140048
0.001445667
0.001492781
0.001515878
0.001496327
0.001432673
0.001316979
0.001166971
0.001017709
0.0009085743
0.0008559272
0.0006263073
0.0003165004
0.0003032157
0.0006196328
0.0008742864
0.0009857129
0.001195995
0.001467848
0.001530734
0.001507093
0.001551627
0.001567769
0.001572639
0.001561514
0.001523918
0.001462617
0.001398942
0.001350912
0.001329611
0.001336799
0.001364298
0.001395806
0.001412635
0.001398763
0.001342538
0.001257898
0.001162528
0.001063518
0.0009667545
0.0008989956
0.0006490315
0.0003223584
0.0003024187
0.00062152
0.0008782687
0.0009748481
0.0011393
0.00136254
0.001512673
0.001585415
0.001670251
0.001715213
0.001709423
0.001686044
0.001632071
0.001548098
0.001460483
0.001389033
0.001345451
0.001332632
0.001344781
0.001368792
0.00138864
0.001388688
0.001371514
0.001319317
0.001242199
0.001146682
0.00103099
0.0009322844
0.0006622901
0.0003225168
0.0002856585
0.0006039586
0.0008672704
0.0009491379
0.001077809
0.001236551
0.001389096
0.001511262
0.001648564
0.00178272
0.001853288
0.001845646
0.001780595
0.001669406
0.001556023
0.001462478
0.001397847
0.001364373
0.00135882
0.001371507
0.001387664
0.001400615
0.001387453
0.001340351
0.001268073
0.00117417
0.001050223
0.0009411095
0.0006543268
0.0003073171
0.0001795499
0.0004976679
0.000835455
0.0009056095
0.001009456
0.001121668
0.001239738
0.001362873
0.001504939
0.001668624
0.001834827
0.001950419
0.001938956
0.001808395
0.001663658
0.001547361
0.001463539
0.001409311
0.001381707
0.001373649
0.001371682
0.00137285
0.001346194
0.001293247
0.00121918
0.001123857
0.001002599
0.0009008744
0.000537943
0.0001904866
0.0003922589
0.0007794577
0.0008642896
0.0009463606
0.001041124
0.001122942
0.001198149
0.001298677
0.001454272
0.001646449
0.001852297
0.001996204
0.001935229
0.001764709
0.001623187
0.001523256
0.001452195
0.001403292
0.001369984
0.001348824
0.001327633
0.001286945
0.001227533
0.001151084
0.00104702
0.0009349601
0.0008039451
0.0004072682
0.0003452137
0.000699842
0.001010761
0.001049803
0.001113355
0.001165965
0.001208496
0.00124544
0.00131494
0.001443841
0.001638526
0.001849366
0.001949877
0.001835962
0.001672772
0.00155743
0.00147429
0.001410509
0.001360236
0.001323619
0.001283874
0.00123467
0.001175173
0.001108771
0.001036599
0.000992458
0.0006855333
0.0003383153
0.0001994939
0.0005153882
0.0008363689
0.0009079393
0.0009717087
0.001036763
0.001078197
0.001106706
0.00114925
0.001245327
0.001411756
0.001614878
0.001779294
0.001805126
0.00167833
0.001546988
0.001450245
0.001382833
0.001332616
0.001288651
0.00123833
0.001182415
0.001108363
0.001013433
0.0009126112
0.0008105451
0.0004967788
0.0001889914
0.0002441396
0.0006012133
0.0009517528
0.0009923739
0.001031928
0.001069343
0.001089741
0.001108715
0.001158407
0.001255751
0.001393597
0.001536273
0.00161779
0.001595197
0.001475848
0.001377227
0.001315138
0.001273134
0.001233027
0.00117942
0.001132195
0.001061374
0.000984903
0.0009085519
0.0005725989
0.0002294815
0.0003879149
0.0007459084
0.0009959124
0.001012448
0.001033361
0.001046981
0.001053495
0.001073311
0.001121436
0.001199385
0.001292086
0.001364221
0.001393282
0.001358648
0.001274825
0.001214434
0.001184274
0.001159081
0.001090223
0.001050072
0.0009915086
0.0009339629
0.0006946942
0.0003573277
0.0002110539
0.0004977264
0.0007489785
0.0009616395
0.0009492071
0.0009514182
0.000951339
0.0009602531
0.0009880301
0.001035027
0.001090445
0.001140179
0.001177249
0.001191374
0.001156976
0.001101225
0.001075169
0.001079548
0.0009766537
0.0009611316
0.0009240835
0.0007064495
0.0004623173
0.0001902669
0.000213257
0.0004845714
0.0006984648
0.000878502
0.0008459594
0.0008498268
0.0008569236
0.0008745586
0.0009020503
0.0009330785
0.0009641292
0.000995201
0.001023364
0.001023566
0.0009841864
0.0009432356
0.0009992361
0.0008621541
0.0008748755
0.0006790651
0.0004576716
0.0001943738
0.0002001439
0.0003581491
0.0005413365
0.0007470304
0.0008859209
0.000824539
0.000805386
0.0008033906
0.0008134889
0.0008320222
0.0008554966
0.0008782078
0.0008828429
0.0008561486
0.0008243936
0.0009250578
0.0007571092
0.0005453118
0.0003490166
0.0001859046
0.0002170022
0.0004546907
0.0006011297
0.0006687785
0.0007210062
0.0007464863
0.0007569343
0.0007620312
0.0007703684
0.0007802205
0.0007768919
0.0007501535
0.0007038619
0.0006307536
0.0004576715
0.0002149713
0.0001690195
0.0002878523
0.0003274617
0.0004178345
0.0005113853
0.0005312805
0.0005393624
0.0005453252
0.0005477758
0.0005331229
0.0004362817
0.0003467553
0.000305696
0.0001734611
0.0001477953
0.0002398514
0.0002572999
0.0002636621
0.0002663493
0.0002645291
0.000248593
0.0001533181
0.0002717842
0.0004542424
0.0004886498
0.0004911311
0.0004629394
0.0002830649
0.0002466273
0.0004487021
0.0005500803
0.0006525632
0.0008546923
0.00106554
0.001115926
0.001121747
0.001087609
0.0008944494
0.0006903896
0.0005820213
0.000469648
0.0002548564
0.0002268345
0.0004520194
0.0007075365
0.000998902
0.001186411
0.0008639712
0.001063803
0.001259849
0.001316733
0.001326695
0.001287575
0.0011269
0.0009929056
0.001276455
0.00106859
0.0007505697
0.0004919203
0.0002463717
0.0002481947
0.0005844986
0.0009245448
0.0008226279
0.001087688
0.001193345
0.001012406
0.001251918
0.001452467
0.001534244
0.001568839
0.001549112
0.001421912
0.001272316
0.001488334
0.001275067
0.0009633303
0.001059765
0.000671302
0.0002919298
0.0002538438
0.0005998109
0.0009577944
0.000900621
0.0008774709
0.001123855
0.001190666
0.001079583
0.001306791
0.001520122
0.001638199
0.001717715
0.001746846
0.001677311
0.001592665
0.001760838
0.001556924
0.001198449
0.001260534
0.001171814
0.0007525732
0.0003236537
0.0002417642
0.0005922711
0.000662451
0.000923091
0.0009097853
0.0009258675
0.001156407
0.001217165
0.001110028
0.001315786
0.001524845
0.001648414
0.001739063
0.001807715
0.001803166
0.001798241
0.001975688
0.001817839
0.00149705
0.00146461
0.001361957
0.000974775
0.000794381
0.0003248373
0.0002209728
0.0005549586
0.0006369414
0.0007191178
0.000984186
0.001028855
0.001087833
0.001332554
0.001429251
0.001327622
0.001449859
0.001593785
0.001684123
0.00175394
0.001807924
0.001806569
0.001819112
0.002028243
0.001970074
0.001724954
0.001676304
0.001547247
0.001148955
0.0009562145
0.0007601398
0.0002957256
0.0001895377
0.0004933042
0.0006111853
0.0007045928
0.000835695
0.001149324
0.001334807
0.001513853
0.001781247
0.001933675
0.00191495
0.001920223
0.001923253
0.001898721
0.001868197
0.001844577
0.001801427
0.00179091
0.001953688
0.001968026
0.001800509
0.001758804
0.00164132
0.001285165
0.001030853
0.0008552697
0.0006531331
0.0002404087
0.0001553495
0.0004282298
0.0007562485
0.0006983853
0.0008487465
0.001070481
0.001473852
0.00188694
0.002297301
0.002652996
0.002859755
0.002879619
0.002779645
0.002608758
0.00239884
0.002190808
0.002013884
0.001869425
0.001780409
0.001838141
0.001872957
0.001778606
0.00174456
0.001652113
0.001361209
0.001106477
0.000831767
0.0009822679
0.0005403669
0.0001853241
0.0002943865
0.0006480454
0.0007903012
0.0008520051
0.001075653
0.001434713
0.001969166
0.002543476
0.002991516
0.003267683
0.003417838
0.003456682
0.003348264
0.003113924
0.002807185
0.002489038
0.002201526
0.001969916
0.001800185
0.001749452
0.0017481
0.001689662
0.001664893
0.001615055
0.001419737
0.001221425
0.0009697231
0.0009143234
0.0008523033
0.0003807284
0.0001570552
0.0004584246
0.0006348271
0.0008446935
0.001017454
0.001331802
0.001789929
0.002320929
0.002697527
0.002911422
0.003049808
0.003138249
0.003190912
0.003186457
0.003036374
0.002780944
0.002497918
0.002224422
0.001990654
0.001803106
0.001693495
0.001644973
0.00159488
0.00158428
0.001590597
0.001514834
0.001388891
0.001251009
0.00102203
0.0007181016
0.0006546228
0.0002151518
0.0002745944
0.0006333646
0.0007092291
0.0009147758
0.001157441
0.001539305
0.001981052
0.002326551
0.002594669
0.002803466
0.00291575
0.002959937
0.00299278
0.003031032
0.003030099
0.002771164
0.002483666
0.002233377
0.00202027
0.001843893
0.001714531
0.001635616
0.001592937
0.001623566
0.001710721
0.0017611
0.001665211
0.001644725
0.001424604
0.0008620768
0.001030871
0.0004450105
0.0003325983
0.0007458628
0.0008132891
0.001009472
0.001274708
0.00163118
0.001960166
0.002269591
0.002582019
0.002706605
0.002668315
0.002603868
0.002598034
0.002639153
0.002719907
0.002740255
0.002534141
0.002317883
0.002134705
0.00198393
0.001872351
0.001812737
0.001828204
0.001969847
0.002166206
0.002280353
0.002125159
0.001777594
0.001558042
0.0009671518
0.001222114
0.0005383408
0.0003916935
0.0006009388
0.0007985556
0.001020204
0.001278885
0.001581814
0.001893102
0.002292869
0.002527916
0.002376657
0.002236928
0.002183998
0.002208998
0.002291861
0.002421969
0.002584802
0.00264845
0.002567445
0.00243783
0.002343923
0.002354203
0.002450655
0.002612841
0.002722301
0.002705993
0.002503548
0.002149808
0.001658903
0.001436887
0.001018197
0.0007103278
0.0005515148
0.0001655378
0.0005228588
0.0006365162
0.0008170923
0.001021944
0.001261448
0.001552075
0.001894173
0.002331053
0.002256934
0.002019416
0.00193986
0.001930602
0.001961535
0.002024414
0.002128262
0.002277201
0.002454054
0.002619897
0.002727616
0.002794153
0.002843694
0.002807445
0.002665879
0.002386041
0.00217706
0.00199424
0.001765656
0.001445154
0.001301752
0.001061405
0.0008086891
0.0006477518
0.0002025429
0.0002743229
0.0006458922
0.0007168039
0.0008693503
0.001054293
0.001270223
0.001549809
0.001899696
0.002204928
0.002000227
0.001847485
0.001829736
0.00184078
0.001848592
0.001838693
0.001823477
0.001825208
0.001854561
0.001909416
0.001981788
0.002056251
0.002113262
0.002145589
0.002134394
0.002007745
0.001840056
0.001729608
0.001482609
0.001276704
0.001157097
0.001007575
0.00084507
0.0007494331
0.0003182705
0.0002978347
0.0006795564
0.0007608755
0.000907148
0.001082703
0.001280298
0.001533442
0.001844383
0.002068864
0.001958415
0.001848883
0.001853173
0.001883519
0.001901256
0.00187829
0.001816505
0.001747284
0.001703188
0.001700435
0.001740552
0.001812346
0.001891547
0.001943918
0.00193955
0.001865732
0.001719724
0.001532098
0.0013372
0.001183704
0.001109484
0.001022926
0.0008819366
0.0007526936
0.0003218759
0.0003044331
0.0006922998
0.0007781699
0.0009212002
0.001090019
0.001277248
0.001499774
0.001750065
0.001937351
0.00195899
0.001957095
0.001958891
0.00199196
0.002021042
0.002002185
0.001923384
0.001817697
0.001732262
0.001694164
0.001706495
0.001755129
0.001815413
0.001859155
0.001861875
0.001809264
0.001702055
0.001575535
0.001457634
0.001341721
0.001220692
0.001079675
0.000901578
0.0007335012
0.0003093222
0.0002933091
0.0006837529
0.0007750419
0.0009165237
0.001078848
0.001256113
0.001439921
0.001644964
0.001818751
0.001908942
0.002001216
0.002086598
0.002139822
0.002182359
0.002175964
0.00209164
0.001958782
0.001835501
0.001760108
0.001740306
0.001764724
0.001811892
0.001857024
0.001877395
0.001860893
0.001825044
0.001757801
0.001661783
0.001532716
0.00136608
0.001163764
0.0009224244
0.0007099364
0.0002897134
0.000185035
0.000575524
0.0006968933
0.0008550651
0.001023459
0.001197888
0.001363696
0.00152994
0.001675504
0.001781295
0.001895377
0.00205045
0.002213377
0.002332889
0.002366636
0.00229425
0.002144961
0.00198869
0.001876036
0.001820147
0.001813121
0.001837319
0.001870484
0.001889669
0.001907107
0.00189155
0.001840872
0.001749696
0.001605717
0.001402009
0.00114479
0.000847888
0.0006040151
0.0001818094
0.0004575374
0.0006098223
0.0007559363
0.0009429368
0.00112292
0.001283821
0.001415495
0.001537817
0.001631349
0.001723794
0.001872357
0.002081204
0.002313285
0.002485459
0.00247986
0.002335294
0.002155652
0.002011162
0.001920318
0.001875776
0.0018624
0.001862104
0.001862138
0.001866718
0.001842957
0.001785455
0.001685026
0.001526113
0.001299288
0.001007879
0.0007465419
0.0004843802
0.0004078679
0.0008966861
0.0009436059
0.001065931
0.001200152
0.001330789
0.00143911
0.001518743
0.00158805
0.001641102
0.001719946
0.001868236
0.002098654
0.002374015
0.002548962
0.002481003
0.002299244
0.002133895
0.002018559
0.001943265
0.001890063
0.001845105
0.001811528
0.001791741
0.001749355
0.001678866
0.001574862
0.001433665
0.001261489
0.001069295
0.0009201956
0.0004126627
0.0003496302
0.0007915275
0.0009046308
0.001050191
0.001195725
0.00133261
0.001447567
0.001527724
0.001574181
0.001608765
0.001631963
0.001690908
0.001841624
0.002095123
0.002372437
0.002495981
0.002382043
0.002211482
0.002083761
0.001995114
0.001917294
0.001836319
0.001772028
0.001727745
0.001664906
0.001572175
0.001442214
0.001276393
0.001086984
0.0008989178
0.0007795816
0.0003390571
0.0002035404
0.0005925831
0.0007302935
0.0008700885
0.001044042
0.00120151
0.001331311
0.001422951
0.001467268
0.00147834
0.00148809
0.001515716
0.001609641
0.001799191
0.002058036
0.002286397
0.002344338
0.002217129
0.002081508
0.001992282
0.001912395
0.0018144
0.001732187
0.001669688
0.001593424
0.001487685
0.001343367
0.001158419
0.0009422595
0.000741999
0.0005624455
0.0001877238
0.0003960994
0.0008452328
0.0009316307
0.001037022
0.001170835
0.001284331
0.001366437
0.001407559
0.001408799
0.001401151
0.001401653
0.001442472
0.00155573
0.00174646
0.001965254
0.002124217
0.002121571
0.001996596
0.001907056
0.001848529
0.001749142
0.001656983
0.001582891
0.001489714
0.001374863
0.001238733
0.001074471
0.000932867
0.0007830677
0.0003613816
0.0002086151
0.0005578167
0.0009580087
0.00101742
0.001108239
0.001192185
0.001249042
0.001278296
0.001274419
0.001252662
0.001240476
0.00125835
0.001333222
0.001473398
0.001652707
0.001818489
0.001899147
0.001839972
0.001751254
0.001730113
0.001637079
0.001538304
0.001461101
0.001339642
0.00119863
0.001060415
0.0009221245
0.0008830918
0.0005025508
0.0001832093
0.0002467229
0.0006256088
0.0007282741
0.0008228495
0.0009204169
0.0009927106
0.001036663
0.001049666
0.001038382
0.001037077
0.001064243
0.001134407
0.001248557
0.001390153
0.001530119
0.001626267
0.001625884
0.00155194
0.001573038
0.001495123
0.001388238
0.001325443
0.001186256
0.001006699
0.0008536978
0.0006968742
0.000554363
0.000209152
0.0002717444
0.0006615361
0.0007320756
0.0007926872
0.0008543037
0.0008976826
0.0009170855
0.0009171584
0.0009178823
0.0009445943
0.001000996
0.001083864
0.001182789
0.00128477
0.001366267
0.001386982
0.001331926
0.001390598
0.001347652
0.001209444
0.001178167
0.001052342
0.0008314838
0.0007193757
0.0006006953
0.0002326723
0.0002751373
0.0006490936
0.0006930133
0.0007497627
0.0007868185
0.0008210122
0.0008366108
0.0008454423
0.0008646518
0.0009004116
0.0009483264
0.001004928
0.001070005
0.001134977
0.001165198
0.001125494
0.001200238
0.001185683
0.001014032
0.001010761
0.0009341578
0.0006754926
0.0005969162
0.0002421837
0.0002594791
0.0005826871
0.0008755422
0.0008404126
0.0008334137
0.0008182182
0.0008072143
0.0008030877
0.0008068728
0.0008222511
0.0008526346
0.000900065
0.0009545343
0.0009719591
0.0009180349
0.001010933
0.001004066
0.0008193235
0.000862102
0.0008474874
0.0005524896
0.0002342749
0.0002224848
0.0004956905
0.0007258941
0.0006706614
0.0006677137
0.0006815802
0.0006853194
0.0006872181
0.0007009453
0.0007307771
0.0007712969
0.0008069007
0.0007941937
0.0007077655
0.0008436244
0.0008251969
0.0006652694
0.000742693
0.0004836527
0.0002116065
0.0001794269
0.0003315506
0.00048855
0.0006450036
0.0007302681
0.0006075284
0.0005882513
0.0006116941
0.0006431838
0.0006707594
0.0006819077
0.0006294939
0.0005492928
0.0007738821
0.0006880864
0.0005126149
0.0003422161
0.0001775826
0.0001722333
0.0002909654
0.0003372254
0.0003791793
0.0004879625
0.0005899051
0.0006101453
0.0006127127
0.0005963704
0.0004932269
0.0003890617
0.0003473805
0.0002975461
0.0001716356
0.0001571098
0.0002531316
0.0002678939
0.0002681144
0.0002530555
0.0001562213
0.0002516811
0.0004590062
0.0005521902
0.0006103871
0.0006361058
0.0006402044
0.0006247429
0.0005738776
0.0004928934
0.0002734265
0.0002523601
0.0004865829
0.000630537
0.0008662026
0.001166579
0.000867176
0.0009427788
0.000980277
0.0009842592
0.0009689691
0.000960692
0.001238651
0.0009251149
0.0006495748
0.0004921091
0.0002569612
0.0003386855
0.0007752465
0.0007166709
0.0009078288
0.00115884
0.00140007
0.001244226
0.001447437
0.001506901
0.001508873