/*--------------------------------*- C++ -*----------------------------------*\
  =========                 |
  \\      /  F ield         | OpenFOAM: The Open Source CFD Toolbox
   \\    /   O peration     | Website:  https://openfoam.org
    \\  /    A nd           | Version:  6
     \\/     M anipulation  |
\*---------------------------------------------------------------------------*/
FoamFile
{
    version     2.0;
    format      ascii;
    class       volScalarField;
    location    "50";
    object      nut;
}
// * * * * * * * * * * * * * * * * * * * * * * * * * * * * * * * * * * * * * //

dimensions      [0 2 -1 0 0 0 0];

internalField   nonuniform List<scalar> 
140018
(
0.0001898567
0.0002996241
0.0002926801
0.0001792575
0.0001973022
0.0003265811
0.0004449429
0.0005475199
0.0005368374
0.0004212142
0.0003036133
0.0001803005
0.0001565769
0.0002685044
0.0004057784
0.00053759
0.0005921436
0.0006191656
0.000615215
0.0005819338
0.0005276875
0.0003986619
0.0002813837
0.0001635685
0.000151112
0.0003455181
0.0004771675
0.0005234457
0.0005538909
0.0005942206
0.0006196233
0.0006257575
0.0006128029
0.0005828957
0.000534491
0.0004748437
0.0003423643
0.0001521853
0.0002646848
0.0004859435
0.0005539001
0.0005777824
0.0005790098
0.0005713494
0.0005915485
0.0006033105
0.0005997039
0.0005840792
0.0005583425
0.0005228673
0.0004585017
0.0002511787
0.0001571524
0.0003867629
0.0005527056
0.0006066356
0.0006244318
0.0006249979
0.0006163072
0.0006036057
0.0005940713
0.0005908044
0.0005856641
0.0005775351
0.0005649198
0.0005356247
0.0003860914
0.0001646712
0.0002747777
0.0005124989
0.000602136
0.0006420901
0.0006566337
0.0006587913
0.0006555446
0.0006507251
0.0006444925
0.0006360596
0.0006296368
0.000621764
0.0006059259
0.0005791005
0.0005007261
0.0002720791
0.0001352315
0.0003743937
0.0005573601
0.0006284222
0.0006593167
0.0006694543
0.0006687698
0.0006631773
0.0006550306
0.000644735
0.0006334878
0.0006231524
0.000614445
0.0006050861
0.0005879827
0.0005405166
0.00038133
0.0001601955
0.0002266753
0.0004701714
0.0005855918
0.0006451168
0.0006728883
0.000681327
0.0006807175
0.000675049
0.0006651467
0.0006544906
0.0006455533
0.0006386052
0.000635713
0.0006343788
0.0006240854
0.000589583
0.0005046285
0.0002766441
0.0002229432
0.0004702467
0.0005905189
0.000651368
0.0006811471
0.000691126
0.0006917004
0.0006872534
0.0006786153
0.0006690805
0.0006615682
0.0006565453
0.0006555151
0.0006551643
0.0006446928
0.0006091004
0.0005212983
0.0002833748
0.0001530284
0.0003823952
0.0005722082
0.0006449084
0.0006809473
0.0006953205
0.000697186
0.0006937637
0.0006876559
0.0006790742
0.0006708191
0.0006661759
0.0006651351
0.0006622175
0.0006465167
0.0005952363
0.000424891
0.0001804003
0.000305507
0.0005424738
0.0006276773
0.0006727087
0.0006935348
0.000698102
0.0006958894
0.0006913011
0.0006837246
0.0006757644
0.0006703487
0.0006663991
0.0006580273
0.0006309059
0.0005565893
0.000317307
0.0001904961
0.0004504426
0.0006018657
0.0006543428
0.0006839627
0.0006930488
0.0006934124
0.0006907557
0.0006847223
0.00067723
0.0006692897
0.0006595764
0.0006413597
0.000593521
0.0004307274
0.0001928715
0.0003218044
0.0005590869
0.0006231995
0.0006611914
0.0006776932
0.0006826473
0.0006829783
0.0006792688
0.0006717754
0.0006592615
0.0006403732
0.0006072232
0.0005370323
0.0003073971
0.0001919105
0.0004171343
0.0005573809
0.0006105368
0.000641718
0.0006564055
0.0006621953
0.0006610916
0.0006504126
0.0006284369
0.0005904844
0.0005351226
0.0003942029
0.0001835287
0.0001894038
0.0003150746
0.0004482154
0.0005617345
0.0005970086
0.0006143317
0.0006159151
0.0005929259
0.0005501339
0.0004264498
0.0003050509
0.0001822368
0.0001873979
0.0003111356
0.000423316
0.000517902
0.0005203639
0.0004178603
0.0003097696
0.0001864157
0.0001663753
0.0002741891
0.0002787359
0.0001715159
0.0001729391
0.0003017959
0.0003408249
0.0003689447
0.0003939005
0.0004165477
0.0004331584
0.0004352566
0.0004117548
0.0002507617
0.0001737449
0.000310591
0.0004453514
0.0005533296
0.0005940025
0.0006297061
0.000663341
0.0006961302
0.0007262248
0.000742559
0.0007304536
0.0005930372
0.0004303939
0.0002467918
0.0001963547
0.0004533189
0.0006104236
0.0006914886
0.0007558786
0.0008001944
0.0008425601
0.0008691482
0.0008672201
0.0008452598
0.000828557
0.0008279666
0.0007996562
0.0007364299
0.0005461436
0.0002476688
0.000197199
0.0004699445
0.000665038
0.0007834972
0.0008862376
0.0009919503
0.00111831
0.0010905
0.001054662
0.001008754
0.0008956516
0.001009082
0.0009164906
0.0008668884
0.0008298784
0.0007424449
0.0005357541
0.0002364215
0.0001838683
0.0004441225
0.0006525968
0.0008025269
0.0009615928
0.001140309
0.001228373
0.001240114
0.001229181
0.001176648
0.001114135
0.0009657452
0.0009720626
0.0009276674
0.001015254
0.00091297
0.0008217286
0.0007158432
0.000498232
0.0002125778
0.0001668412
0.0004050336
0.0006087752
0.0007742309
0.001008211
0.001212656
0.001239335
0.001356815
0.001393129
0.00131847
0.001239052
0.001168897
0.001069698
0.001027634
0.0009669885
0.0009847674
0.0009272265
0.0009386983
0.0007874382
0.0006594452
0.0004428786
0.0001877969
0.0002994853
0.0005464386
0.0007069887
0.0009146444
0.001052424
0.001277604
0.001517937
0.001633769
0.001677434
0.001596262
0.001389962
0.001264772
0.001170436
0.001106065
0.001042631
0.001022953
0.0009740519
0.0009851443
0.0008811552
0.0007383689
0.0005948248
0.0003205066
0.0001576366
0.0004051842
0.0006107053
0.0007925363
0.001081938
0.001093931
0.001397809
0.00149578
0.001544084
0.001572088
0.001585977
0.001465639
0.001351082
0.001267698
0.001196493
0.001127209
0.001103314
0.001068742
0.00099394
0.00107697
0.0008678342
0.000730011
0.0004959528
0.0002063864
0.0002733738
0.0005181273
0.0006720942
0.0009037472
0.0007049229
0.0009817222
0.001252348
0.001323859
0.001377562
0.001435143
0.001496885
0.001548956
0.001500182
0.001420443
0.001365099
0.001344105
0.001401899
0.001482914
0.001459582
0.001321292
0.001254332
0.0009607304
0.0007103559
0.0003510984
0.0003027409
0.000560212
0.0007230188
0.001001047
0.0007407551
0.001048173
0.001147557
0.001202739
0.001253925
0.001318182
0.00140183
0.001500933
0.001600213
0.001671328
0.001699345
0.001731172
0.001766825
0.001729333
0.001513113
0.001025109
0.001180585
0.0008276095
0.0006033137
0.0002961511
0.0003203867
0.0005914713
0.0007664234
0.0005713833
0.0007616345
0.001023746
0.001092436
0.001119853
0.001135287
0.001150345
0.00116983
0.001195449
0.001225167
0.001255758
0.001282527
0.001299638
0.001304977
0.001285679
0.001204526
0.0009609555
0.0007237461
0.0007881503
0.0005802559
0.0002936334
0.00033193
0.0006201527
0.0007965098
0.0006575853
0.0009335829
0.001062735
0.001104562
0.001111325
0.001103807
0.001091334
0.001077108
0.001066677
0.001061118
0.00106521
0.001081588
0.001109807
0.00113976
0.001151853
0.001131498
0.001076693
0.0009469796
0.0008393258
0.0006214013
0.0003175468
0.0003377357
0.0006462707
0.0008186968
0.0008084989
0.001036513
0.001154682
0.001176418
0.001161529
0.001132979
0.001100536
0.001067579
0.001042802
0.001024607
0.001018333
0.001025433
0.001044209
0.001064733
0.001075586
0.001063051
0.001009358
0.0009361348
0.0008734528
0.0006528263
0.0003359518
0.0003372145
0.0006505831
0.0008182897
0.001082077
0.001270987
0.001297354
0.001302649
0.001261564
0.001205356
0.001148034
0.001094304
0.001059091
0.001032112
0.001015967
0.001013147
0.001023523
0.001041448
0.001057361
0.001052148
0.001018416
0.0009584347
0.0008674898
0.0006677954
0.0003485896
0.0003282779
0.0006311308
0.0007908168
0.00099888
0.001139073
0.001322515
0.001417121
0.001395557
0.001315865
0.001226395
0.001140865
0.001093375
0.001060356
0.001038152
0.001026368
0.001027116
0.00103952
0.001054039
0.001062263
0.001053111
0.001054603
0.0008282377
0.0006547977
0.0003468583
0.0003051713
0.0005921331
0.0007569716
0.0009139071
0.001002904
0.001193767
0.001373319
0.001456627
0.001436514
0.001329648
0.00119844
0.001132209
0.001093443
0.001067775
0.001048272
0.001036644
0.001035319
0.001036613
0.001025794
0.0009933
0.0009355453
0.0007725108
0.0006089598
0.0003201633
0.0001901267
0.0004695745
0.0007005662
0.0008486201
0.001060714
0.001112447
0.001220842
0.001350221
0.001449585
0.001427894
0.00126125
0.001164775
0.001117668
0.00109277
0.001071103
0.001046642
0.00103027
0.001020652
0.001020872
0.001042451
0.0008351373
0.0006937603
0.0004698478
0.00019226
0.0003412458
0.0006310382
0.0007873244
0.0009423788
0.0009735952
0.001047975
0.001175105
0.001329296
0.001412528
0.001311301
0.001186577
0.001124388
0.001101031
0.001084559
0.001044565
0.00101781
0.0009682634
0.0009394699
0.000900487
0.0007510158
0.0006067864
0.0003314343
0.0002018952
0.0004627771
0.0006796615
0.0008154256
0.0009830604
0.0009861979
0.00105368
0.001155168
0.001259964
0.001263532
0.001180198
0.001102305
0.001070812
0.001077216
0.001027647
0.001014334
0.0009410035
0.0009463359
0.0007798791
0.0006483112
0.00044353
0.0001928526
0.0002158688
0.0004850961
0.0006925419
0.0008060978
0.0009122336
0.001026045
0.001021603
0.001081478
0.001098321
0.001082753
0.001038902
0.001004142
0.00104162
0.0009749758
0.001022926
0.0008893142
0.0007736585
0.0006597576
0.0004609322
0.000203075
0.0002174691
0.0004778356
0.0006611997
0.0007483867
0.0008034985
0.0008652315
0.000948254
0.0009192071
0.0009309266
0.0009366795
0.0009119139
0.0009958817
0.0008902312
0.0008064169
0.0007326022
0.0006354018
0.0004554134
0.0002033756
0.0002058454
0.0004368103
0.0005837637
0.0006454927
0.0006917694
0.0007212002
0.0007590469
0.0007957
0.000812871
0.0007992848
0.0007596065
0.000714947
0.0006558624
0.0005831933
0.0004273996
0.0001970131
0.0001846878
0.0003087344
0.0004214338
0.0005274071
0.000553912
0.0005700493
0.0005821419
0.0005915225
0.0005936846
0.0005798217
0.0005467883
0.0004340701
0.0003151174
0.0001816218
0.0001664491
0.0002682254
0.0002851357
0.0002911437
0.0002945827
0.0002981862
0.0003009401
0.0002972357
0.0002782967
0.0001709537
0.0002391894
0.0004067772
0.0004521016
0.0004708126
0.0004755865
0.0004678463
0.0004341873
0.0002633227
0.0002171592
0.0004001677
0.0004803936
0.0006403848
0.0008218161
0.0008908028
0.0009267455
0.0009428314
0.0009403837
0.0009052414
0.0007317857
0.0005595623
0.0004629948
0.0002522717
0.0002332477
0.0005216276
0.0007397359
0.0008683283
0.0009847158
0.001085448
0.001167201
0.001225039
0.001263229
0.001280306
0.001266165
0.00121307
0.001102429
0.0009373877
0.0006559213
0.0003060391
0.0001835076
0.0003431375
0.0005333529
0.0007668143
0.0009627296
0.0009384078
0.001061844
0.001159812
0.001236153
0.001293371
0.001335288
0.001358199
0.001346394
0.001302205
0.001230137
0.001347677
0.001069024
0.0007543382
0.0004793166
0.0002546761
0.0001766508
0.00041601
0.0006215482
0.00080054
0.0009457132
0.001161925
0.001213537
0.001318832
0.001392778
0.001441813
0.001464939
0.00146742
0.001453351
0.00141321
0.00136306
0.001303869
0.001402886
0.001187027
0.001191296
0.0009193963
0.0006037024
0.0002542297
0.0001652934
0.0004010929
0.0006141948
0.0008183115
0.001127005
0.001365894
0.001561905
0.001663955
0.001732092
0.001770577
0.001773956
0.001737945
0.001672606
0.001590907
0.001498875
0.001412591
0.001338357
0.001402293
0.001247948
0.001233491
0.001211995
0.000909332
0.0005728639
0.0002286533
0.0002970575
0.0005898064
0.0008151415
0.001189356
0.001533032
0.00178194
0.001970824
0.002076853
0.0021071
0.002088429
0.002040173
0.001972127
0.001868211
0.001719787
0.001588569
0.00146848
0.001365212
0.001376028
0.001271993
0.001231483
0.001208519
0.001143059
0.000817464
0.000399274
0.0001922898
0.0004855319
0.0007889242
0.00111356
0.001455682
0.001717103
0.001926737
0.002086446
0.002190436
0.002230137
0.002175122
0.002079988
0.001981914
0.001871984
0.001727581
0.001608774
0.00148213
0.001376332
0.001344572
0.001260871
0.001214916
0.00119634
0.001154156
0.001010796
0.0005993322
0.0002306733
0.0001557238
0.0004227527
0.0007034152
0.0009247359
0.0012463
0.00152357
0.001778641
0.001995596
0.002170675
0.002281816
0.002359982
0.002357572
0.002206382
0.002014085
0.001843079
0.00168905
0.00157196
0.001463
0.001373281
0.001312388
0.001241887
0.001194545
0.001185685
0.00116324
0.0009708635
0.0008740014
0.0005282769
0.0002004844
0.0002765583
0.0005811118
0.000870835
0.00108855
0.001339885
0.001593818
0.001851214
0.002046914
0.002195751
0.002285589
0.002345622
0.002385373
0.002357265
0.002104179
0.001884595
0.001719123
0.001595074
0.001492966
0.001410014
0.001337174
0.001277996
0.001254258
0.001279988
0.001277834
0.0009543557
0.001170126
0.0008324783
0.0004115722
0.0003323841
0.0006798696
0.0008464354
0.001079086
0.001342121
0.001658807
0.001871944
0.001977102
0.002050057
0.002055249
0.002080994
0.002124189
0.002181705
0.002144125
0.001959229
0.001810433
0.00169416
0.001600469
0.001536245
0.001482785
0.001455496
0.00153245
0.001616541
0.001635665
0.001281035
0.0009049114
0.001051955
0.0005268033
0.0001552466
0.0004459638
0.0007652673
0.0008939076
0.00114222
0.001418546
0.001760808
0.001706806
0.001713563
0.001744378
0.001756736
0.001803695
0.001883496
0.001989975
0.002105963
0.002121354
0.00203585
0.001942718
0.001889471
0.00192035
0.001985337
0.002074933
0.002098775
0.002066863
0.001881065
0.001541388
0.0008997519
0.001091101
0.0006396243
0.0002181449
0.0002598392
0.0005582478
0.0008136866
0.0009405366
0.001184464
0.001494507
0.00174591
0.001496996
0.001528096
0.001544285
0.001568953
0.001611476
0.001678583
0.001778901
0.00191158
0.002059355
0.002187636
0.002260061
0.002308888
0.002355387
0.002325942
0.002157793
0.001791792
0.001677428
0.001530496
0.001322013
0.0008552823
0.0009110292
0.0006056157
0.000270677
0.0002856702
0.0005912838
0.000841962
0.0009698474
0.001222914
0.001550968
0.00152242
0.0013621
0.001436802
0.001466056
0.001482512
0.001489796
0.001489314
0.001492175
0.001509067
0.001541932
0.001586572
0.00163652
0.001681362
0.001713674
0.001718383
0.0016729
0.001506273
0.001354657
0.001355745
0.001152196
0.0009526028
0.0007670261
0.0005686896
0.000293508
0.0002970194
0.0006079202
0.0008593921
0.0009798624
0.001228108
0.001526551
0.001523425
0.001431231
0.001465526
0.001491465
0.00150375
0.001499811
0.001473603
0.001431769
0.001392119
0.001368242
0.001367823
0.001392943
0.001438007
0.001487309
0.001515255
0.001501801
0.001444059
0.00133197
0.001183567
0.001027895
0.0009124053
0.0008554328
0.0006260166
0.0003158353
0.0003022641
0.0006173221
0.0008703901
0.0009778215
0.001179889
0.001445014
0.001524363
0.001531056
0.00158324
0.001595007
0.001595199
0.001580213
0.001538499
0.001472341
0.001403883
0.001352027
0.001327875
0.001333036
0.001359554
0.00139151
0.001410245
0.001399207
0.001345792
0.001261819
0.001166675
0.001066479
0.0009681192
0.0008999567
0.0006497435
0.0003228644
0.0003014873
0.0006192241
0.0008743775
0.0009674827
0.001125187
0.001339411
0.001497884
0.001597597
0.001696539
0.001748958
0.001742076
0.0017146
0.001655117
0.001564624
0.001470912
0.001394598
0.001347366
0.001331738
0.001341888
0.001364894
0.001384764
0.001385405
0.001369388
0.001318585
0.001242444
0.00114747
0.001032123
0.000934231
0.0006638816
0.000323337
0.0002848233
0.0006018241
0.0008636049
0.0009427296
0.001066461
0.001215794
0.001369136
0.001500223
0.001644724
0.001788498
0.001876509
0.001878587
0.001811338
0.001692296
0.001570901
0.001471334
0.001402535
0.001365914
0.001357843
0.001368645
0.001383681
0.001395924
0.001383246
0.001336997
0.001265641
0.001172737
0.001050014
0.0009424571
0.0006557115
0.0003081046
0.000179105
0.00049604
0.0008321881
0.0009002726
0.00100095
0.001107957
0.001219339
0.001339264
0.001479484
0.001645319
0.001822231
0.001959981
0.001969192
0.001836668
0.001682218
0.001558309
0.001469872
0.001412542
0.001382455
0.001372193
0.001368221
0.001368636
0.0013419
0.001289307
0.001215914
0.001121472
0.001001361
0.0009009239
0.0005382932
0.0001906661
0.0003910009
0.0007766395
0.0008604851
0.0009410737
0.001033906
0.001113204
0.001183539
0.001276841
0.001426204
0.001617011
0.001830886
0.001998119
0.001961857
0.001786495
0.001635392
0.001529998
0.001455955
0.00140507
0.001370015
0.001346713
0.001324638
0.001283621
0.001224274
0.001148272
0.001044964
0.0009334688
0.0008027005
0.0004066621
0.0003442412
0.0006976526
0.001007345
0.00104604
0.001110089
0.001163984
0.001206626
0.001240737
0.001302225
0.00142214
0.001611113
0.001828289
0.001952372
0.001857014
0.001686282
0.001563741
0.001477231
0.001411906
0.001360223
0.001322046
0.001281574
0.001231963
0.00117224
0.001105747
0.001033782
0.0009906261
0.0006842126
0.0003376071
0.0001990568
0.0005140607
0.0008340303
0.0009048075
0.0009682442
0.001033856
0.001077294
0.001107023
0.001145676
0.001233715
0.001391035
0.001591372
0.001764935
0.001810009
0.001691986
0.001553006
0.001451676
0.001382278
0.00133115
0.00128648
0.001235671
0.001179777
0.001105846
0.001011203
0.0009105422
0.0008087727
0.0004956749
0.0001885596
0.0002436566
0.0005999606
0.0009498453
0.0009908332
0.001031294
0.001070176
0.001091577
0.001109116
0.001153752
0.001244331
0.001377419
0.001521453
0.00161046
0.001599994
0.001481402
0.001377087
0.001312553
0.001269928
0.001229884
0.001175628
0.001128697
0.001058065
0.000981779
0.0009058178
0.0005708284
0.0002287842
0.0003873007
0.0007448171
0.0009946583
0.001011434
0.001033137
0.001047036
0.001052834
0.001069935
0.001114223
0.001188883
0.001281117
0.001355838
0.001388591
0.001358862
0.001273784
0.001210549
0.00117956
0.001155659
0.0010858
0.001046474
0.0009883086
0.0009310572
0.000692383
0.0003560224
0.0002108765
0.000497304
0.0007483185
0.000960961
0.0009484806
0.0009507163
0.0009502782
0.000957733
0.0009831781
0.00102807
0.001082744
0.001132752
0.001170044
0.001185361
0.001153768
0.001096835
0.001069608
0.00107649
0.00097223
0.0009579946
0.0009215667
0.0007043161
0.0004608451
0.000189669
0.0002132159
0.0004846066
0.0006986833
0.0008789531
0.0008463815
0.0008503143
0.0008562503
0.000872196
0.0008982222
0.0009283356
0.0009585587
0.0009884097
0.001015625
0.001017432
0.0009797247
0.0009375356
0.0009964523
0.0008586466
0.000872451
0.0006773482
0.0004563441
0.0001938374
0.0002002745
0.0003584754
0.0005420543
0.0007481608
0.0008873048
0.0008250555
0.0008051612
0.0008021437
0.0008108841
0.0008279278
0.0008501238
0.0008721382
0.000877201
0.0008515775
0.0008194972
0.0009217635
0.0007547993
0.0005436971
0.0003482175
0.0001854744
0.0002173472
0.0004554617
0.0006021209
0.0006697777
0.0007217463
0.0007466568
0.0007561848
0.00076012
0.0007673252
0.0007763924
0.0007728984
0.0007464238
0.0007003072
0.0006281789
0.0004563492
0.0002144227
0.0001693613
0.0002884527
0.0003280898
0.000418284
0.0005114915
0.0005308082
0.0005381927
0.0005434743
0.0005454328
0.0005306572
0.0004342531
0.0003450305
0.0003043859
0.0001729896
0.0001480374
0.0002400338
0.0002571991
0.0002632283
0.0002656103
0.0002635764
0.0002475994
0.0001527243
0.0002719887
0.0004545834
0.0004890765
0.0004916676
0.0004635826
0.0002835587
0.0002468239
0.000449069
0.0005505428
0.0006531011
0.000855416
0.001066409
0.00111682
0.001122744
0.001088769
0.0008955485
0.0006911836
0.0005827996
0.0004703519
0.0002553892
0.0002272242
0.0004528603
0.0007087878
0.001000622
0.001188291
0.000866364
0.001066373
0.001262261
0.001318547
0.001327872
0.001288242
0.001127437
0.0009934049
0.001277374
0.001069392
0.0007513702
0.0004923685
0.0002466186
0.0002490243
0.0005863774
0.0009275845
0.0008268009
0.001092996
0.001199733
0.001018925
0.001259826
0.001460123
0.001540463
0.001572965
0.001550953
0.001422363
0.001272334
0.001486772
0.001273474
0.0009627134
0.001060136
0.0006715168
0.0002921178
0.0002549717
0.0006025105
0.0009622719
0.0009060091
0.0008846044
0.001132972
0.00120162
0.001092588
0.001321949
0.001535854
0.001653023
0.001730032
0.0017552
0.001681956
0.001594452
0.001757977
0.001553676
0.001196267
0.00125976
0.001171921
0.0007529545
0.0003240552
0.0002427367
0.0005948091
0.0006662313
0.0009269246
0.0009143454
0.0009339436
0.00116543
0.001226231
0.001122541
0.00133159
0.00154225
0.00166583
0.001757441
0.001826199
0.001819014
0.001808808
0.001978847
0.0018169
0.001495277
0.00146431
0.001362214
0.000976025
0.0007957473
0.0003257336
0.0002215122
0.0005564018
0.0006380208
0.0007222348
0.0009866244
0.001031313
0.001094664
0.001341624
0.001437006
0.001335529
0.001462046
0.001609477
0.001701458
0.001772466
0.001828457
0.001827087
0.001839366
0.002044632
0.001979645
0.001730264
0.00168131
0.001551981
0.001153795
0.0009606811
0.0007629201
0.0002971075
0.0001897367
0.0004934897
0.0006108963
0.0007027745
0.0008381654
0.001153914
0.001341263
0.001527189
0.001801164
0.001953487
0.001930953
0.001935392
0.001938878
0.001914514
0.001884393
0.001862478
0.001821862
0.001813193
0.001978387
0.001986597
0.00181751
0.001774377
0.001654957
0.001297637
0.001039604
0.0008592502
0.0006563214
0.000241773
0.0001552785
0.0004277492
0.0007546622
0.0006936185
0.0008438054
0.001070523
0.001486832
0.001910369
0.002330163
0.002692675
0.002901526
0.002918828
0.002814275
0.00263839
0.002423216
0.002210715
0.002031439
0.001887321
0.001801372
0.001864392
0.001898781
0.001802972
0.001767465
0.001670619
0.00137583
0.001114706
0.0008315095
0.0009848498
0.0005411985
0.0001851474
0.0002935767
0.0006458703
0.0007865724
0.0008423926
0.001070069
0.001437178
0.001985427
0.002565745
0.003010347
0.003284397
0.003439702
0.003490576
0.003391733
0.003159351
0.002848865
0.002523417
0.002228115
0.001990773
0.001819924
0.001773321
0.001774791
0.001716468
0.001689476
0.001633109
0.001429034
0.001218243
0.0009589651
0.0009189876
0.0008449593
0.0003766158
0.0001567137
0.000456109
0.0006318671
0.000840699
0.001008407
0.001326966
0.001792183
0.002326488
0.002697356
0.002906307
0.003042723
0.003134884
0.003202883
0.003226319
0.003093753
0.002836614
0.002545324
0.00226088
0.002016118
0.00182109
0.001710968
0.001664794
0.001615092
0.00159837
0.001591
0.001498947
0.001359701
0.001212494
0.001005523
0.000713456
0.0006443744
0.0002121561
0.0002737991
0.0006301465
0.0007034217
0.0009080992
0.001149711
0.001533585
0.001978015
0.002324188
0.002590801
0.002785716
0.002881193
0.00291672
0.002955679
0.003017474
0.003062261
0.00282521
0.002526422
0.002265609
0.00204046
0.001853331
0.001718919
0.001638107
0.001589554
0.001602738
0.001664597
0.001691326
0.00159081
0.001574064
0.001374049
0.00084082
0.001016982
0.0004422842
0.0003313744
0.0007421192
0.0008053227
0.0009996261
0.001265995
0.001622105
0.001954015
0.002268916
0.0025675
0.002653865
0.0025949
0.002531072
0.002533939
0.002590912
0.002701124
0.00277266
0.002570889
0.002340025
0.002142572
0.001979828
0.001858246
0.001783745
0.001773162
0.001873887
0.002036886
0.002151858
0.002035785
0.001736817
0.001543211
0.0009632257
0.001226433
0.0005434414
0.0003900786
0.0005988874
0.0007943468
0.001013101
0.001273731
0.001576027
0.001888285
0.002293117
0.002473994
0.002301249
0.002175443
0.00213085
0.002158399
0.002242486
0.00237754
0.002552163
0.002642073
0.002566843
0.002426677
0.002312652
0.0022874
0.002328604
0.002462567
0.002593842
0.002643665
0.002509066
0.002191733
0.001701068
0.001471473
0.001035969
0.0006978932
0.0005585226
0.0001652104
0.0005209921
0.0006332833
0.0008120503
0.001014439
0.001254708
0.001543389
0.001887105
0.002315471
0.002192755
0.001978143
0.001912723
0.001906089
0.001932181
0.001985759
0.002079799
0.002222171
0.002398112
0.002569033
0.00268214
0.00274721
0.002805857
0.002803264
0.002694914
0.002437423
0.002232461
0.002045775
0.001811442
0.001479361
0.00133445
0.001089809
0.0007911029
0.0006532265
0.0002028193
0.0002737197
0.000643881
0.000712682
0.000862966
0.001044964
0.001259389
0.001536207
0.001883342
0.002168243
0.001969897
0.001840198
0.001829205
0.001842196
0.00184879
0.001834056
0.001811343
0.001806218
0.001832101
0.001887453
0.001963666
0.002045109
0.002115551
0.002155647
0.002148318
0.002029036
0.001871196
0.001773934
0.001522613
0.001299329
0.001170053
0.001013923
0.0008325809
0.0007509232
0.0003199048
0.0002971852
0.0006776011
0.0007571451
0.0009010626
0.001073459
0.001267527
0.001516895
0.001820072
0.00203815
0.001960944
0.001865367
0.001868454
0.001898054
0.001915182
0.001890535
0.001824595
0.001749724
0.001700667
0.001694341
0.00173202
0.001802983
0.001884544
0.001943079
0.001947582
0.00188318
0.001743897
0.001557395
0.001356127
0.001186474
0.001106196
0.001020013
0.0008793753
0.0007557255
0.000324276
0.0003038008
0.0006904141
0.0007749062
0.0009158257
0.001081639
0.001265025
0.001482669
0.001724939
0.001912089
0.001961013
0.001985436
0.001987876
0.002016557
0.002043175
0.002022504
0.001940206
0.001828792
0.001737315
0.001694357
0.001703221
0.001750051
0.001810751
0.001857331
0.001864727
0.001817051
0.001713186
0.001584455
0.001463694
0.001344024
0.001220728
0.001080128
0.0009031407
0.0007367457
0.0003111216
0.0002927346
0.0006819716
0.0007720389
0.0009115236
0.001070969
0.001244527
0.001422994
0.001622154
0.001794312
0.001900312
0.002009165
0.002109038
0.002169891
0.002210712
0.002203134
0.002115744
0.001977192
0.001846962
0.001765546
0.001741142
0.001762361
0.001807935
0.001853174
0.001875082
0.001859837
0.001826024
0.001760077
0.001664455
0.001535147
0.00136818
0.001165925
0.0009249617
0.0007123521
0.0002907153
0.0001847207
0.000574126
0.0006943672
0.0008506122
0.001016236
0.001187304
0.001350073
0.001512389
0.001654883
0.001763846
0.001881466
0.002041488
0.002218315
0.00235323
0.002394626
0.002322241
0.002168159
0.002004752
0.00188553
0.001824568
0.001813597
0.001834835
0.001866063
0.001883994
0.00190159
0.001887066
0.001837544
0.00174753
0.001604661
0.001401872
0.001145267
0.0008488814
0.0006059898
0.0001823063
0.0004564297
0.0006075727
0.0007521008
0.0009364235
0.001113319
0.001272162
0.0014025
0.001522558
0.00161509
0.001704006
0.001847582
0.002057053
0.00230024
0.002493674
0.00250422
0.002359477
0.002173708
0.002022678
0.001926995
0.001878763
0.001862196
0.001859248
0.00185603
0.001860026
0.001836293
0.0017793
0.001679904
0.001522661
0.001297994
0.001008557
0.0007472714
0.0004852002
0.0004069843
0.0008942897
0.0009395175
0.001059349
0.001190864
0.001319921
0.001429083
0.0015092
0.001579807
0.001633461
0.001705648
0.001843597
0.002067866
0.002349004
0.002548549
0.002499759
0.002316372
0.002145042
0.002025227
0.001947164
0.001891525
0.001844025
0.001806833
0.001785914
0.001742948
0.001672229
0.00156825
0.00142747
0.001256277
0.001065826
0.0009193111
0.0004123668
0.0003489711
0.000789614
0.0009011862
0.00104443
0.001187374
0.001322432
0.001438025
0.001521646
0.001570494
0.001605515
0.00162789
0.001678381
0.001815596
0.002059798
0.002342584
0.002491915
0.002394144
0.002220515
0.002088153
0.001997376
0.001918372
0.001835576
0.001768682
0.001722297
0.001659005
0.001566282
0.0014366
0.001271288
0.001082619
0.0008956502
0.0007779634
0.0003383717
0.0002032387
0.0005913706
0.0007278481
0.0008661749
0.00103797
0.001193605
0.001323089
0.001416815
0.001464796
0.001477696
0.001488258
0.001510705
0.001592946
0.001768959
0.002021515
0.002258003
0.002339378
0.002222591
0.002082922
0.001991087
0.001911084
0.00181174
0.001727383
0.001662718
0.001585962
0.001480491
0.001337184
0.001153787
0.0009394525
0.0007399262
0.0005610386
0.0001873131
0.0003954193
0.0008435983
0.0009290684
0.001033473
0.001166136
0.001279191
0.001361793
0.001405374
0.001409428
0.001401479
0.001399129
0.001432127
0.001533967
0.00171483
0.001931886
0.002100691
0.002117047
0.001995773
0.00190246
0.001844213
0.001743951
0.001650023
0.001574438
0.001480477
0.001365513
0.001230427
0.00106808
0.0009287857
0.000780298
0.0003601873
0.0002083841
0.0005570232
0.0009565282
0.001015193
0.001105367
0.00118816
0.001244997
0.001275184
0.001272754
0.001250714
0.001236814
0.001249725
0.001316468
0.00144804
0.001622769
0.001791241
0.001882573
0.001835273
0.001744751
0.0017237
0.001630386
0.001529984
0.001452892
0.001331021
0.001189576
0.001052421
0.0009156567
0.0008796159
0.0005006398
0.0001826248
0.0002465083
0.0006250307
0.000727296
0.000821716
0.000919491
0.0009922374
0.001036986
0.001050987
0.001039839
0.001035867
0.001058309
0.001121732
0.001228997
0.001366162
0.001506108
0.001607204
0.001615175
0.001544603
0.001564756
0.001488456
0.001379484
0.001318357
0.001179834
0.0009997958
0.0008487145
0.0006935899
0.0005522751
0.0002084051
0.0002716321
0.0006613704
0.0007319871
0.0007932692
0.0008555652
0.0008997073
0.0009198505
0.0009199445
0.0009183058
0.0009409718
0.0009920945
0.001069944
0.001165423
0.001266325
0.001349675
0.001374614
0.00132319
0.001379736
0.001341828
0.001202124
0.001172144
0.001048241
0.0008263216
0.0007158803
0.0005988211
0.0002320084
0.0002752101
0.00064944
0.0006936252
0.0007515593
0.0007896147
0.0008245639
0.0008399936
0.0008471099
0.0008628392
0.0008948668
0.0009396897
0.0009939622
0.001057104
0.00112104
0.00115239
0.001116106
0.001189641
0.001179347
0.001009627
0.001005546
0.0009321685
0.0006723421
0.0005951917
0.0002416651
0.0002597073
0.000583404
0.0008767839
0.0008421398
0.0008349877
0.0008194336
0.0008074878
0.000801721
0.0008036071
0.0008171912
0.0008455365
0.0008903878
0.0009434447
0.0009618525
0.0009104081
0.001002263
0.0009981826
0.000816434
0.0008583003
0.0008452075
0.0005510848
0.0002339419
0.0002227876
0.0004965776
0.0007273665
0.0006720446
0.0006694202
0.0006831361
0.0006856698
0.0006861838
0.0006982015
0.0007260988
0.0007649497
0.0007997193
0.0007876716
0.0007028087
0.0008374819
0.0008208076
0.0006630285
0.0007404058
0.0004825745
0.0002112399
0.0001797694
0.0003323387
0.0004899964
0.0006470136
0.0007323945
0.0006088618
0.0005888287
0.0006109152
0.0006410362
0.0006676364
0.0006782989
0.0006262285
0.0005464637
0.0007704288
0.0006853171
0.000510893
0.0003411947
0.0001772412
0.0001727701
0.000291892
0.0003382358
0.0003801258
0.0004886793
0.0005901151
0.0006097246
0.0006117154
0.0005949431
0.0004917927
0.0003877006
0.0003461128
0.0002965059
0.000171131
0.0001573194
0.0002532994
0.0002678617
0.000267869
0.0002526536
0.0001559168
0.0002517272
0.000459157
0.0005524671
0.0006108326
0.0006367225
0.0006410196
0.0006257611
0.0005750232
0.0004940303
0.000274181
0.0002522979
0.0004865402
0.0006305741
0.0008663644
0.001166918
0.00086785
0.0009435898
0.0009812337
0.0009854663
0.0009705121
0.0009626269
0.001241079
0.00092719
0.0006511308
0.0004935972
0.0002578161
0.0003387158
0.0007752876
0.0007172524
0.0009085531
0.001159751
0.001401158
0.00124554
0.00144868
0.001507773
0.001509612
0.001477154