/*--------------------------------*- C++ -*----------------------------------*\
  =========                 |
  \\      /  F ield         | OpenFOAM: The Open Source CFD Toolbox
   \\    /   O peration     | Website:  https://openfoam.org
    \\  /    A nd           | Version:  6
     \\/     M anipulation  |
\*---------------------------------------------------------------------------*/
FoamFile
{
    version     2.0;
    format      ascii;
    class       volScalarField;
    location    "50";
    object      p;
}
// * * * * * * * * * * * * * * * * * * * * * * * * * * * * * * * * * * * * * //

dimensions      [1 -1 -2 0 0 0 0];

internalField   nonuniform List<scalar> 
140018
(
122736.3
122734.1
122736.5
122754.2
122648.4
122617.9
122626.7
122634.1
122656
122683.7
122689.5
122702.6
122662.9
122602.9
122539.1
122486
122472.4
122505.8
122559.9
122612.7
122652.3
122681.6
122681
122671.2
122666.6
122623.9
122552.3
122466.1
122384.2
122352.4
122394.2
122480.5
122563.8
122629
122674.7
122700.9
122710.2
122695.9
122634.5
122592.6
122527.5
122449.7
122371.3
122323.8
122360.1
122462.7
122561.4
122641.9
122699.9
122737.8
122758.6
122756.7
122614.1
122594.9
122561.1
122519.2
122471
122424.8
122406.4
122442.2
122520.2
122617.1
122698.7
122760
122801.8
122829
122839.4
122823.4
122551.4
122530.2
122514.8
122501.2
122489.5
122485.3
122502.9
122548.7
122617.1
122689.6
122755.1
122805.7
122836.3
122849.6
122840
122809.9
122481.7
122472.8
122454.6
122454.5
122463.4
122476.4
122499.5
122533.9
122581
122638.9
122699.7
122752
122789.7
122808.1
122803
122775.4
122728.9
122619.5
122413.2
122379.6
122369.4
122385.3
122415
122449
122490.7
122530.7
122577.1
122621.6
122665.9
122700.8
122728.2
122739.2
122732.4
122706.7
122657.8
122574.6
122336.2
122294.1
122282.1
122312.9
122363.6
122418.6
122475.1
122523.1
122569.7
122608.8
122644.7
122668.8
122688.6
122692.3
122683.4
122660.5
122619.2
122556.2
122275.9
122233.1
122216.8
122256.5
122324.2
122397.5
122464.7
122521.6
122570.3
122606.8
122633.9
122654
122667.2
122667.2
122658.6
122639
122601
122560.1
122199.2
122213.1
122247.7
122315.8
122396.7
122469.7
122529.3
122574.8
122608.6
122634.9
122652.8
122660.2
122659.3
122652
122636
122605.4
122228.5
122256.7
122288.5
122348.6
122423.4
122492.8
122550.2
122593.9
122624.6
122645.6
122657.6
122662
122660.1
122653.6
122637.9
122613.7
122303.9
122353.9
122405.5
122470.8
122531.6
122578.7
122613.1
122639
122656.5
122666.3
122669
122666.6
122659.8
122641
122361
122413.8
122462.6
122519.4
122571.9
122613.3
122638.7
122657.3
122670
122677.4
122679.2
122674
122663.3
122638.4
122444.6
122494.2
122550.5
122598.9
122638.5
122658.4
122670.4
122680.2
122682.5
122680.4
122665.2
122649.7
122551.5
122601.8
122641.2
122663.6
122674.8
122678.3
122668.1
122657.8
122620.2
122649.3
122658.9
122656.6
122872.9
122888.1
122884.4
122872.4
122853.9
122826.8
122789.8
122743.2
122686.5
122622.7
122847.2
122877.4
122908.1
122914.2
122908.4
122899.3
122888.6
122871.6
122842.7
122797.2
122735.4
122653
122557.3
122481.3
122813.7
122864.6
122884.5
122892.6
122883.4
122868.1
122851.3
122846.7
122840.3
122827
122793.7
122745.4
122682
122607.3
122525.7
122436
122758.7
122811
122837.4
122839.7
122826.6
122801.7
122779.6
122752.6
122752.9
122758.8
122767.4
122753.9
122725.1
122679.5
122622.7
122559.9
122483.7
122408.7
122695.8
122747.9
122778.3
122782.5
122768
122734.3
122675.7
122644.5
122635.7
122631
122651.5
122682.7
122697.8
122704.9
122673.7
122634.6
122585.1
122527.1
122463.8
122403.7
122634.2
122685.1
122722.9
122736.6
122731
122688.6
122629.6
122563.9
122494
122467.1
122490.7
122542.8
122596.2
122635.8
122667.9
122676.2
122665.2
122619.1
122574.9
122515.2
122449.3
122389.2
122624.4
122668.1
122697.2
122703.7
122683.1
122638.6
122566.1
122479
122392.1
122347.9
122375.6
122457.6
122541.5
122606.3
122651.1
122676.9
122689.7
122681.4
122637.9
122581.7
122508.9
122429.8
122552.1
122603.5
122648.9
122676.3
122677.3
122648.3
122598.6
122532.8
122456.3
122380.6
122330.2
122355.5
122447.2
122543
122621.2
122678.5
122716.6
122740.2
122745.8
122719.6
122669.7
122584.7
122478.9
122390.9
122540.8
122585.9
122628.4
122645.9
122632.3
122605.3
122559.6
122514.2
122467.9
122426.8
122409.1
122441.8
122513
122602.7
122682.9
122744.5
122788.5
122819.1
122831.9
122812.1
122729
122616
122475.9
122333.9
122513.8
122558.9
122590.3
122590.6
122565
122527.9
122503.1
122485.1
122473.3
122471.3
122488.5
122533.6
122601.7
122674.4
122739
122792.4
122827.4
122845.7
122839.8
122798.4
122687.7
122558.5
122389.1
122216.3
122480.5
122519.7
122534.7
122512.2
122482.1
122442.2
122433.6
122438.9
122452.7
122475.5
122509.6
122557.1
122614.8
122674.8
122729.4
122771
122793.5
122791.1
122760.8
122712.3
122601.3
122476.5
122324.1
122172.4
122443.6
122470.5
122472.4
122436.6
122373.3
122347.3
122355.7
122383.1
122419.2
122460
122502.8
122548.8
122595.1
122639.4
122677
122704.9
122717.9
122711.3
122682.2
122630.3
122547.3
122437.5
122322
122208.4
122413.4
122426.9
122411.3
122365.6
122289.3
122256
122278.2
122326.6
122384.1
122441.3
122493.1
122540.2
122581.4
122616.7
122643.5
122661.5
122666.2
122655.6
122628.7
122586.8
122529.7
122445.8
122370
122303.4
122398.9
122397.6
122366.2
122314.6
122241.4
122203.6
122226
122285.8
122360.3
122430.3
122489.8
122538.7
122576.8
122605.8
122626.1
122637.5
122637.7
122626.6
122605.5
122579
122539.1
122481.2
122436.3
122409.1
122403.3
122388.6
122349.5
122304.6
122242.1
122205.5
122222.4
122284
122361.9
122436.7
122498.7
122546.7
122582
122607.1
122623.1
122630
122627.9
122618.4
122603.6
122585.9
122550.4
122519.7
122498
122495.1
122421.6
122397.6
122360.5
122316.7
122275.8
122259.9
122266.2
122319.4
122393.8
122465
122522.7
122566.1
122596.8
122617.4
122629.2
122633.2
122630
122623.3
122619.7
122600.2
122576.3
122556.4
122548.1
122555.8
122445.3
122419.9
122389.2
122356.5
122333.2
122321.7
122333.9
122377.7
122441.7
122506.6
122557.9
122592.4
122615.8
122631.4
122639.8
122641.9
122639
122634.5
122631.8
122610.8
122599.5
122591.1
122588.1
122600.2
122448.7
122425.2
122403
122387.4
122386
122408.1
122438.8
122492.9
122547.2
122592.4
122621.6
122636.9
122646.5
122652.2
122654.6
122652.6
122653.8
122641.9
122629.3
122619.3
122616.2
122614.2
122484.3
122462.5
122448
122438.1
122442.6
122462.9
122497.3
122543.2
122579.5
122617.9
122642.3
122654.8
122660.4
122664.1
122672.6
122668.6
122662.3
122651
122645.2
122638.9
122634.1
122627.5
122490
122487.7
122483.9
122488
122502.8
122531.8
122571.7
122606.3
122637
122651.4
122663.6
122673.8
122674.5
122673.9
122670.5
122667.1
122663.5
122658.8
122651.1
122636.5
122509.2
122520.6
122527.1
122538.7
122561.5
122587.6
122613.8
122640.1
122656.3
122668
122672
122673.2
122674.6
122675.7
122674
122673
122666
122645.3
122537.5
122555.9
122566.8
122586.1
122605.5
122626.5
122644.6
122656.3
122663.6
122669.3
122674.1
122675.3
122678.5
122677.5
122674.8
122655.9
122566.8
122580.4
122603.5
122620.7
122635.5
122649.1
122658.7
122663.3
122667.4
122670.8
122673.8
122676.4
122667.9
122663.7
122602.4
122624.5
122638.3
122647.7
122653
122653.1
122656
122659.5
122664
122662.3
122855.4
122856.6
122855.6
122853
122848.4
122841
122828.1
122849.4
122810.7
122824.8
122837.4
122855.7
122854.9
122845.6
122830.2
122808.5
122781.3
122746.4
122702.7
122670.5
122633.6
122612
122789.7
122831.7
122854.8
122871
122875.8
122869.6
122857
122835.8
122804.8
122764.8
122716.8
122665
122617.6
122554.6
122493
122465.8
122731
122763.3
122812.8
122847.1
122868.5
122895
122905.1
122901.7
122890.4
122869.9
122837.9
122793.5
122737.8
122673.7
122607
122519.5
122451.2
122384.6
122309.2
122248.7
122701.2
122742.1
122778.4
122815.7
122857.1
122884.5
122897.6
122894.3
122884.7
122870.2
122850.8
122823.7
122785.7
122735
122673.6
122607.8
122535.8
122460.7
122369.6
122298.3
122226.3
122171.6
122664.6
122699.1
122733
122769.5
122817.3
122851.7
122868.4
122875.1
122870.8
122855.5
122836
122817.3
122796.6
122770.1
122731
122677.3
122610.4
122540.8
122475.3
122406.9
122311.6
122245.5
122190.1
122147
122653.1
122681.7
122715.5
122762.9
122804.5
122830.8
122844.3
122840.3
122820.2
122791.6
122766.2
122750.8
122740.7
122730.8
122710.1
122674.5
122621.7
122559.4
122495.1
122436.3
122373.8
122284.1
122227.6
122186.2
122600.2
122631.7
122659.7
122701.6
122744.2
122777.4
122796.9
122791.7
122761.6
122715.5
122672.4
122645.9
122638.5
122648.7
122664.3
122669
122659.5
122628.6
122584
122529.3
122471
122418.5
122359.8
122273.7
122220.6
122177.8
122580.8
122592.5
122610.4
122639.1
122681.5
122719.6
122745.4
122747.1
122717.7
122661.5
122589
122517.7
122479.8
122491.7
122535.8
122582.8
122615.9
122633.4
122631.3
122611.2
122573.5
122524.8
122467.9
122409.3
122344.6
122254.3
122201
122181.9
122565.8
122569.8
122581.5
122616.2
122657.4
122695
122713.8
122703.3
122660.3
122590.3
122502.8
122411.7
122355.9
122370.3
122442
122521.8
122581.7
122620.4
122639.9
122643.4
122630.8
122594.2
122538.9
122467.4
122385.6
122291.3
122220.1
122193.9
122540.8
122545.8
122560.3
122594.8
122635.6
122673.2
122686.9
122665.5
122615.3
122547.6
122470.8
122394.2
122337.4
122346
122425.2
122518
122590.7
122644
122678.9
122699
122700.9
122676.7
122623.5
122541.5
122431.7
122337.4
122237.6
122202.4
122537.6
122523.4
122520.3
122536.5
122566.8
122611
122644.4
122641.6
122607.7
122563.5
122515.3
122468.1
122426.8
122405.1
122428.6
122490.8
122570.9
122648.4
122708.5
122752.1
122782.1
122789.2
122763
122690.5
122578.6
122433.9
122279.7
122170.7
122143.2
122168.8
122527.9
122506.9
122496.4
122510.6
122535.5
122572.6
122587.5
122563.6
122523.6
122493.5
122471.6
122457.8
122453.9
122467
122505.8
122567.8
122637.6
122700.4
122753
122789.4
122808
122799.5
122750.2
122652.4
122511.6
122339.5
122156.2
122038
122020.5
122072.1
122520.4
122492
122473.1
122480.5
122493.8
122515.6
122507.3
122465.9
122424.9
122410.7
122413.1
122426.4
122448.1
122479.5
122522.7
122575.7
122631.9
122684.8
122727.1
122750.9
122748.5
122714.1
122648.9
122544
122412.3
122264.2
122115
122015.9
122010.9
122073.4
122521.1
122481.5
122452.8
122449
122444.7
122448.3
122423
122362.2
122319.5
122319.9
122346.1
122384.4
122426.9
122470.7
122515.4
122559.7
122601.5
122637.4
122663.7
122675.1
122665.9
122631.2
122569.5
122478.5
122370.3
122261.3
122168.1
122110.7
122117.3
122172.5
122529.7
122479.1
122439.8
122422.7
122399.8
122384.4
122344.9
122275.1
122226.9
122232
122278.9
122341.2
122403.3
122459.2
122507.6
122548.6
122582.3
122607.7
122623.2
122625.5
122611.4
122578.7
122527.9
122460.8
122383.4
122312.8
122264.8
122240.9
122262.4
122316.3
122547.6
122486
122437
122407.4
122369
122338.1
122290
122224.5
122175
122178.8
122231.4
122310
122387.7
122453.8
122505.9
122545.2
122573.9
122592.6
122601.4
122599
122584.2
122557.4
122520.2
122472.9
122423.5
122384.4
122369.3
122368.1
122399.1
122454.1
122571.3
122500.1
122445
122406.4
122358.5
122319.4
122272.3
122217.9
122174.2
122175.1
122228.1
122308.4
122390.6
122461.1
122514.1
122551.5
122576.4
122590.5
122595
122590.2
122576.7
122556.4
122529.8
122498.1
122470.6
122453.2
122458.6
122469.6
122501.9
122554.6
122606.3
122522.9
122465
122419.3
122368.7
122327.5
122286
122243.3
122215.2
122219.2
122265
122338.2
122417.8
122484.4
122533
122565.7
122586.3
122596.7
122598.2
122592.1
122580.8
122566.9
122547.3
122528.1
122514.2
122511.2
122526.6
122545.8
122579.2
122630
122560.6
122496.3
122441.5
122401.4
122353.7
122319.7
122290.8
122276.5
122284.4
122324.3
122386.5
122456.3
122517.5
122559.9
122584.6
122599.6
122606.4
122605.9
122599.8
122590.7
122580.4
122566.4
122556.5
122552.5
122564.8
122574.4
122600.7
122632.7
122602.5
122530.7
122475.7
122434.6
122390.6
122362.4
122343.9
122337.9
122350.6
122383.9
122436.4
122494.2
122547.3
122585.3
122604.8
122612.9
122616.3
122615.4
122610.9
122605.1
122596.5
122587.5
122581.8
122583
122596.2
122607.5
122632.1
122666.9
122641.4
122569.3
122513.6
122470.4
122440.3
122409.5
122395
122393.5
122408
122437.3
122480.7
122526.1
122569
122601.4
122619
122624.9
122626.1
122627
122624.5
122620
122613.6
122609.2
122608.3
122617.7
122621.8
122638.3
122658.6
122693.7
122614
122559.1
122513.5
122481.3
122464
122444
122442.4
122454.6
122480
122516
122552.4
122586.3
122609.8
122625.8
122634.2
122636.3
122636.1
122635.1
122633.8
122631.7
122631.2
122638.2
122638.4
122644
122660.2
122677.2
122597.2
122555.1
122522.7
122502.3
122495.5
122486.2
122494.4
122515.8
122543.6
122573.3
122600.6
122618.8
122630.9
122637.8
122641.9
122643.7
122645.4
122646.9
122649.5
122657.4
122655.5
122656.6
122664.8
122670.5
122631.4
122591.7
122560
122539
122531
122532.7
122530.7
122547
122568.2
122592.3
122613.3
122627.2
122635.2
122640.5
122645.9
122650.6
122655.1
122659.8
122670.2
122672
122673.1
122678.6
122682.1
122682.1
122621.8
122597.8
122574
122562.8
122566
122568.5
122583.7
122592
122609.7
122626.2
122637.1
122642.9
122647
122651.4
122657.6
122669.3
122675.8
122680.9
122686.3
122690.6
122693.5
122689.1
122628.1
122602.1
122593.4
122590.1
122594.8
122608.6
122618.3
122632.1
122644.2
122652.3
122656.6
122660.4
122664.5
122670.4
122676
122684
122692.9
122699.4
122694.1
122698.3
122614
122617.2
122617
122620.2
122631.9
122644
122653.3
122660.6
122664
122668.7
122673.2
122679.9
122686.9
122696.3
122704
122698.3
122636.1
122634.8
122633.5
122647
122657.9
122666.4
122673.8
122677.6
122682.7
122687.4
122691.9
122695.7
122706
122714.9
122659.4
122668.1
122675.6
122682.9
122688.8
122695.3
122702.7
122707.6
122999.6
122994.1
123005.1
123019.1
123037.6
123095.9
122885.9
122883.7
122882.1
122890.6
122886.1
122885.4
122886.5
122885.7
122881.2
122873.5
122881
122862.6
122848
122846.6
122818.9
122825.9
122833.4
122835.4
122835.8
122839.5
122828.9
122817
122805.5
122791.2
122774.1
122755.7
122740.6
122709.9
122670.7
122627.4
122585.2
122546
122775.9
122790.8
122801.2
122811.1
122816.4
122819
122814
122788.8
122767.8
122745.5
122719.4
122690.5
122660.8
122631.6
122593
122547.8
122504.1
122454.6
122397.6
122371.7
122737.3
122758.3
122772.7
122793.4
122802.8
122801.9
122802.7
122795.5
122779.9
122757.3
122728.7
122693.6
122653.1
122608.9
122560
122510.1
122457.1
122415.2
122361.7
122299.5
122254.4
122220.5
122703
122726
122747.3
122769
122785.7
122793.3
122803
122810.4
122806.7
122792.6
122769.4
122738.1
122698.4
122650.7
122596.7
122537
122474.6
122409
122354.1
122303
122243.5
122194.6
122148.1
122118.1
122673.5
122693.8
122711.9
122727.6
122744.3
122767.8
122793.7
122813.1
122820.4
122816.4
122801.2
122776.6
122744.8
122705.4
122657.9
122602.7
122539.4
122469.9
122401.4
122334.9
122268.9
122211.9
122168.7
122131.5
122098.1
122072
122650.4
122664.1
122673.8
122687.2
122701
122728.6
122762.5
122793.6
122815.7
122823.7
122817.6
122799.2
122773
122743
122709
122668.6
122619.1
122558.5
122487.9
122416.7
122346
122279.6
122216.2
122169.3
122140.7
122120.5
122091
122075.7
122646.6
122644.4
122640.1
122643.9
122655.2
122678.9
122715.3
122755.3
122793.1
122817.9
122820.2
122800.3
122768
122734.7
122707.3
122684
122658.8
122625.2
122578.5
122518.2
122451
122381.2
122314
122254.3
122200.7
122164.8
122149.9
122123.3
122120.2
122120.7
122629.1
122619.4
122614.2
122620.3
122627.9
122657.2
122699.3
122746.8
122782.3
122793.8
122775.9
122735.5
122685.5
122643.5
122621.8
122616.8
122615.9
122607.2
122584.1
122544.6
122492.2
122431.7
122367.6
122308.1
122256
122210
122183.8
122163.5
122148.5
122149.4
122628.2
122609.9
122591.6
122586.6
122582.4
122598.2
122633.8
122683.6
122729.4
122749.1
122733.6
122686.1
122616.3
122543
122494.2
122488
122514.8
122548
122569.8
122575
122562.2
122532.3
122488.8
122434.3
122374.4
122315.4
122260.3
122210.5
122183.3
122177.9
122185.5
122216
122610.2
122585.6
122564.1
122549.4
122548.1
122569
122611.1
122662.7
122697.3
122701.6
122669.6
122605.7
122521.2
122428.7
122362.6
122361
122416.7
122487
122538.3
122569.1
122581
122575.1
122551.7
122509.4
122450.6
122379.6
122304.5
122237.1
122193.6
122192.1
122216.3
122263.4
122593.8
122562.5
122539.3
122517.9
122516.7
122540.1
122585
122634.3
122665.2
122658.7
122616.3
122551.3
122476.1
122398.7
122334.8
122326.2
122392
122478.6
122543.7
122590.6
122619.9
122632.7
122624.5
122590.9
122530.7
122447.5
122348.7
122263.8
122209.1
122205.4
122246
122316
122579.2
122541.5
122516
122487.3
122484.2
122507.8
122552
122599.8
122617.9
122592.7
122550.1
122502.2
122454.8
122412.1
122385.3
122399.5
122452.3
122522.8
122595.7
122651.9
122690.8
122714.2
122711.6
122674.2
122597.4
122484.7
122348.8
122224.2
122159.9
122167
122205.3
122301.4
122640.5
122578.2
122529.2
122485.2
122456.8
122450.3
122468.4
122506.3
122540.1
122534.4
122496.6
122465.4
122441.7
122426.3
122420.2
122428.9
122461.3
122516.9
122583.2
122643
122692.2
122725.1
122739
122723.9
122666.3
122563.9
122417.9
122246.5
122089.4
122021.8
122045.9
122121.6
122255.5
122328.5
122634.6
122573.4
122518.5
122464.7
122429.2
122414.6
122420.8
122444.8
122457.7
122427.6
122386.6
122368.7
122368.9
122381.4
122402.5
122431.8
122471.5
122520.3
122573.2
122623.8
122665.1
122687.5
122682.3
122643.2
122567.4
122454.4
122312.1
122158.4
122027
121978.6
122018.8
122118.3
122246.9
122343.1
122645.9
122576.9
122513.1
122450.3
122406
122380.2
122370.6
122375.1
122367.1
122321.5
122273.7
122265.9
122289.5
122328.8
122373.4
122418.5
122463.1
122506.3
122546.5
122580.8
122605.6
122615.2
122602.9
122563.1
122492.6
122393.2
122276.6
122162.4
122078.8
122056.9
122102.7
122200.7
122313.7
122402.2
122663.1
122586.1
122515.1
122444.5
122391.5
122354
122328.6
122313.5
122286.2
122233.9
122181.7
122172.4
122212.6
122276.7
122343.8
122404
122455
122497.1
122530.7
122555.4
122569.7
122570.4
122553.9
122517.3
122460.1
122386.4
122306.1
122234.1
122189.3
122190
122238.2
122321.4
122414.4
122491.3
122686.1
122601.4
122525.9
122449.3
122388.7
122341.5
122303.2
122273.1
122235.1
122182.3
122131.7
122120.8
122163.5
122239.9
122324.1
122396.6
122453.4
122495.5
122525.1
122543.8
122551.9
122548.5
122532.2
122502.7
122461.7
122412.5
122363
122324.4
122308.5
122324.2
122371.4
122441.4
122515
122582.4
122718.1
122624.2
122545.9
122466
122399.1
122344.5
122298.2
122260.2
122220.1
122173.1
122132.9
122124
122161.6
122239.2
122326.5
122403.5
122462
122503
122529.6
122544.3
122548.6
122543.2
122528.6
122506.4
122478.8
122448.4
122421.8
122405.9
122407.8
122432.3
122478.4
122539.4
122602.6
122657
122664.3
122573.6
122497.7
122420.6
122361.5
122312.3
122271.8
122234.3
122197.3
122171.4
122170.7
122205
122271.6
122354.4
122427.9
122481.5
122517.8
122540.5
122551.8
122553.6
122547.4
122534.7
122518.2
122499.8
122482.2
122470.2
122468.5
122480.4
122510.7
122563.6
122610.6
122667.4
122698.7
122612
122527.5
122448.7
122387.8
122339.8
122299.8
122267.6
122241.3
122227.6
122235.3
122268.6
122325
122393.8
122460.5
122509
122537.1
122554
122562.1
122562.3
122556.1
122545.3
122532.5
122520.1
122511
122508.1
122515.3
122531
122563.1
122610.9
122658.6
122705.2
122737.5
122643.7
122562.7
122485.7
122423.6
122376.4
122338.6
122311.1
122293
122287.2
122299.2
122331
122379.4
122435.8
122489.7
122532.3
122557.1
122567.6
122572.2
122571.8
122566.8
122558.6
122548.6
122540
122535.5
122537.5
122548.2
122568.2
122601.2
122645.2
122688.5
122734.2
122779.1
122682.7
122600.5
122536.5
122468.5
122417.4
122381.6
122356.7
122342.9
122340.9
122354.1
122383.2
122425.2
122471.5
122514.6
122547.6
122569
122579.1
122581.2
122580.8
122578.1
122572.8
122565.9
122560.5
122559.9
122565.8
122577.8
122601.8
122638.8
122671.2
122711
122758.9
122729
122649
122574.7
122523.5
122462.1
122424
122401.3
122388.4
122387.3
122399.4
122424.9
122460.4
122499
122533.9
122559.2
122575.3
122584.8
122589.2
122589.4
122588.7
122586.8
122583.6
122582.4
122585.9
122592.8
122607.6
122639
122660.8
122692.4
122727.1
122765.4
122690.9
122620.1
122561.5
122507
122467.4
122442.6
122430.9
122428.9
122438.3
122459.6
122489.2
122521.1
122549.3
122569.2
122581.2
122588.5
122594.3
122597.8
122599.1
122600.5
122602
122606.3
122612.1
122621.3
122637.6
122661.7
122682.7
122711.5
122744.3
122739.4
122668.5
122602.6
122559.6
122514.6
122484.9
122470.9
122468.5
122474.1
122490.6
122514.3
122540.8
122563.7
122579.4
122588.6
122594.5
122599.9
122605.5
122610.5
122616.1
122622.9
122630.5
122639.8
122653.5
122674.3
122686.5
122705.5
122728
122711.7
122651.6
122598.4
122566.9
122530.3
122512.3
122506.6
122509.2
122521.8
122538.8
122560.1
122578.9
122591.8
122599.4
122604.6
122609.9
122616.4
122624.7
122635.2
122645.2
122656.2
122669.1
122687.8
122699.1
122711.3
122721.1
122692.3
122646.2
122606.3
122578.1
122564.2
122546.1
122543.8
122552.8
122565.9
122582.4
122597.8
122609.1
122616.3
122621.3
122626.7
122633.7
122642.2
122653.8
122668.5
122688.9
122700.9
122711.4
122723.5
122727.2
122683
122646.7
122616.3
122598.2
122590.4
122579.8
122582.6
122593.7
122606
122618.2
122628.1
122634.7
122640.4
122646.9
122655.1
122664.4
122677.1
122696.1
122708.7
122724.3
122737.9
122738.9
122680.6
122655.3
122630.4
122621.6
122616.2
122617.9
122627.9
122632.5
122642.1
122651
122657.5
122663.5
122671.1
122683.6
122694.6
122706.4
122719.8
122736.6
122751.5
122755.4
122690.5
122662.3
122647.6
122640.1
122642.5
122652.4
122660.7
122669.5
122678
122685.1
122691.7
122699.5
122709.5
122722.7
122734.4
122749.6
122763.3
122775.4
122679.7
122665.5
122665.3
122668.4
122679.8
122687.2
122696
122706.1
122714.1
122722.8
122737.2
122749.9
122766.3
122780.7
122702.6
122705.2
122714.8
122729.1
122739.1
122749.4
123038.6
123037.4
123048.6
123057.8
123078.1
123097.5
123111.8
123126.8
123142
123167.3
122940.6
122925.9
122929.4
122923.4
122920.4
122916.7
122917.3
122922.6
122929.1
122935
122941.9
122950.5
122941.2
122935.6
122896.8
122880.7
122864.1
122850.6
122842.4
122842.1
122834.6
122825.3
122821.1
122799.1
122791.5
122786.9
122784.9
122790.6
122775.8
122765.4
122738.5
122697.1
122662
122648.4
122804.5
122797.4
122800.7
122791
122785.3
122768.1
122757.2
122746.8
122733.3
122713.1
122696.4
122681.3
122667.9
122654.7
122627.5
122601.5
122564.9
122534.5
122487.9
122446.3
122373.6
122325.2
122763.9
122757.5
122758.7
122756.5
122742.8
122735.6
122726.2
122715
122699.8
122679.9
122654.8
122629.4
122603.2
122577.7
122552.4
122518.5
122481.5
122440.8
122402.4
122356.1
122316.6
122262.9
122214.2
122191.2
122724.8
122724.6
122725.1
122726.3
122717.1
122715.4
122711.3
122706
122696.2
122680.2
122658.4
122629.7
122597.3
122561.3
122523.6
122484.9
122441.4
122397.5
122352.2
122308.6
122258.2
122215.6
122178.3
122136.8
122114.3
122097.5
122698.2
122696.8
122697.5
122698.4
122693.8
122696.3
122699.9
122703.7
122705.5
122701.1
122687.8
122665.7
122634.6
122597.5
122554.9
122508.3
122458.7
122404.8
122350.6
122295.7
122244.1
122191.6
122145.6
122110.9
122089
122068.6
122057.8
122049.6
122685.6
122678.5
122673.9
122672.4
122665.8
122667.7
122677.7
122691.2
122707.3
122718.5
122719.5
122708.9
122686.8
122654.8
122615.8
122570.5
122519.9
122464.4
122403.3
122340.5
122277.4
122216.4
122158.4
122110.1
122073.8
122053.4
122050
122045.4
122043.6
122046.2
122660.2
122653.8
122648.6
122637.4
122635.9
122644.5
122663.8
122689.3
122715.9
122734.6
122739.9
122729.6
122705.7
122672.1
122633.3
122590.3
122542.3
122488.2
122426
122359.1
122290.9
122224.3
122161.8
122108.9
122069.5
122048.6
122047.5
122056.8
122065.6
122069.7
122655.1
122647.2
122632.4
122613
122604.4
122606.4
122622.5
122651.7
122688.6
122725.7
122752.4
122757.9
122739.6
122705.4
122665
122626.3
122590.1
122553
122510
122456.9
122395.1
122328.4
122261
122196.1
122140.1
122097
122072.5
122069.4
122078.8
122102.2
122123.9
122136
122670.7
122648.7
122623
122598.9
122581.9
122573.6
122577.2
122598.7
122637.4
122686.9
122732.7
122756.2
122749.6
122715.2
122662.7
122610.7
122573.7
122551.6
122534.8
122513.1
122479.7
122433.7
122377.6
122316.1
122252.9
122195.1
122147.7
122116
122104.2
122110.8
122130.8
122164.4
122195.9
122220.8
122652.3
122625.5
122601.9
122569
122549
122538
122544.5
122572.2
122620.7
122677.5
122716.1
122718.6
122683.1
122619
122545.8
122487.7
122462.5
122469.6
122486.2
122494.2
122487.7
122465.4
122428.1
122379.5
122322.8
122263.8
122208.6
122164.3
122137.3
122133.9
122154.2
122191.9
122234
122267.5
122637.9
122604.3
122569.3
122536.9
122512.8
122501.1
122510
122544.3
122600.2
122651.5
122671.4
122652.6
122598.6
122520.4
122428.7
122354
122336.3
122374.2
122430.9
122470.6
122491.3
122493.8
122478.7
122446.6
122398.4
122337.8
122271.1
122208.4
122163.5
122148.7
122169.3
122214.4
122277.1
122329.9
122682.9
122639.1
122591.6
122544.9
122506.8
122477.1
122463.7
122474
122512
122568.3
122613.4
122623.3
122592.4
122534.3
122463.1
122386.3
122315.5
122291.2
122343.3
122420.2
122475.4
122513.7
122534.4
122537.5
122519
122476.4
122411.3
122330.8
122248.2
122187
122165.2
122188.5
122244.7
122324.6
122393.4
122472.9
122678
122631.3
122577.5
122522.2
122478.2
122441.9
122424.8
122434
122471.1
122524.5
122561.1
122551.6
122514.2
122470.1
122424.3
122380.7
122348.9
122355.1
122397.1
122456.9
122523.4
122573.4
122604.3
122617.2
122603.6
122556.5
122475
122367.3
122253.1
122167
122140.8
122171.4
122235.6
122326.5
122390.2
122449.6
122676.7
122619.9
122567.1
122503.4
122449.6
122407.5
122385
122388
122417.8
122461.1
122472.9
122445.6
122416.5
122394.1
122379.1
122371.7
122376.4
122403
122451.7
122513.5
122568.9
122612.5
122639.3
122645.8
122621.7
122555
122446.7
122304.6
122153.6
122043.6
122026.7
122083.9
122176.6
122293.1
122361.1
122430.2
122686.4
122618.9
122551.3
122487.2
122426.4
122377.1
122346
122337.5
122352.3
122375.9
122360.6
122325.9
122307
122307.6
122321
122342.3
122370.4
122407.2
122452.2
122501.8
122549.4
122588.1
122606.8
122596
122549.7
122464.4
122342.5
122196.6
122052.9
121959.8
121963.6
122045.9
122164.8
122289.5
122383.5
122455
122705.3
122626
122549.6
122479.4
122411.4
122353.7
122312.3
122289.3
122284.4
122282.4
122253.1
122207.4
122193.5
122215.9
122257.4
122304.7
122351.8
122396.8
122439.3
122477.9
122510.2
122532.5
122538.4
122520.8
122473.7
122394.3
122286.8
122165.6
122056.1
121998.1
122020.7
122108.8
122226.9
122343.3
122434.7
122505.9
122725.7
122638.1
122556
122480.7
122406.1
122340.6
122289.1
122252.6
122229.5
122206.6
122166.3
122114
122096.6
122130.2
122196.3
122268.2
122333
122387.4
122431
122464.7
122488.7
122501.4
122499.5
122479.1
122437.1
122373.6
122294.7
122213.5
122149.5
122124.5
122153.4
122231.2
122331.8
122428.3
122507.5
122572.6
122746.8
122655.4
122571.2
122491.8
122412
122340
122280.5
122233.7
122197.7
122162.2
122116.1
122068
122047.6
122081.2
122155.4
122244.1
122322.5
122384.5
122430
122461.3
122480.4
122488
122483.4
122465.1
122432.5
122388.1
122338.3
122292.4
122263
122262.9
122298.5
122363.9
122443
122518.2
122583.7
122640.9
122773.5
122677.6
122599.1
122512.4
122429
122352.4
122287.6
122234.7
122191.8
122152.5
122109.6
122071.3
122056.2
122082.9
122156
122245.6
122327.3
122391.8
122437.3
122466.5
122482.5
122487.3
122481.9
122466.8
122443
122414.6
122386.9
122365.4
122358.5
122373
122412.1
122470.5
122536.8
122605.3
122650.6
122699.6
122804.6
122716.1
122625
122535.5
122453
122374.9
122308
122253
122208.2
122170.5
122136.1
122110.1
122105.2
122131.6
122191.7
122273
122351.3
122410.5
122451
122476.5
122489.8
122492.9
122487.4
122475.1
122458.1
122440.1
122425.9
122419.4
122425.1
122446.6
122486.3
122539.7
122596.1
122655.6
122704.9
122743.2
122838.8
122746.8
122657.3
122565.2
122482.1
122405.4
122338.5
122284.1
122240.7
122206.6
122181.2
122167.2
122171.5
122198.6
122248.9
122314.9
122382.5
122435.9
122469.6
122488.9
122498.8
122500.8
122495.9
122485.8
122473.3
122462.1
122455.6
122457.8
122470.7
122496.1
122535.3
122584
122636.8
122693.7
122738.8
122772.1
122790
122691.4
122598.7
122517.6
122443.1
122376.5
122322.6
122281.5
122251.6
122232.5
122226.4
122236.2
122263.1
122306.2
122359.5
122413
122457.5
122486.7
122502
122508.3
122509.6
122505.9
122498.1
122488.9
122481.8
122479.5
122486.2
122502.8
122531.2
122570.4
122615.5
122664.1
122716.6
122760.9
122822.6
122721.5
122643.4
122558.9
122486.3
122420.1
122365.3
122325.1
122298.1
122282.2
122278.7
122290.3
122316.2
122353.9
122397.8
122440.3
122474.5
122498.2
122511.9
122517.9
122518.9
122516.9
122511.9
122505.9
122502
122503
122512.4
122531.4
122561.4
122599.6
122641.3
122690.9
122731.1
122775.6
122863.9
122766.8
122678.9
122600.1
122527.1
122465
122410.2
122369.1
122342.1
122327.1
122324.1
122335.1
122358.6
122391.5
122428.4
122463
122489.7
122507.6
122518.9
122525.8
122528.9
122528.9
122527.1
122524.7
122524.4
122529
122540.8
122561.5
122591.5
122624.9
122664.1
122708.1
122751.8
122794.4
122818.6
122724.2
122652.2
122573.9
122509.4
122456.3
122414
122384.9
122369.5
122366
122374.4
122394.7
122422.8
122454
122482.8
122504.5
122518.4
122527.1
122533.7
122539
122542.4
122544
122545.8
122550
122558.9
122573.3
122594.6
122621.7
122653.9
122693.9
122728.2
122771.7
122772.7
122689.9
122627
122558.2
122505.4
122461.7
122429.8
122412.1
122406.8
122411.9
122427.8
122451.4
122477.9
122502.2
122520.4
122531.9
122539.1
122545.1
122551.1
122557.5
122563.8
122570.4
122579.6
122592.7
122610.3
122632.7
122657.9
122690.4
122715.2
122741.5
122817
122737.6
122663.3
122612.9
122554
122510.7
122477.5
122457.1
122448.3
122450.1
122461.3
122480.2
122502.5
122523.1
122538.7
122548.8
122555.7
122561.8
122568.5
122576.9
122587.4
122599
122612.7
122629.1
122648.8
122671.6
122700.2
122719.2
122743.9
122769.1
122790.1
122717.1
122650.7
122608.9
122560
122526.1
122505
122492.7
122490.4
122497.6
122511.6
122529.5
122546.8
122560.5
122570
122577.4
122584.7
122592.8
122602.7
122615.2
122630.1
122647.2
122666.1
122686.6
122713.4
122730.1
122750.8
122767.1
122763
122701
122645.6
122611.4
122572.6
122548.4
122536.4
122531.8
122535.6
122546
122559.5
122573.6
122585.8
122595.7
122604.6
122613.3
122622.4
122633.4
122646.8
122662.7
122680.2
122701
122727.1
122742.8
122764.7
122775.5
122745
122693.3
122645.9
122621.9
122591.8
122577.9
122572.1
122574.1
122582.7
122593.1
122604.9
122616.4
122626.5
122636
122645.6
122655.5
122667.4
122681.1
122697.5
122715.9
122741.4
122758.3
122779.9
122794.6
122736.9
122684.9
122659.9
122634.7
122621.4
122609.3
122609.8
122616.7
122627
122637.4
122648.2
122658.6
122668.7
122679.4
122689.8
122701.9
122716.2
122737.5
122755.6
122776
122793.3
122813.7
122695.3
122671.1