/*--------------------------------*- C++ -*----------------------------------*\
  =========                 |
  \\      /  F ield         | OpenFOAM: The Open Source CFD Toolbox
   \\    /   O peration     | Website:  https://openfoam.org
    \\  /    A nd           | Version:  6
     \\/     M anipulation  |
\*---------------------------------------------------------------------------*/
FoamFile
{
    version     2.0;
    format      ascii;
    class       volScalarField;
    location    "50";
    object      p;
}
// * * * * * * * * * * * * * * * * * * * * * * * * * * * * * * * * * * * * * //

dimensions      [1 -1 -2 0 0 0 0];

internalField   nonuniform List<scalar> 
140018
(
308043.7
307864.8
307867.7
308063.2
308185.6
308090
307979.9
307845.8
307868.1
308037.4
308163.5
308242.8
308059.1
308074.3
308035.4
307962.1
308006.8
308064.2
308118.1
308147.1
308131.6
308183.3
308158.3
308072.7
308064.2
307953.7
307965.3
308072.7
308154.7
308242.9
308351.8
308437.7
308458.5
308407.8
308291.8
308123.1
308047.8
308098.7
308112
308010.7
308170.6
308342.4
308470.3
308572.7
308690.7
308793.1
308817.7
308754.8
308604.8
308390.4
308182.8
308236.5
308165.6
308104.3
308180.2
308420.1
308649
308823.6
308957.6
309071.7
309153.9
309176.4
309109.1
308948.5
308709.1
308448.6
308341.8
308357.8
308041.7
308022.7
308301.7
308617.3
308898.3
309118.2
309289.4
309418.8
309487.9
309479
309392.2
309216.3
308948.4
308625.3
308313.4
308272.2
307813.7
307847.5
308006.1
308361.5
308727.4
309038.9
309289.4
309484.2
309614.8
309672.9
309650.7
309540.9
309346.2
309059
308688.3
308297.2
308066
307906.7
307570.9
307616.6
307948.1
308357.6
308756.9
309088.8
309363.4
309563.4
309687
309731.4
309697
309569
309358.3
309064.6
308679.5
308250.7
307852.8
307686
307495.7
307531.8
307861.4
308286.4
308706.1
309058.1
309346.9
309554.3
309677.3
309715.9
309673
309534.7
309317
309016.5
308630.3
308205.3
307815.5
307670.7
307610.9
307604.9
307765.8
308163.8
308588.2
308959
309252.4
309467.6
309598
309633.7
309577.1
309435.9
309218.8
308915.6
308543.9
308162
307941.8
307855.6
307682.9
307697.9
308029.2
308428.9
308803.8
309100.9
309312.2
309438.9
309472.1
309416
309280.3
309061.3
308763.7
308422.2
308106.1
308069.1
307770
307755.8
307901.2
308246.6
308601.7
308894.3
309101.2
309219.4
309249.8
309196.1
309058.6
308839.3
308556.2
308263
308132.1
308145.5
307774
307767.3
308047.7
308365.7
308634.1
308825.6
308929.3
308955.5
308904.5
308770.8
308565.4
308310.1
308074.3
308111.7
307753.2
307740.1
307875.3
308128.2
308341.7
308498.7
308579.4
308598.5
308556.7
308448.7
308289.8
308089.3
307992.1
308033
307836.7
307963.9
308045.9
308071.6
308165.4
308201.6
308214.1
308207.6
308155.5
308177.4
308137.5
308044.1
308085.6
308070.5
307988.9
307863
307874.5
308026.4
308137.1
308193.2
307924.2
307774
307783.8
307961
304423.1
304509.6
304719.1
304864.7
304926.5
304900.9
304786.2
304584.1
304315.5
304179.4
304391.7
304605.8
304762.9
304886.6
305062.4
305171
305210.8
305195.3
305118.7
304959.4
304719.2
304519.3
304298
304037.4
304587.3
304672.1
304907.6
305182.9
305373.1
305527.7
305557.2
305527.2
305521.7
305536.9
305462.1
305246.6
304983.8
304641.6
304343.1
304218
304617.9
304756.7
305024.3
305336.8
305610
305717.9
305678.1
305590.3
305362.2
305368.5
305607.3
305658
305648.7
305470.5
305126.5
304753.3
304436.9
304275.6
304474.9
304699.8
305026.1
305402.1
305633.7
305701
305677.1
305420.6
305202
304790.9
304812
305250.2
305476.7
305711
305646.3
305505.8
305210.5
304779.4
304417.4
304182.7
304188.8
304500.1
304917.7
305360.9
305556.5
305591
305420.3
305227.6
304791.7
304700.3
304680.6
304733
304831.3
304938.5
305338.5
305473.4
305573.3
305450.1
305201.6
304708.6
304260.1
303937.9
304365
304702.5
305203.5
305575.4
305587.9
305225.3
304845.2
304768.3
304717.4
304719.1
304774.7
304858.3
304918.2
304941.4
304951.2
304965.1
305283.8
305591
305510.6
305084.6
304534.2
304157.7
304115.8
304471.4
304953.6
305471.4
305653.8
305447
304883.9
304807.2
304840.1
304888
304937.2
305019.9
305114.5
305158.3
305140.4
305073.3
304999.5
305030.9
305545.6
305693.4
305458.5
304875.4
304325.4
303927.5
304177.4
304574
305136.7
305579.3
305649
305283.6
304863.2
304906.9
305031.4
305152.9
305255.7
305353.3
305427
305456.4
305418.3
305316.6
305186.5
305123
305504
305812.5
305639.2
305092.1
304424.5
303925.7
304364.7
304730.2
305272.7
305512.6
305360.6
304844.3
304847.6
305009
305208.1
305387.6
305535.1
305649.7
305718.6
305723.2
305658.2
305527.9
305346.7
305178.6
305135.6
305562.9
305565.8
305189.3
304506.1
304011.4
304490.9
304811.5
305264.5
305375.2
305071
304695.4
304824.1
305063.6
305310.6
305525.5
305696.5
305815.3
305873.1
305861.5
305777.2
305621.7
305403.4
305157.1
304980.8
305261.3
305416.6
305154.7
304563.3
304130.1
304535.5
304816.1
305179.7
305073.6
304559.5
304559.4
304773.1
305062.2
305340.8
305579.2
305760.6
305876.2
305922
305894.9
305790.8
305615.8
305378.7
305101
304857.3
304772.5
305136.1
305094.4
304618.5
304255.5
304506.2
304774.9
305121.4
305003.5
304474
304467.9
304695.9
305006.1
305305.5
305559.5
305749.2
305865.4
305905.7
305869.5
305754.8
305570.4
305325.7
305045.3
304804.8
304731.2
305123
305110.6
304676.5
304360.7
304411.6
304693.6
305097.2
305176.1
304826.7
304452.8
304614
304910.1
305216.7
305477.5
305672.3
305790.9
305828.1
305785.2
305667.1
305483.1
305245
304993.4
304828.4
305133.3
305364.9
305176.6
304699.3
304395
304256.1
304562.7
305029.6
305221.4
305030.9
304512.8
304560.8
304803.7
305093.4
305349.9
305540.6
305656
305690.7
305647.1
305532.7
305355.7
305138.6
304944.4
304896
305353.6
305442.7
305174.3
304646.9
304328.4
304058
304386.9
304867.6
305246.3
305283.7
304927.7
304561.6
304707.6
304955.8
305190.6
305367
305471.7
305502.4
305461.7
305354.7
305193.9
305015.9
304915
305281.8
305597
305490.2
305046.2
304519.5
304178.7
304007.6
304288.5
304693.9
305149.8
305303.2
305112.8
304613.5
304649.9
304826.8
305016
305162.8
305246.8
305270.9
305237.8
305150.6
305028.1
304912.3
304914.6
305421.7
305575.5
305381.9
304883.6
304444.8
304152.8
304187.7
304459.8
304908.4
305254.4
305286.7
304992.2
304718
304784.5
304873.6
304959.2
305008.3
305024
305014.1
304979.6
304947.6
304933.4
305239.1
305542.5
305492.8
305115.5
304642.7
304347.8
304036.2
304277.9
304641.1
305057.9
305265.4
305363
305287.3
305207.1
304875.1
304844.6
304820.3
304832.5
304887
304959.9
305337.2
305459.7
305563
305472.3
305261.7
304825
304445
304178.4
304269.2
304436.9
304729.7
305108.1
305369
305498.2
305571.5
305379.9
305198.3
304802.9
304815
305235.1
305448.1
305674.5
305636.8
305531.6
305281.1
304901.6
304596
304413
304369.6
304471
304718.6
305039.6
305348.3
305507.2
305513.5
305475.2
305261.4
305273
305508.1
305572.7
305592.7
305461.2
305173.7
304862.7
304613.9
304503.6
304316.1
304367.7
304595.1
304882.1
305101.1
305288.7
305350.2
305331.2
305338.4
305375.7
305337.4
305170.3
304974
304705.5
304486
304433.7
304117.8
304315.2
304462.4
304596.6
304791.3
304922.1
304975.8
304979.7
304939.3
304826.9
304650.7
304536.1
304401.4
304211.1
304156.6
304250.7
304477.7
304644.1
304723.8
304722.7
304649.4
304495.7
304288.3
304216.4
300467.6
300478.9
300613.9
300693.7
300691
300604.9
300453.6
300459
300338.2
300574.3
300929.3
301034.2
301114.6
301238.5
301301
301280.9
301178.7
301012.5
300886.8
300765.1
300382.5
300139.2
300780.7
300867
301163.9
301430.1
301606.5
301786.1
301916.5
301974.3
301944.8
301828.7
301640.1
301404.9
301185.2
300869.5
300530.7
300455.7
300339
300816.1
301196
301435.5
301614.6
301811
301805.9
301952.7
302063
302108.9
302078.7
301971.4
301797
301584.6
301533
301275.4
301047.5
300772.6
300365.4
299858.8
300363.6
300715.2
301221.2
301555.7
301764.9
301759.6
301757
301538.3
301594.3
301639.6
301652.7
301627.6
301561
301454.2
301329.6
301478.5
301422.3
301379.9
301118.6
300746.5
300205.3
299841.5
300274.6
300673.5
301214.9
301607.5
301822.1
301690.6
301506.3
301564.4
301597.1
301590.8
301554.6
301523.9
301505.3
301495.2
301477
301416.7
301312.8
301191.2
301325.7
301420.7
301157.7
300736.4
300172
299763.8
300708.7
301127.1
301556.8
301825.2
301719.9
301511.1
301572.8
301613.9
301593.8
301518.7
301404.2
301316.1
301307.9
301374.7
301446.5
301459.4
301406.7
301298.3
301185
301360.2
301443.7
301131.6
300678.1
300247.6
300592.7
301018.9
301406.3
301711.5
301664.6
301479.3
301520.1
301547.8
301524.3
301423.9
301291.8
301159.9
301063.9
301075.4
301181.9
301294.7
301376
301400
301348.3
301260.4
301179.3
301342.2
301371
301022.6
300611.3
300174.8
300114.2
300631.1
301207
301557.3
301528.1
301406.9
301472.6
301466.6
301397.4
301295.8
301157.4
301006.4
300915.6
300893.2
300938.1
301021.7
301111
301210.1
301273.7
301298
301299
301255.8
301156.1
301253.5
301259.1
300847.8
300240.7
299720.2
300318.3
300886.1
301339.4
301502.3
301306.3
301433.1
301476.4
301386.4
301226.5
301081.9
300975.8
300886.5
300844.3
300868.3
300942.7
301016.3
301066.1
301103.3
301139.8
301216
301318.1
301358.1
301274.5
301109.1
301260.7
301037.1
300528.2
299950.6
300635
301116.6
301490.9
301466.2
301339
301459.8
301459.8
301309.5
301114.6
301012.1
300976.2
300962.3
300961.3
301005.6
301088.2
301149.9
301168.4
301158.1
301149.7
301201.2
301344.7
301447
301403.4
301231.2
301282
301241.3
300788.4
300294.8
300146.6
300707.3
301265.8
301453.8
301226.8
301355
301436.3
301367.6
301193.8
301052.2
301029.9
301073.6
301133.3
301192.5
301262
301325.9
301364.6
301362.3
301320.3
301269.8
301269.2
301366.1
301472.3
301458
301289.7
301052.6
301150.2
300877
300307.9
299774.2
300154.3
300778.4
301428.8
301578.3
301262.9
301329.4
301339.4
301206.8
301034
300989.4
301056.2
301172.3
301293.5
301401.5
301492
301554.9
301574.1
301541.7
301466.8
301367.9
301290.5
301286.8
301357.8
301358
301215.3
301009.8
301168.7
300927.9
300268.8
299694.7
300293.9
300900.2
301548.1
301670.2
301283.1
301258.2
301172.7
301006.6
300884
300921.1
301056.5
301224.9
301386
301520.3
301617.9
301670.7
301671.8
301619.4
301517.2
301377.8
301231.9
301136.1
301143.5
301158.3
301100.8
300998.9
301254.5
301052.5
300397
299839.4
300377.7
300965.6
301604.9
301704.8
301268
301180.6
301017
300815.7
300745.8
300839.6
301022.6
301228
301416.3
301565.9
301665.5
301709.1
301693.8
301620.3
301495.1
301331.4
301155.3
301017.5
300976.2
301021.8
301051
301035.9
301382.3
301232.7
300584.5
300021.5
300380.4
300960.1
301590.8
301678.8
301224.2
301118.1
300939.6
300727.6
300651.5
300751.6
300955.7
301184.7
301392.1
301553.1
301655.8
301695.7
301672.3
301588.4
301452.7
301280.5
301100.9
300966.6
300938
301009.4
301071.7
301096.5
301488.2
301369.5
300731.2
300162.7
300311.3
300886.9
301508.5
301597.6
301160.5
301082.4
300954.6
300761.4
300629.7
300686.1
300873.4
301107.2
301323.4
301490.7
301595.7
301634
301607.1
301520.9
301386.5
301223.3
301068.7
300983.8
301023.4
301100.5
301131.5
301143.9
301535
301424.2
300791.8
300215.1
300194.7
300764.7
301372
301473.8
301088
301076.9
301021.2
300854.2
300675.9
300663.5
300807.4
301019
301227.1
301390.8
301493.3
301530
301503.8
301422.3
301299.1
301159.8
301052.2
301040.8
301142.7
301220.2
301201.5
301158.8
301508.9
301386.8
300760.9
300174.5
300218.9
300703.4
301204.3
301334.2
301029.7
301072.3
301076.5
300962.7
300791.4
300698.7
300773.1
300941.3
301122.9
301268.6
301359.8
301392.6
301370.4
301300.6
301199.1
301097.8
301055.4
301134.1
301252.6
301300.6
301240.5
301155.2
301430.5
301279.5
300755.1
300237
300656.4
301062.1
301369.1
301274.1
301058
301106.2
301060.7
300914.5
300777.4
300785.5
300892
301026
301141.1
301212.1
301237.3
301223.6
301176.4
301112
301061.3
301082.5
301214
301327.8
301330.7
301243.9
301425.3
301494.8
301163.6
300722.4
300358.9
300845.7
301230.9
301321.3
301040.5
301100.9
301105
301019
300915.2
300875.9
300911.6
300971.1
301033.5
301075.5
301094.5
301098.9
301093.6
301091.4
301103.4
301169
301274.6
301342.6
301311.1
301224
301474.3
301358.7
300944.2
300417.4
300176.7
300611
301109.1
301387.8
301287.4
301097
301121.5
301112.9
301088
301072.8
301050.7
301014.5
301000.4
300994.8
301012
301055.4
301114
301196.9
301259.7
301298.7
301330.1
301330.9
301289.2
301460
301534.1
301230
300695
300225.4
300612.2
300948.8
301260.1
301492.8
301384.5
301147.4
301168.1
301213.2
301245
301226.1
301172
301097.9
301030
301046
301145.3
301254.8
301345.3
301398.9
301390.4
301354.5
301330.7
301553.8
301645.2
301386.7
301044.1
300668.1
300653.2
301001.6
301365.6
301567.5
301416.5
301171.7
301228.2
301294.8
301322.5
301303.8
301239
301181.4
301193.3
301275.9
301371.4
301420.9
301422.9
301378.9
301332.6
301575.1
301716.9
301494.7
301108.7
300724.3
300239.9
300567.5
301044.9
301382.3
301540.4
301376.5
301174.9
301242.7
301300.7
301331.8
301332.8
301330.1
301337.8
301359.5
301384.9
301382.2
301349.8
301302.6
301512.2
301679.6
301513.9
301160.3
300655.8
300291.4
300289.2
300575.8
301019.3
301307.1
301481.9
301450.4
301447.3
301241
301323.2
301397.1
301435.5
301440.7
301416.4
301363.7
301306.2
301533.8
301556
301592.5
301428.2
301134.3
300669.2
300353.6
300237.9
300654.7
300978.9
301183.7
301346.7
301529.7
301525.3
301689.3
301821.3
301888.8
301892.2
301834.4
301718.2
301575.1
301596.2
301433.8
301284.1
301085.6
300747.2
300306.2
300606.4
300654.3
300926.9
301181.3
301366.3
301565.3
301717.7
301795.3
301798.5
301731.8
301593.9
301415.4
301250.4
301008
300740.7
300691.8
300168.4
300385
300722
300820.9
300916.9
301062.4
301143
301148.1
301081.8
300951.2
300872.5
300789.7
300456.8
300244.1
300262.2
300284.1
300435.3
300530.1
300538.2
300460.5
300324.4
300315.5
296749.5
296664.5
296721.3
296739.2
296707.6
296835.4
296452.3
296710.1
297122.1
297421.8
297348.9
297330.7
297377.5
297379.3
297329.5
297331.7
297404
297102
296674.5
296404.8
296334.5
296842.2
297108.9
297338.2
297581.9
297749
297633.6
297676.2
297710.3
297697.8
297637.7
297561
297647.4
297455.6
297175
296902.9
296597.1
296058.7
296768.2
297059.9
297367.1
297598.2
297660.8
297811
297796.5
297535.9
297554.5
297571.1
297546.3
297480.7
297411.9
297618.8
297588.6
297393.6
297294
297021.2
296663.9
296361.9
297054.7
297297.8
297583.4
297832.3
297666.1
297463.8
297520
297576.3
297624.4
297672.8
297690.6
297656.8
297572.4
297459
297347.7
297233.8
297123.8
297281.3
297403.1
297111.7
296794.2
296539.3
297098.5
297339.8
297644.9
297772.9
297798.5
297509.3
297508.5
297534
297568.6
297622.7
297666.7
297676.2
297638.1
297552.7
297433.9
297307.5
297207.2
297122.9
297077.1
297320
297252.5
297097.3
296767.1
296520.9
296991.3
297307.4
297583.5
297579.4
297474.5
297515.6
297515.7
297526.7
297536.8
297540.8
297562.3
297574.3
297564.3
297526.9
297461.6
297373
297275
297197.7
297126.2
297067.3
297025.2
296949.2
297027.3
297011.9
296721.1
296398.8
296643.1
297203.5
297574.4
297541.2
297415.5
297482.5
297520.4
297515.9
297520.3
297538.5
297542.6
297529.7
297500.7
297467.9
297436.4
297403.8
297361
297297
297216.6
297134.5
297080.2
297047.8
296979.2
296892.2
297002.7
297029.9
296641
296081.6
296164.7
296912.5
297452.7
297651.8
297388.6
297435.4
297493.6
297508.9
297514.9
297539.5
297548.5
297520.8
297463
297392.2
297337
297316.2
297323.6
297331.5
297312.5
297260.6
297185.8
297115
297078.1
297041.5
296964.9
296905.5
297165.8
296945
296400.5
295653.1
296641.4
297186.2
297656.2
297635.4
297381
297420.2
297456.7
297481
297504.2
297511.4
297482.6
297411.2
297315.8
297224.6
297167.4
297164.3
297202.5
297246.4
297270.7
297262.5
297220.7
297163.5
297110.2
297071.8
297023.8
296967.7
297205.1
297213.2
296724.7
296174
296185.9
296884.9
297384.2
297453.5
297304.5
297328.4
297364
297412.5
297455.3
297454.9
297408.4
297328
297220.7
297108.3
297029.1
297004.4
297032.7
297087.4
297142.5
297188.4
297212.9
297215
297201.2
297165.2
297106.1
297046
296989.6
296932.6
297054.5
296976.3
296470.4
295792.5
296438.3
297094
297413.5
297217.2
297262.5
297292.9
297326.8
297394.7
297422.3
297380
297287.8
297181.1
297077.1
296978.5
296914.9
296916.7
296975.9
297045.6
297097
297133.9
297163.7
297198.8
297233.8
297235.5
297180.4
297089.1
297019.6
296943
296858.3
297047.2
296734.5
296104.9
296839.8
297311.4
297534.3
297243
297251.6
297268.9
297313.9
297376.6
297383.1
297310.6
297199.5
297107.2
297043.8
296995
296959.3
296971.9
297041.2
297110.4
297147.5
297164.8
297179.7
297216.9
297275
297305.1
297264.8
297162.5
297058.5
296978.6
296921.2
297200
297000.9
296568.9
297105.4
297448
297502.1
297277.9
297258.9
297247.1
297294.3
297338.6
297312.6
297216.2
297122.2
297079.1
297076.1
297090
297111.9
297155.8
297209.6
297254.6
297278.9
297276.6
297268
297282.4
297323.8
297351.5
297312.1
297194
297049.1
296960.6
296921.7
297140.1
297111.4
296833.5
296377.5
297033.5
297333.5
297239.2
297312.7
297294.1
297246.1
297256.7
297259.5
297190.8
297085.8
297037.4
297054.5
297111.9
297183
297253.7
297320.9
297377.1
297409.1
297406
297374.9
297329.6
297295.2
297287.3
297285.8
297237.4
297115.5
296968.3
296885.1
296844.6
296783.4
296926.4
296723.4
296084.4
296306.6
297024.9
297387.2
297261.8
297356.8
297326.1
297236.4
297195.3
297142.6
297037.7
296947.5
296945.1
297014.3
297119.5
297230.7
297329.7
297406.9
297455.3
297469.3
297447.3
297392.9
297314.2
297229.4
297164.2
297128.3
297085.5
297006.8
296919.7
296892.9
296876.2
296801.8
296985.1
296705.6
296027.3
296375.7
297080.9
297429.8
297286.3
297379
297332
297208.2
297123.5
297025
296896
296816.7
296845.9
296954.3
297096.1
297236.8
297354.5
297437.6
297479.8
297478.8
297436.4
297358.9
297257.3
297150.5
297064.3
297018.4
296998.2
296972.5
296952.7
296993.4
297005.5
296926.8
297113.4
296818
296134.8
296385.5
297083.5
297426.9
297278.1
297363.4
297305.6
297166.3
297062
296943.6
296807.1
296722.7
296751.3
296877.8
297043.9
297206.5
297338.8
297427.9
297468.5
297460.9
297408.9
297321.1
297211.4
297101.6
297020.3
296989.8
296997.5
297010
297032.9
297110.9
297142.5
297062.4
297231.4
296914.2
296218.1
296352.7
297046.2
297387.8
297241.9
297313.7
297252.4
297119.1
297023.9
296918.4
296787.6
296686.6
296693.3
296806.6
296976.4
297150.1
297291
297384
297424.8
297415.3
297361.7
297275.1
297172.9
297080.6
297028.9
297032.7
297059.1
297078.8
297110.5
297197.1
297235.1
297157
297301.9
296962.1
296253.2
296463.4
297084.7
297350.4
297216.9
297251.7
297187.2
297076
297011.1
296936.9
296822.2
296712.7
296687.3
296768.1
296920.2
297085.2
297223.4
297314.7
297355
297346.9
297298.3
297222.2
297139.2
297078.1
297067.5
297104
297138.7
297147.1
297161.8
297234.6
297275.2
297223.9
297341
297061.5
296402.5
297199.9
297485.6
297482.4
297208.2
297134.4
297051.3
297014.1
296972.3
296886.6
296785
296733.1
296774.3
296888.7
297029.6
297151
297231.4
297267.6
297263.3
297225.6
297168.2
297113.2
297090.7
297120.9
297173.5
297202
297194.6
297192
297242.5
297291.8
297544.4
297518.2
297201.2
296946.6
297365.7
297524.8
297172.5
297121.1
297068.5
297028.7
297009.6
296957.3
296874.5
296812
296820.2
296891.4
296990.9
297085.3
297149.2
297177.8
297179.1
297159
297128.8
297106.9
297119.1
297172.9
297226.3
297240.7
297224.6
297233
297256.8
297281.9
297603.1
297410.1
296956.8
296564.5
297151.5
297414.5
297154.4
297137.4
297100.5
297054.6
297043.3
297017.2
296964.3
296916
296906.3
296937
296987.7
297041.3
297082.9
297107.4
297118.8
297124.1
297129.5
297141.4
297173.1
297221.1
297257.3
297259
297244.8
297264.3
297276.4
297265.2
297493.2
297198.3
296564.3
296342.8
296957
297392.8
297407.6
297192
297148.1
297112.5
297086.4
297069.5
297047.3
297029.8
297026.6
297031.5
297037.4
297047
297058.6
297079.6
297110.9
297146.5
297186.5
297220.3
297246.2
297268.5
297281.8
297283.3
297290.7
297302.6
297319.8
297503.2
297463.2
296988.1
296319.7
296743.8
297216.9
297621.1
297543.6
297216.7
297188.9
297160.6
297125.5
297112.8
297120.8
297135.3
297139.6
297131.3
297114.3
297101.2
297117.3
297164.6
297220.5
297267.3
297297.4
297305.7
297305.7
297315.1
297340.1
297352.4
297357.2
297651.9
297700.6
297259.5
296741.8
296285
296961.7
297433
297570.2
297242.2
297226.4
297224.5
297189.6
297156.4
297166
297194.3
297215.4
297219.9
297207.7
297196.2
297208.1
297246.4
297292.1
297322.5
297332
297326.1
297326.9
297361.5
297389.8
297375.8
297368.8
297666.3
297493.2
296979.2
296261.6
296736.3
297209.5
297503
297416.7
297232.9
297243.6
297234
297196.5
297185
297211.6
297244.9
297274.9
297291.9
297300.7
297309.6
297321.8
297332.9
297334.9
297330.2
297325.2
297348.7
297391.1
297395.6
297368.3
297527.4
297585.3
297244.3
296720
297034.3
297269.4
297475.5
297425.8
297264.5
297264.5
297234.4
297228.5
297243
297267.4
297323.8
297376.4
297407.2
297414.4
297400.9
297372.2
297343.8
297345.1
297352.8
297370.5
297406.6
297401.4
297543.6
297572.7
297326
297039.7
297094.3
297265.5
297508.1
297584.4
297579.1
297266.1
297253.4
297280
297331.1
297415.1
297495.7
297543.8
297550.3
297517.5
297457.4
297397.6
297368.6
297362.1
297387.3
297704.9
297707
297610.8
297340.6
297125.8
297008.5
297188.9
297426.5
297639.9
297457.1
297243.7
297301.1
297375.5
297451.8
297534.5
297587.1
297593.6
297556.3
297492.7
297437.9
297383.8
297340.7
297561.6
297750.4
297534.6
297277.9
297061.3
296680.9
296925.4
297194.9
297412
297463.7
297609.2
297606.6
297377.1
297428.6
297476.1
297483.4
297452
297418.5
297667.1
297687.9
297551
297507.9
297302.5
297020.3
296751
296212.5
296673.3
296918.2
297146.5
297391.9
297555.8
297457.6
297527.1
297587.3
297596.4
297553
297499.7
297614.2
297468.3
297237.7
297024.6
296778.7
296292.4
296235.4
296490.1
296913
297196.7
297130.6
297127.9
297194.9
297207.4
297159.2
297176.1
297261
296991.9
296594.1
296344.2
296436.5
296366.7
296441.3
296458.4
296405.6
296485.7
292676.9
292941
293163.7
293258.1
293347.9
293373.7
293311.2
293230.6
293043.5
292808.4
292563.5
292949.7
293360.3
293532
293670.8
293773.8
293617.7
293642.7
293651.4
293630.8
293787.3
293697
293552.1
293363.4
292913.5
292504.4
293219.1
293239.5
293540.5
293652.5
293852
293939.2
293835.5
293473.3
293446
293442.2
293457.4
293797.9
293885
293783.9
293547
293387.8
293051.4
293008.8
292807.1
293388.8
293630.6
293590.5
293623.8
293463.1
293531.2
293544.3
293492.6
293439.5
293423
293408.4
293394.9
293412.1
293423.1
293375.7
293259.9
293369.9
293285.9
293280.7
292971
292328.4
293044.5
293435.8
293747.9
293654.4
293445
293425.1
293439.8
293485.6
293489.5
293457.4
293438.8
293426.4
293400.8
293363.1
293331.3
293310.1
293254.3
293156.1
293093.3
293059.4
293215.1
293255.6
292896.4
292472.8
293103.9
293574.9
293897.9
293783.1
293535.5
293494.9
293445.1
293426.1
293442.8
293457
293462.7
293465
293454.3
293419.2
293361.4
293292.8
293222.7
293148.7
293076.4
293045.9
293040.8
293036.5
293237.2
293314.1
292970.6
292482.9
292976.9
293546.7
293942.6
293829.1
293542.1
293518.1
293495.6
293449
293433.4
293437.4
293446.3
293456.9
293458.8
293442.7
293401.4
293336.1
293255.5
293170.3
293094.4
293030.8
292995.7
292992.7
292972.6
292964.2
293224.5
293321.8
292917.6
292337.8
292687.5
293355.8
293847.7
293803.3
293519.5
293466.6
293459
293456.8
293444.9
293441.3
293441.4
293439.3
293436.2
293423.8
293397.6
293354.2
293294.4
293222.1
293143.6
293072.8
293010.5
292963.5
292932.4
292898.9
292880
292915
293189.3
293229.3
292732
292060.3
293253.6
293644.8
293707.1
293487.3
293436.1
293418.9
293430
293441.4
293443.1
293445.8
293447.5
293437.8
293416
293383.2
293345.4
293304.9
293260.7
293209.3
293147
293079.9
293014.9
292963.3
292924.3
292884.5
292852.7
292857.8
292907.3
293126.6
293069.3
292675
293019.5
293483.1
293532.7
293433.4
293428.9
293390.3
293390.9
293411.3
293428.2
293442
293454.9
293452.5
293424
293375.7
293319.5
293270.8
293237.4
293215.3
293192.1
293155.4
293104.3
293044.9
292989.8
292946.8
292909.4
292874
292865.3
292903.9
292910.7
293015.9
292971.9
292507.6
292303.2
293043.4
293423.2
293302.5
293363.8
293372.5
293347
293355.1
293380.2
293409.3
293435.3
293442.6
293420
293364.8
293288.2
293213.5
293162.3
293142.4
293144.1
293148.6
293141.2
293116.3
293075.9
293029.5
292984.7
292945.4
292910.6
292892.4
292911.3
292903
292846.3
292977.2
292601.8
291860.3
292676.1
293317.8
293436.1
293260.3
293285.9
293288
293288.7
293306.8
293343.6
293383.9
293399.4
293376.2
293316.1
293228.5
293134.1
293059.8
293026.1
293034.9
293063.2
293089.8
293106
293107.1
293093.8
293069.9
293034.8
292990.2
292945
292910
292890.8
292877.9
292855.5
293039.2
292945.2
292310.3
293064.2
293412.4
293265.2
293253.3
293237.3
293235.7
293241.7
293265.9
293313.2
293345.8
293333
293278.1
293196.7
293102.7
293004.1
292928.7
292912.4
292954
293011.5
293053.7
293081.1
293097.9
293108.7
293110.9
293093
293048.2
292987.3
292934
292894.7
292875.7
292894.6
292922.6
293099.7
292773
292325
293252.2
293613
293320.9
293280.1
293229.2
293208.5
293207
293232.9
293277.1
293295.7
293266.1
293197.7
293120.5
293049.5
292984.1
292926.1
292914.4
292970
293037.1
293078.7
293104.1
293122
293142.1
293159
293153.3
293110.4
293037.9
292965.8
292919.6
292912.7
292966
293028.7
293351.2
293006.9
292110.2
292589
293385.8
293689.7
293319.1
293270.7
293225.4
293193.3
293177.6
293195.7
293227.2
293229.9
293179.9
293112.3
293065.3
293039.1
293024.9
293020
293044.2
293086.7
293132.1
293170.7
293188.9
293197.1
293209.1
293219.3
293207.7
293154.2
293061.6
292964.3
292908.3
292907.1
292957.6
293033.8
293442.3
293143.2
292352.7
292783.6
293467.2
293574.2
293262.2
293231.3
293219.7
293187.2
293152.4
293147.3
293154.5
293124.6
293058.5
293014
293008.1
293030.6
293067
293108.9
293157
293206.2
293246.2
293262.8
293258.9
293242.7
293225.3
293206.6
293170
293096.8
292984.5
292867.8
292806.7
292814.8
292855
292936.6
293310.2
293220.2
292546.6
292882.3
293317.6
293227.4
293218.6
293217.3
293221.3
293181.8
293122.5
293084.7
293056.7
292992.6
292925.4
292906.9
292939.8
293004
293078.6
293149.6
293210.1
293254.4
293278.4
293279.5
293258.8
293218.2
293164.5
293107.4
293046.4
292969.3
292873.7
292786.6
292758.5
292787.3
292828.5
292897.3
292972.6
293091.7
292666.6
292985.1
293355.5
293211.8
293213.5
293215.9
293219.4
293168.7
293086.4
293017.5
292953.6
292870.7
292798.4
292795.8
292859.6
292958.3
293063.3
293155.8
293225.2
293266.3
293277.4
293259.7
293217.6
293157.4
293088.4
293021.5
292962.1
292905
292847.4
292809.6
292823.6
292868.9
292906.7
292961
293008.6
293168.1
292793.5
292998.7
293362.8
293215.2
293212.6
293209.5
293205.6
293145.1
293049.4
292962.1
292876.7
292782.3
292702.9
292697
292773.6
292897
293026.2
293136.1
293214.3
293256.3
293262.3
293236.2
293184.8
293117.5
293046.9
292986.9
292945.6
292919.2
292903.5
292910.5
292954.6
293004.1
293029.3
293063.9
293090.4
293236.4
292852.2
292941.7
293352
293245
293220.6
293200.9
293182.8
293115.4
293017.8
292929
292840.8
292743.3
292661
292642.1
292709.8
292836
292978
293098.6
293183.1
293227.1
293232.6
293205.3
293154.6
293092.8
293035
292995.7
292980.7
292981.4
292990.8
293020
293078.5
293129.9
293148
293171.5
293194.3
293284.5
292841.5
292890.6
293532.5
293609.6
293272.2
293209.9
293163.2
293088.7
292998.1
292920.3
292843.6
292754.4
292674.5
292644.4
292689.5
292802
292936.3
293055.4
293139.5
293184
293191.3
293168.3
293125.6
293077.4
293040.1
293026.3
293035.2
293052.2
293069.9
293102.2
293160.3
293214.7
293247.6
293295.3
293616.1
293508.3
292821.7
292713.6
293470.1
293739.7
293335.2
293245.9
293157.6
293075.5
292995.7
292931.9
292871.9
292800
292729.1
292693.6
292718.4
292800.6
292914.1
293019.4
293093.4
293133.9
293143.5
293128.5
293099.3
293069.8
293055.6
293064.7
293087.8
293109.5
293126.1
293153.7
293204.1
293263
293329.7
293395.1
293773.3
293465.2
292659.1
292473
293354.4
293677.8
293343.4
293257.2
293157.7
293082.9
293016.6
292961
292914.6
292861.9
292805.7
292770.8
292779.5
292832.6
292912.2
292993.9
293055.2
293088.6
293099.9
293095.9
293084.1
293075
293080.6
293103.9
293131.7
293151.2
293166.2
293193.1
293233.2
293282.8
293356.1
293415.1
293719.6
293352.9
292411.2
293221.2
293501.7
293296
293235.7
293168.8
293111.6
293054.5
293003.1
292964.5
292926.3
292887
292860.4
292860.5
292889.2
292936.1
292987.2
293030.4
293059.4
293075.7
293084.7
293092.2
293101.7
293118.7
293143.6
293167.8
293183.7
293199.2
293227.2
293260.6
293292
293331.5
293361.7
293526.7
293189.5
292851.6
293419.5
293479.8
293251.4
293225.7
293171.9
293110.5
293060.6
293022.2
292990.1
292963.6
292949.3
292950.6
292964.9
292986.7
293011
293033.9
293057.6
293082.2
293106.1
293128.8
293149.3
293167.4
293185.9
293203.9
293220.5
293241.5
293270.7
293308
293334.7
293332.7
293527.4
293426.8
292803.4
292487.4
293156.3
293478.2
293305
293311.7
293266.6
293182
293127.6
293087.5
293053.1
293030.7
293025.6
293033.1
293045
293056.7
293066.2
293075.9
293093.6
293121.5
293153.1
293180.8
293201.1
293214.6
293227.2
293245.5
293269.1
293294
293328.3
293387.9
293405.3
293367.5
293508.6
293148.2
292429.4
293173.1
293556.6
293555
293396.5
293336
293242.7
293185.2
293148.5
293114.1
293087.8
293083
293095.3
293112.8
293128.2
293138.4
293146.8
293160.3
293181.8
293206.5
293227.3
293240.9
293249.9
293264.3
293290.8
293318.2
293340.2
293376.8
293444.1
293472.7
293592.9
293565.3
293139.2
293367.6
293684.2
293689.7
293411.3
293309.3
293240.2
293200.6
293169
293139.4
293128.6
293140.7
293164.2
293191.1
293213.4
293229
293240.1
293249.1
293256.7
293262.2
293268.5
293278.4
293300.4
293333.6
293360.4
293385.3
293432.8
293507.2
293747.7
293706.2
293338.4
292829.2
293422.4
293842.1
293750.7
293413.4
293315
293263
293226.7
293190.3
293177.2
293187.1
293213.6
293253.3
293291.1
293316.3
293325.9
293322.3
293310.8
293300.2
293301.1
293312.8
293339
293380.4
293412.5
293450.3
293527.5
293832.8
293893
293423.2
292772.9
293080.8
293573.2
293902.2
293747.1
293413.6
293351.3
293303.6
293240.9
293221.1
293236.2
293271.8
293321.2
293369.8
293402
293411.1
293399.1
293374.9
293351.6
293340.1
293344.6
293377.1
293445.2
293490
293537.9
293848.8
293977.7
293602.1
293048.9
293150.5
293555.9
293825.7
293675.7
293394.2
293330.2
293272.3
293253.4
293283
293322.9
293363.4
293407.9
293440.3
293450.2
293438.5
293416.7
293399.1
293380.4
293367.5
293397.7
293461.3
293521.3
293789.4
293921.2
293617.5
293158
293030.6
293374.9
293641.9
293526
293295
293267.7
293286.6
293344.7
293370.5
293368.3
293387.8
293412.9
293423.4
293419.6
293421.6
293444.3
293437.9
293394.6
293387.1
293418.6
293641.7
293751
293461.7
293080
292744.2
293279.3
293495.4
293433.8
293453.5
293303.5
293385.1
293411.6
293380.9
293361.8
293377
293388.2
293394.9
293434.7
293484.2
293475.8
293411
293574.5
293554.4
293606
293385.3
292820.9
293051.6
293063.1
293346.6
293450.1