/*--------------------------------*- C++ -*----------------------------------*\
  =========                 |
  \\      /  F ield         | OpenFOAM: The Open Source CFD Toolbox
   \\    /   O peration     | Website:  https://openfoam.org
    \\  /    A nd           | Version:  6
     \\/     M anipulation  |
\*---------------------------------------------------------------------------*/
FoamFile
{
    version     2.0;
    format      ascii;
    class       volScalarField;
    location    "50";
    object      p_rgh;
}
// * * * * * * * * * * * * * * * * * * * * * * * * * * * * * * * * * * * * * //

dimensions      [1 -1 -2 0 0 0 0];

internalField   nonuniform List<scalar> 
140018
(
122751.3
122750.4
122754
122771.8
122661.4
122632.1
122642.7
122651.7
122674.2
122701.7
122708
122720.7
122673.2
122611.3
122548.8
122499.1
122489.6
122524.8
122578.9
122631.3
122670.6
122699.2
122698.4
122688.2
122679.8
122634
122559.4
122472
122393.2
122365.6
122412.7
122499.3
122582.3
122647.3
122692.8
122719
122728.4
122714.1
122651.4
122605.9
122536.6
122455.6
122375.5
122334.1
122377.1
122480
122579.9
122660.6
122718.8
122756.9
122777.9
122775.7
122642
122619
122580.6
122533.7
122481.5
122433
122417.5
122456.1
122538.6
122636.5
122718.4
122780.6
122822.2
122848.3
122855.4
122832.5
122584.8
122560.7
122540.9
122523
122507.8
122501.9
122519.8
122567
122635.9
122708.9
122774.9
122824.7
122853.2
122863.7
122849.7
122812.5
122521.7
122511.5
122490.2
122485.8
122490.4
122500
122521
122554.8
122602.3
122660.2
122720.6
122771.4
122806.1
122820.3
122810.6
122779
122726.6
122611
122456.4
122422.8
122409.5
122420.4
122445.1
122474.8
122513.5
122551.7
122597
122641
122684.4
122717.7
122742.6
122750.3
122739.5
122709.6
122655.9
122568.1
122380.8
122338.6
122323.5
122349.4
122394.5
122444.5
122497.3
122542.9
122587.8
122625.7
122660.4
122683.3
122701
122702.3
122690.3
122664.1
122619.3
122553.3
122318.9
122269.9
122251.4
122289.5
122352.6
122421.3
122485
122539.4
122586.4
122621.7
122647.7
122666.7
122678.5
122676.7
122665.9
122644
122603.7
122560.8
122226.9
122238.2
122271.4
122337.6
122416
122486.9
122544.9
122589.1
122621.9
122647.4
122664.5
122671
122668.8
122660.1
122642.7
122610.9
122248.6
122272.8
122304
122363.4
122437.5
122506.5
122563.5
122606.7
122636.8
122657.4
122668.9
122672.7
122670.1
122662.7
122646.2
122621.2
122316
122365.4
122417.3
122482.8
122542.9
122590.4
122624.9
122650.8
122668.1
122677.7
122680.1
122677.2
122670.1
122650.9
122373.4
122425.7
122474.4
122531.9
122583.9
122624.8
122650.5
122669.3
122682
122689.3
122690.8
122685.4
122674.5
122649.5
122457.6
122507.4
122563.9
122612.2
122651.7
122670.9
122683.1
122692.9
122695.1
122693
122677.6
122662
122565.4
122615.9
122655.5
122677.6
122688.5
122691.9
122681.6
122671.2
122634.7
122663.8
122673.3
122670.7
122884.6
122900.4
122897.9
122887.7
122871.2
122846
122810.5
122764.5
122707.7
122642.6
122858.4
122887.9
122918.5
122924.8
122920
122912.3
122903.6
122888.9
122862.1
122818.2
122757.4
122675.1
122578.6
122502
122826.7
122876.7
122895.7
122903.2
122894
122879.5
122864
122861
122856.4
122844.8
122813.2
122766
122703.1
122628.6
122547.1
122457.4
122773.9
122826.1
122851.6
122852.7
122838.7
122813.5
122792.3
122767.1
122768.5
122775.5
122784.9
122772.8
122744.6
122699.4
122642.8
122580.3
122504.2
122429.2
122714.1
122765.9
122795.2
122797.7
122781.4
122746.4
122687.9
122658
122651
122648
122669.5
122701.1
122716.4
122723.3
122692.6
122653.5
122604.4
122546.5
122482.6
122420.7
122655.5
122706
122742.5
122753.7
122745.6
122700
122638.8
122573.1
122505.8
122482.7
122508.9
122561.7
122615.1
122654.4
122686.1
122694.2
122683
122637.9
122593.7
122532.5
122463.6
122399.9
122647.4
122690.6
122717.2
122720.9
122697.4
122649.4
122573.8
122484.9
122399.3
122359.8
122392.4
122476.5
122560
122624.6
122669.5
122695.3
122708.2
122700.3
122656.4
122597.2
122519.8
122435.6
122577.4
122628.7
122672.9
122697.8
122697.9
122667
122613.3
122543.3
122463.4
122386.7
122339.5
122370.8
122465.7
122561.3
122639.8
122697.5
122736.3
122760.7
122765.9
122738.4
122683.6
122591.7
122477.9
122384.9
122568
122613.8
122655.8
122672.9
122660.1
122630.3
122580.9
122530.8
122480.5
122437.6
122421.2
122456.9
122530.7
122622.2
122703
122765.5
122809.9
122840.1
122849.9
122822.5
122730.8
122608.3
122458.5
122311
122543.7
122590.4
122623.4
122625
122599.2
122559.7
122530.8
122508.5
122493.3
122489.3
122506.5
122552.4
122621.2
122694
122759
122811.8
122844.9
122860.3
122848.9
122798
122676.3
122537.4
122359.6
122185.1
122513.3
122554.8
122571.5
122551.6
122521.4
122479.4
122466.6
122467.4
122477.6
122497.9
122531.1
122578.4
122635.9
122695.3
122748.4
122787.1
122805.2
122797.3
122762
122707.8
122590
122458.3
122301
122148.9
122478.2
122508.1
122512.1
122478.8
122417
122389
122392.7
122414.8
122446.2
122483.6
122524.3
122569
122614.4
122657.7
122693.6
122719.1
122728.6
122717.6
122683.8
122626.8
122538.9
122424.4
122307.1
122195.4
122447.7
122464.6
122452.2
122408
122331.5
122297.8
122315.7
122359
122411.2
122464.3
122513.2
122558.5
122598.3
122632.3
122657.7
122673.6
122675.7
122662
122631.5
122585.9
122525.6
122439.3
122363.3
122298.8
122431.2
122433.2
122403.8
122352.5
122276.7
122237.5
122257.6
122315.2
122384.8
122451.1
122507.9
122554.9
122591.7
122619.6
122638.6
122648.6
122646.9
122633.6
122610
122581.3
122539.3
122480.4
122435.9
122410.8
122432.6
122420.5
122382.6
122335.8
122269.7
122229.7
122246
122305.6
122381
122453.9
122514.3
122561
122595.2
122619.5
122634.7
122640.6
122637.2
122626.2
122609.9
122590.8
122554.2
122523.1
122502.2
122501.1
122447.9
122425.8
122388.9
122342.3
122297.4
122276.8
122281.7
122334.4
122408
122478.3
122535.6
122578.7
122609
122629.1
122640.4
122643.7
122639.8
122632.2
122627.8
122607.4
122583
122563.2
122555.5
122564.5
122468.9
122444.8
122414
122378.7
122352
122335.9
122346.2
122389.7
122453.9
122518.4
122569.1
122603.8
122627.4
122642.9
122651.1
122652.9
122649.5
122644.5
122641.4
122620
122608.5
122600.3
122598
122610.9
122470.7
122447.6
122423.8
122405.2
122400.6
122421
122451.3
122505.5
122559.7
122604.4
122633.1
122648.5
122658.3
122664
122666.3
122664
122665
122652.9
122640.1
122630.1
122627.3
122626
122504.8
122483.5
122468.2
122456.5
122459.2
122477.4
122511.6
122557.4
122593.3
122631.5
122655.3
122667.2
122673
122676.8
122685.2
122681
122674.5
122663.1
122657.1
122650.9
122646.5
122640.4
122509.4
122507.3
122502.8
122505.7
122519.4
122547.5
122586.6
122621.2
122651.6
122665.8
122677.6
122687.4
122688.1
122687.4
122683.8
122680.1
122676.5
122671.7
122664.1
122649.9
122527.7
122539.4
122545.4
122556.2
122578.3
122603.7
122629.4
122655.1
122671.3
122682.8
122686.7
122687.5
122688.7
122689.7
122687.8
122686.6
122679.6
122659.1
122555.6
122574.4
122584.8
122603.5
122622.3
122642.6
122660.2
122671.5
122678.7
122684.5
122689.1
122690
122693.1
122691.9
122689
122670
122584.8
122598.5
122621.2
122637.7
122651.8
122664.8
122673.8
122678.3
122682.4
122685.8
122688.8
122691.4
122682.8
122678.1
122619.7
122641.3
122654.5
122663
122667.7
122667.7
122670.5
122674.3
122679
122677.4
122871.7
122873.2
122872.4
122869.7
122864.9
122857.2
122843.9
122864
122826.3
122840.3
122853
122872.2
122872.1
122863.5
122848.8
122827.4
122800.2
122765.1
122720.7
122687.5
122650
122627.7
122804.7
122846.4
122869.1
122885.5
122891.3
122886.2
122874.9
122855
122825.1
122785.7
122737.8
122685.6
122637.5
122573.8
122511.5
122482.8
122747.2
122778.6
122827.1
122860.4
122881.4
122907.4
122918.3
122916.1
122906.6
122888.2
122858.2
122815.3
122760.4
122696.4
122629.2
122540.9
122472
122404.6
122328.5
122267.8
122718.2
122758.3
122793.6
122829.6
122869.1
122895.5
122908.4
122905.5
122897.1
122884.5
122867.4
122842.6
122806.8
122757.6
122696.9
122631
122558.6
122483.1
122391.3
122319.6
122247.7
122192.7
122682.6
122716.8
122749.8
122785
122831.2
122864
122879.4
122885.4
122881.1
122866.7
122849
122832.6
122814.4
122790.2
122752.7
122700
122633.3
122563.5
122497.9
122429.1
122333.6
122267.7
122212.6
122169.6
122672
122700.4
122733.3
122779
122819.4
122844.3
122856.3
122851.2
122830.9
122803
122779.2
122765.7
122757.8
122750
122730.9
122696.2
122643.7
122581.3
122517
122457.9
122395
122305.6
122249.3
122207.6
122620.3
122651.5
122679.6
122720.6
122761.9
122793.4
122811.2
122804.4
122773.1
122726.8
122684.8
122660.2
122654.6
122666.4
122683.1
122688.8
122679.8
122649.2
122604.7
122550.2
122491.7
122438.4
122378.5
122292.6
122239.4
122195.8
122600.4
122612.9
122631.5
122660.6
122702.1
122738.7
122762.5
122761.7
122729.8
122671.3
122598.1
122528.5
122494.2
122508.9
122554.2
122601.4
122634.8
122652.4
122650.6
122630.7
122593.3
122544.5
122486.4
122425
122357.3
122267.6
122216.2
122200.3
122586
122591.3
122604
122639.2
122679.6
122715.4
122731.8
122718.6
122672.6
122599.2
122509.5
122418.6
122366.8
122385.5
122460.3
122539.8
122599.6
122638.5
122658.5
122662.7
122650.3
122612.9
122555.1
122479.4
122392.4
122298.9
122230.4
122210.8
122562
122568.6
122584.7
122619.6
122659.9
122695.8
122707.6
122685.3
122632.3
122560
122479.7
122401.6
122346.1
122360.4
122443.4
122535.4
122608.6
122662.5
122698.4
122719.4
122720.7
122694.6
122637.5
122548.7
122430.9
122333.7
122240
122214.8
122558.4
122545.4
122544.5
122562.9
122594.3
122638.4
122671.9
122669.8
122635.1
122586.8
122533.9
122482.7
122439.4
122418.1
122444.4
122508.4
122590.4
122668.4
122729.3
122773.5
122803.2
122806.5
122773.4
122691.1
122569.4
122415.7
122257.6
122157
122142.7
122174.8
122549.4
122530.2
122522.2
122539.2
122566.2
122605
122622.1
122599.6
122557.2
122522.9
122496.6
122479
122472.9
122485.4
122524.9
122587.6
122657.3
122720.1
122772.3
122806.8
122822.2
122807.8
122748.2
122638.4
122487.2
122308.4
122127.2
122022.8
122020.8
122083
122542.8
122516.3
122500.4
122511.4
122528.2
122552.6
122546.4
122506.9
122463.9
122445.4
122442.9
122451.9
122470.7
122500.6
122543.2
122595.8
122651.3
122702.9
122742.6
122762.1
122753.6
122713.1
122640.9
122529.6
122391.4
122239.8
122093.6
122005.4
122015.2
122089.4
122544.1
122506.5
122481
122481.3
122481.5
122488.3
122465.2
122406.1
122362.6
122358.6
122379.3
122412.3
122450.9
122491.9
122534.9
122578.1
122618.8
122653.2
122677.2
122685.3
122671.3
122631.2
122563.7
122467.6
122355.5
122246
122156.4
122107.5
122125.5
122189.4
122552.9
122504.2
122468.1
122455.2
122436.8
122425.2
122387.8
122317.8
122268.5
122270.9
122312.6
122369.3
122426.9
122479.4
122525.6
122565
122597.4
122621.4
122634.8
122634.5
122617
122580.5
122525.7
122455.2
122375.8
122305.7
122261.2
122243.5
122272.1
122331.7
122570.6
122510.8
122464.5
122438.6
122404
122376.3
122329.1
122262
122210
122211.2
122260.8
122335.4
122409.3
122472.2
122522
122559.9
122587.3
122604.8
122612.1
122607.7
122590.6
122561.3
122521.5
122472.2
122422
122383.8
122371.5
122374.9
122410.3
122468.7
122593.8
122524.2
122471.2
122435.5
122390.4
122353.1
122305.6
122248.2
122200.4
122198.6
122249.7
122327.9
122408.7
122476.9
122528.4
122564.7
122588.6
122601.9
122605.4
122599.2
122584.3
122562.4
122534.3
122501.5
122473.9
122457.4
122464.9
122479
122514.2
122569
122628.4
122546
122489.7
122446.1
122397.2
122356.6
122313.8
122267.6
122235.1
122235.7
122279.8
122353.4
122432.1
122497.5
122545.5
122577.9
122598
122607.8
122608.8
122601.9
122589.7
122574.8
122554.4
122534.7
122520.9
122518.8
122535.7
122556.9
122592.3
122644.3
122582.8
122519.5
122466.2
122426.8
122379.3
122343.8
122311.7
122293.5
122298.4
122336.9
122399.1
122469.1
122529.9
122571.3
122596.2
122611.2
122617.8
122616.9
122610.3
122600.8
122590
122575.5
122565.5
122561.8
122574.9
122585.5
122613.2
122646.3
122623.8
122552.7
122498.6
122458.1
122413.9
122384.5
122363.6
122354.9
122365.3
122397.4
122449.5
122507.4
122560.4
122597.8
122616.4
122624.8
122628.3
122627.2
122622.4
122616.4
122607.4
122598.3
122592.6
122594.1
122608
122620.1
122645.6
122681.4
122662.1
122590.5
122535.2
122492.4
122462
122430.4
122414.4
122411.2
122424.2
122452.5
122495.4
122540.6
122583.2
122615.3
122632.2
122637.4
122638.8
122639.7
122637
122632.3
122625.7
122621.2
122620.3
122630.1
122634.6
122651.8
122672.9
122709
122634.2
122579.8
122534.5
122502.3
122484.3
122463.4
122460.8
122472
122496.7
122532.1
122568
122601.5
122624.5
122640.2
122648.1
122649.6
122649.5
122648.4
122646.9
122644.7
122644.2
122651.2
122651.6
122657.7
122674.5
122692.4
122617.1
122575.3
122542.9
122522.2
122514.9
122504.9
122512.4
122533.3
122560.6
122589.7
122616.3
122634
122645.7
122652.5
122656.2
122657.8
122659.5
122660.8
122663.3
122671.1
122669.1
122670.3
122678.9
122685.1
122650.9
122611.5
122579.8
122558.6
122550.3
122551.6
122549.2
122565
122585.6
122609.1
122629.2
122642.4
122650.1
122655.4
122660.9
122665.5
122669.8
122674.3
122684.6
122686.3
122687.2
122692.7
122696.4
122696.8
122641
122617.2
122593.3
122581.9
122584.8
122587
122601.9
122609.5
122626.6
122642.3
122652.4
122657.8
122661.8
122666.4
122672.8
122684.6
122690.9
122695.7
122701
122705
122707.9
122703.6
122646.9
122621
122612.2
122608.8
122613.3
122626.6
122635.6
122648.8
122660
122667.4
122671.2
122675
122679.3
122685.4
122691
122699.2
122708
122714.3
122708.8
122712.7
122631.9
122635.6
122635.4
122638.2
122649.3
122660.7
122669.2
122675.8
122678.6
122683.1
122687.7
122694.5
122701.8
122711.3
122719.1
122713.1
122653.8
122652.7
122651.3
122664.3
122674.6
122682.3
122689
122692.2
122697
122701.7
122706.3
122710.3
122720.6
122729.6
122676.3
122684.6
122691.4
122698.1
122703.5
122709.8
122717.1
122722
123016.6
123010.9
123021.4
123034.9
123052.8
123110.1
122903.4
122901.2
122899.3
122907.6
122903.3
122902.7
122903.5
122902.4
122897.4
122889.1
122895.8
122876.8
122861.6
122859.4
122836.2
122843
122850.6
122852.6
122853.1
122856.9
122846.6
122835
122823.6
122809.2
122791.7
122773
122757.3
122726.1
122686.4
122642.8
122600.3
122560.8
122793
122808
122818.1
122827.7
122833.1
122836
122831.3
122806.8
122786.5
122764.7
122738.9
122710
122680
122650.3
122611.3
122565.7
122521.4
122471.6
122414.5
122388.3
122754.5
122775.4
122789.4
122809.3
122818.4
122817.5
122818.6
122812.1
122797.5
122776.1
122748.7
122714.4
122674.4
122630.1
122580.9
122530.5
122477
122434.5
122380.7
122318.2
122273.1
122239.1
122720.5
122743.2
122763.7
122784.7
122800.7
122807.6
122817
122824.5
122821.8
122809.1
122787.5
122758
122719.8
122673.3
122619.6
122559.8
122497
122430.8
122375.4
122323.7
122264.1
122215.2
122168.8
122138.7
122691.3
122711.4
122728.9
122744
122759.6
122782
122806.7
122825.3
122832.5
122829.3
122815.5
122793.1
122763.5
122726.3
122680.7
122626.3
122563.3
122493.6
122424.7
122357.8
122291.2
122234
122190.8
122154
122120.9
122095.2
122668.4
122682
122691.7
122704.8
122717.9
122744
122776.3
122806.1
122827
122834.5
122828.7
122811.5
122787.3
122760
122728.7
122690.7
122642.8
122582.8
122512.3
122440.7
122369.5
122302.9
122239.4
122192.4
122164.3
122144.6
122115.9
122101.7
122664.5
122662.4
122658.4
122662.7
122673.7
122696.4
122731.5
122769.7
122805.8
122829.3
122830.6
122810.7
122779.4
122747.9
122722.9
122702.3
122679.4
122647.8
122602.2
122542.2
122474.9
122404.8
122337.5
122277.5
122223.8
122188.2
122173.7
122148.2
122145.7
122146.3
122647
122637.8
122633.2
122639.8
122647.4
122675.9
122716.8
122762.6
122796.4
122806.3
122787.2
122746.3
122697.1
122657
122637.5
122634.5
122635.4
122628.2
122606.2
122567.3
122515.1
122454.5
122390.2
122330.3
122277.5
122231.2
122205.3
122185.7
122172.7
122174.5
122646.1
122628
122610.7
122606.5
122603
122619.1
122654.2
122702.7
122746.7
122764.5
122746.8
122697.2
122626.2
122553.7
122507.6
122504.3
122532.9
122566.8
122589.3
122595.2
122583.1
122553.7
122510.3
122455.5
122394.6
122333.7
122276.7
122226.9
122201.4
122199.3
122210.8
122244
122628.2
122604.2
122583.9
122570.4
122570.1
122591.6
122633.5
122683.8
122716.4
122718.2
122683.6
122616.6
122529.5
122436.4
122373
122375.1
122434.6
122504.8
122556.3
122587.7
122600.4
122595.3
122572.1
122528.8
122467.6
122393
122314.6
122247.1
122207.1
122211.3
122241.1
122291.7
122612.1
122581.6
122559.8
122540.1
122540.4
122564.8
122609.8
122657.9
122686.8
122679.6
122635.2
122566
122487.1
122407.7
122343.6
122340.1
122409.7
122495.4
122561.2
122609
122639.3
122653.1
122644.2
122608.2
122544
122455.3
122350.9
122264.9
122215.1
122219
122264
122337.9
122598.1
122561.6
122537.3
122510.7
122509.7
122535.1
122580
122627.5
122646.6
122621.8
122575.3
122523
122471.5
122426.3
122399.1
122415.8
122469.7
122542
122615.3
122671.9
122711.5
122734.9
122728.6
122684.4
122598.5
122476.2
122333.5
122209.2
122152.9
122171.1
122214.3
122312.8
122659.3
122597.4
122549.9
122507.7
122481.7
122478
122498.7
122538.2
122574.6
122571.1
122531.9
122496.6
122468.3
122448.9
122440.1
122447.7
122480.6
122536.6
122602.5
122662
122710.6
122741.9
122752.5
122731.4
122664.2
122549.9
122393.3
122217.4
122066.8
122012.7
122049
122133.7
122271.6
122347.3
122653.9
122593.2
122539.8
122488.1
122455.4
122444.2
122454.3
122481.4
122497
122469.4
122426.9
122404.9
122400.2
122408.1
122425.6
122452.9
122491.5
122539.6
122591.7
122640.9
122679.7
122697.9
122686.7
122641
122557.6
122437.4
122289.5
122134.3
122009.1
121974.2
122027.5
122135.9
122268
122364.4
122665.6
122597.3
122534.9
122474.3
122433.1
122411.1
122406
122414.7
122409.6
122365.3
122317.3
122305.9
122324.3
122358
122398
122439.9
122482.4
122524.1
122563
122595.9
122618.5
122624.6
122607.6
122561.9
122485.2
122380.3
122260.4
122147.4
122070.1
122058
122114.1
122219
122334.7
122423.6
122683.2
122606.9
122537.3
122468.8
122418.7
122385
122363.9
122353
122328.4
122276.6
122223.4
122211.5
122248.1
122306.1
122368.1
122424.5
122472.9
122513.1
122545.3
122568.5
122580.8
122578.8
122558.8
122518.1
122456.8
122379.7
122297.8
122227.2
122187
122194.6
122250
122338.5
122433.8
122511.4
122706.5
122622.4
122548.2
122473.4
122415.3
122371.4
122336.7
122310
122273.6
122220
122166.4
122153.9
122193.5
122266.1
122346.2
122415.3
122469.7
122510
122538.3
122555.7
122562.3
122556.9
122538.3
122506.1
122462.6
122411.4
122361.5
122324.4
122311.9
122332.2
122383.8
122457.1
122532.7
122600.8
122738.7
122645.2
122568
122489.6
122424.6
122372.6
122328.9
122292.9
122253.2
122204.2
122160.1
122147.9
122183.7
122259.3
122344.4
122419.6
122476.5
122516.3
122541.9
122555.6
122558.9
122552.2
122536.1
122512.4
122483.3
122451.9
122425.3
122410.7
122415.1
122442.6
122491.5
122554.6
122619.1
122674.1
122685.3
122595.4
122520.5
122444.9
122387.5
122339.9
122300.3
122262.4
122222.9
122193
122188.5
122220.7
122287
122368.9
122441.3
122494.3
122530.2
122552.4
122563.1
122564.3
122557.2
122543.7
122526.3
122507.1
122489.2
122477.5
122476.8
122490.3
122522.6
122577.5
122625.8
122683.4
122719.6
122633.3
122549.6
122471.8
122412
122364.8
122325.1
122292
122263.5
122246.5
122250.9
122282.3
122338.2
122407.3
122473.3
122520.9
122549.1
122566
122573.8
122573.6
122566.9
122555.6
122542.3
122529.7
122520.5
122518
122525.9
122542.8
122576.2
122625.2
122674.1
122721.3
122758.4
122664.8
122584.2
122507.8
122446.3
122399.5
122361.7
122333.4
122313.5
122305.4
122315.3
122345.5
122393.2
122449.5
122503.5
122545.2
122569.4
122580.1
122584.6
122583.9
122578.6
122570
122559.8
122551.1
122546.8
122549.1
122560.4
122581.2
122615.2
122660.1
122704.3
122750.5
122799.9
122703.5
122621.6
122557.8
122490.2
122439.3
122403.3
122377.8
122362.9
122359.4
122371.2
122399.2
122440.5
122486.4
122529.1
122561.8
122582.6
122592.2
122594.3
122593.9
122590.9
122585.4
122578.2
122572.8
122572.3
122578.5
122591
122615.7
122653.4
122686.6
122727
122775.7
122749.6
122669.8
122595.5
122544.4
122483.1
122445
122421.8
122408.1
122406.1
122417.3
122442.1
122477
122514.9
122549.1
122573.9
122589.8
122598.9
122603.1
122603.2
122602.4
122600.2
122596.8
122595.4
122599
122606.1
122621.4
122653.3
122675.8
122708.1
122743.4
122785.9
122711.4
122640.6
122582
122527.5
122487.9
122462.8
122450.5
122447.8
122456.6
122477.5
122506.5
122537.7
122565.1
122584.1
122595.8
122603.2
122608.9
122612.2
122613.4
122614.6
122615.9
122620
122625.8
122635.1
122651.6
122676.2
122697.7
122727.1
122760.6
122759.7
122688.7
122622.8
122579.7
122534.5
122504.7
122490.3
122487.5
122492.6
122508.7
122532
122557.7
122579.8
122594.6
122603.3
122609.2
122614.7
122620.4
122625.4
122630.7
122637.3
122644.8
122654
122667.7
122688.6
122701.1
122720.5
122743.6
122731.6
122671.5
122618.3
122586.6
122549.7
122531.6
122525.5
122527.8
122540.1
122556.6
122577.1
122595
122607
122614.1
122619.3
122624.6
122631.3
122639.9
122650.2
122660.1
122670.9
122683.7
122702.3
122713.6
122725.9
122736
122711.9
122665.7
122625.8
122597.3
122583.2
122565
122562.5
122571.1
122583.6
122599.5
122614
122624.5
122630.9
122635.7
122641.2
122648.4
122657.2
122668.9
122683.7
122704
122715.8
122726.1
122738
122741.9
122702.2
122665.9
122635.3
122617.1
122609.1
122598.3
122600.8
122611.5
122623
122634.4
122643.4
122649.3
122654.7
122661.2
122669.5
122679.1
122692
122711.2
122723.7
122739.2
122752.6
122753.4
122699.5
122674.1
122649.1
122640.1
122634.5
122635.9
122645.6
122649.4
122658.3
122666.3
122672.1
122677.8
122685.2
122697.9
122709
122721.1
122734.6
122751.4
122766.2
122769.9
122709
122680.7
122665.9
122658.1
122660.3
122669.8
122677.5
122685.6
122693.3
122699.8
122706
122713.7
122723.7
122737
122748.9
122764.2
122777.8
122789.7
122697.4
122683.3
122682.8
122685.6
122696.6
122703.4
122711.5
122721
122728.7
122737.2
122751.6
122764.3
122780.7
122795.1
122719.2
122721.5
122730.6
122744.4
122754.1
122764.2
123057.5
123055.9
123066.6
123075.3
123095.1
123113.9
123127.4
123141.7
123156
123180.2
122959.6
122944.5
122947.8
122941.7
122938.5
122934.4
122934.8
122939.6
122945.6
122951
122957.2
122965.1
122955.1
122948.6
122909.1
122892.2
122882.4
122868.9
122860.4
122860
122852.4
122843.1
122838.8
122816.6
122808.8
122804
122801.4
122806.6
122791.4
122780.5
122753.1
122711.3
122675.7
122661.5
122822.7
122815.5
122818.5
122808.7
122802.9
122785.6
122774.7
122764.5
122751.1
122731.1
122714.5
122699.2
122685.5
122671.9
122644.5
122618.1
122581.2
122550.4
122503.7
122462.2
122389.8
122341.7
122782
122775.5
122776.4
122774
122760
122752.6
122743.2
122732.3
122717.4
122698
122673.4
122648.4
122622.4
122596.8
122571.3
122537
122499.8
122458.8
122420.1
122373.8
122334.2
122280.8
122232.3
122209.5
122742.9
122742.7
122742.8
122743.8
122734.1
122732
122727.6
122722.4
122712.9
122697.4
122676.6
122648.8
122617.2
122581.9
122544.4
122505.7
122461.9
122417.7
122372
122328
122277.5
122234.8
122197.6
122156.5
122134.1
122117.5
122716.3
122715
122715.3
122715.9
122710.7
122712.6
122715.6
122719
122720.7
122716.5
122704
122683.1
122653.5
122617.9
122576.4
122530.6
122481.3
122427.3
122372.8
122317.5
122265.4
122212.5
122166.4
122131.8
122110.1
122090.1
122079.5
122071.8
122703.7
122696.6
122691.9
122690.1
122683
122684.3
122693.5
122706.1
122721.3
122732.2
122733.2
122723.3
122702.6
122672.4
122635.5
122592.1
122543
122488.3
122427.3
122364.3
122300.9
122239.4
122181
122132.4
122096.1
122076.1
122073.2
122069.2
122067.7
122071.1
122678.1
122671.8
122666.5
122655.2
122653.3
122661.2
122679.3
122703.7
122729.1
122747
122752
122742
122719.3
122687.6
122651.3
122610.8
122565.1
122512.5
122451
122384.1
122315.6
122248.5
122185.6
122132.4
122093.1
122072.7
122072.4
122082.5
122091.9
122095.8
122672.9
122664.8
122650.3
122631.1
122622.6
122624.4
122639.9
122667.7
122703.2
122738.9
122764.2
122768.9
122750.6
122717.3
122678.7
122642.4
122609.1
122574.5
122533.6
122481.7
122420.3
122353.5
122285.8
122220.5
122164.2
122121
122097
122094.8
122105.2
122129.1
122150.8
122162.7
122688.2
122666.2
122640.7
122616.9
122600.4
122592.7
122596.2
122617.2
122654.8
122702.7
122747.1
122769.2
122761.6
122726.5
122674.5
122624.1
122589.3
122569.5
122554.8
122535
122503
122457.8
122402
122340.4
122276.8
122218.4
122170.6
122139
122128.1
122135.9
122156.9
122190.7
122222.4
122247.3
122669.8
122643
122619.7
122587.5
122568.2
122557.9
122564.9
122592.5
122640.1
122695.4
122732.2
122733
122695.7
122630.3
122557.5
122501.2
122478.5
122487.6
122505.2
122514.3
122509
122487.5
122450.8
122402.2
122345
122285
122228.5
122183.4
122157.1
122155.8
122178.6
122218.1
122260.8
122293.8
122655.3
122621.9
122587.4
122555.9
122532.9
122522.3
122532.3
122566.9
122622.1
122671.8
122689.5
122668.3
122611.6
122530.8
122438
122365.1
122350
122392
122448.8
122489
122510.5
122513.9
122499.6
122467.5
122418.1
122355.3
122285.8
122221.5
122177.9
122167.2
122192.4
122240.4
122303.5
122354.8
122700.4
122656.5
122609.5
122563.4
122526.4
122498.3
122486.5
122498.4
122537.2
122593
122636.4
122645.3
122612.6
122551.4
122476.4
122397.2
122325
122305
122360.9
122436.8
122492.8
122532
122553.7
122557.6
122538.4
122493.2
122424.2
122339.4
122254
122194.5
122178.2
122207.4
122266.6
122346.2
122412.3
122486.7
122695.8
122649
122595.7
122541.3
122498.6
122464.3
122449.5
122460.9
122499.5
122552.8
122590.4
122581.6
122541
122492.7
122442.9
122396.6
122363.6
122371.7
122414.3
122475.8
122542.5
122592.7
122624.3
122637.3
122620.4
122567
122477.5
122362.2
122244.4
122161.8
122143.2
122181.3
122249.4
122341.4
122405.9
122463.2
122694.9
122638.1
122585.6
122523.1
122470.9
122431.2
122411.6
122417.8
122450.1
122494.9
122509.5
122482.2
122449.2
122422.3
122403
122392.5
122395.7
122422.3
122471.2
122532.4
122587.3
122630
122655.4
122658.7
122628.5
122553.2
122434.7
122283.9
122130.1
122028.6
122024.2
122091.1
122190.8
122310
122379.7
122447.6
122705
122637.5
122570.4
122507.5
122448.6
122402
122374.3
122369.8
122388.4
122414.7
122402
122367.3
122344.8
122340.4
122348.9
122366.2
122391.7
122427
122471.1
122519.6
122565.7
122601.9
122616.5
122599.9
122546.8
122453.8
122324.8
122174.2
122031.1
121948.9
121966.3
122057.9
122183.2
122310.1
122403.9
122474.7
122724.3
122645.1
122569.2
122500.3
122434.2
122379.3
122341.6
122323
122322.5
122324.1
122296.7
122251.3
122235
122252
122287.7
122330
122373.4
122416
122456.7
122493.9
122524.7
122544.7
122547.2
122524.7
122471.7
122385.9
122273
122149.4
122043.3
121994.1
122026.9
122123.5
122246.4
122364.3
122455.4
122526.3
122745.1
122657.7
122576.1
122501.9
122429.3
122366.3
122318.3
122286
122267.1
122247.5
122208.6
122155.8
122136.3
122166.2
122226.7
122293.3
122354
122405.4
122446.9
122479.1
122501.4
122512.1
122507.4
122483.4
122437.2
122369.5
122287.3
122205.3
122143.9
122124.8
122162
122246.3
122350.3
122448
122527.3
122592.4
122766.7
122675.3
122591.6
122513.3
122435.1
122365.3
122308.7
122265.4
122232.7
122199.6
122153.7
122103.4
122080.6
122111.2
122182
122266.8
122341.8
122401.1
122444.7
122474.5
122492.2
122498.3
122491.6
122470.9
122435.6
122388.7
122337.3
122291.4
122264.2
122268.3
122308.7
122378.3
122460
122536.4
122602.2
122659.5
122793.7
122697.8
122619.7
122533.8
122451.7
122376.8
122314.4
122263.9
122223.3
122185
122140.9
122099.6
122080.9
122105.4
122176.3
122263.9
122344.3
122406.7
122450.9
122479.1
122494
122497.7
122491
122474.3
122449.1
122419.3
122390.9
122369.9
122364.7
122382
122424.2
122485.2
122553
122622.2
122668.1
122717.2
122824.9
122736.5
122645.7
122556.8
122475.1
122398.4
122333.1
122279.6
122236.1
122198.6
122162.5
122133.1
122124.4
122148.2
122207
122288.6
122365.8
122423.6
122463.8
122488.8
122501.5
122503.8
122497.6
122484.4
122466.5
122448
122433.6
122427.6
122434.5
122457.9
122499.6
122554.8
122612.3
122672.3
122722
122760.2
122859.3
122767.3
122678
122586.3
122503.8
122427.9
122362.1
122308.5
122265.7
122231.4
122204.5
122187.6
122188.6
122213.4
122262.7
122328.7
122396.2
122448.9
122481.9
122501.3
122511.1
122512.6
122507.1
122496.5
122483.7
122472.2
122465.8
122468.5
122482.3
122509
122549.4
122599.2
122652.9
122710.3
122755.6
122789.1
122810.7
122712.1
122619.6
122538.9
122464.8
122398.8
122345.5
122304.6
122274.2
122253.9
122245.9
122253.6
122278.7
122320.8
122373.7
122427
122471.2
122499.9
122514.8
122521.2
122522.2
122518.1
122510
122500.6
122493.4
122491.3
122498.5
122515.9
122545.1
122585.2
122631.2
122680.3
122733.3
122778
122843.4
122742.2
122664.2
122579.8
122507.5
122441.6
122387
122346.9
122319.6
122302.8
122298.2
122308.4
122333
122369.8
122413.1
122455.1
122488.9
122512.3
122525.8
122531.5
122532.3
122530
122524.7
122518.5
122514.6
122515.8
122525.6
122545.1
122575.8
122614.8
122657.1
122707.2
122748
122793.1
122884.8
122787.6
122699.6
122620.9
122547.9
122485.8
122431.1
122390.1
122362.9
122347.3
122343.5
122353.6
122376.4
122408.5
122444.7
122478.6
122504.6
122522.1
122533.4
122540.2
122543
122542.7
122540.7
122538
122537.7
122542.4
122554.4
122575.6
122606.1
122640.1
122679.8
122724.5
122768.8
122812
122839.4
122745
122672.8
122594.5
122529.9
122476.8
122434.4
122405.2
122389.4
122385.3
122393.2
122412.9
122440.5
122470.9
122498.8
122519.7
122533.1
122541.7
122548.3
122553.6
122556.8
122558.2
122559.8
122563.9
122572.8
122587.3
122608.9
122636.4
122668.9
122709.5
122744.4
122788.7
122793.5
122710.5
122647.4
122578.5
122525.5
122481.7
122449.6
122431.6
122425.9
122430.6
122446.2
122469.3
122495.2
122518.5
122535.7
122546.6
122553.6
122559.7
122565.9
122572.3
122578.5
122584.9
122593.9
122607
122624.7
122647.2
122672.6
122705.4
122730.5
122757.4
122838
122758.4
122683.7
122633.1
122573.9
122530.3
122497
122476.3
122467.3
122468.7
122479.7
122498.2
122519.8
122539.5
122554.1
122563.5
122570
122576.2
122583.2
122591.7
122602.3
122613.8
122627.4
122643.8
122663.5
122686.3
122714.9
122734.1
122759
122784.6
122810.9
122737.7
122670.9
122628.7
122579.5
122545.3
122524.1
122511.5
122509
122515.9
122529.6
122546.8
122563.2
122575.9
122584.7
122591.7
122599
122607.2
122617.3
122630.1
122645.1
122662.3
122681
122701.5
122728.2
122744.9
122765.6
122782.2
122783.5
122721.2
122665.4
122630.8
122591.7
122567.3
122555
122550.3
122553.9
122563.9
122576.8
122590
122601.3
122610.5
122618.9
122627.5
122636.6
122647.8
122661.5
122677.6
122695.2
122716.1
122742.1
122757.7
122779.3
122790
122765.2
122713.2
122665.3
122640.9
122610.5
122596.5
122590.4
122592.2
122600.5
122610.3
122621.3
122631.9
122641.3
122650.3
122659.7
122669.6
122681.6
122695.5
122712.1
122730.6
122756.2
122773
122794.5
122808.8
122756.8
122704.4
122678.9
122653.5
122639.9
122627.5
122627.8
122634.3
122644
122653.7
122663.8
122673.4
122683.1
122693.5
122703.9
122716
122730.5
122751.9
122770
122790.5
122807.6
122827.8