/*--------------------------------*- C++ -*----------------------------------*\
  =========                 |
  \\      /  F ield         | OpenFOAM: The Open Source CFD Toolbox
   \\    /   O peration     | Website:  https://openfoam.org
    \\  /    A nd           | Version:  6
     \\/     M anipulation  |
\*---------------------------------------------------------------------------*/
FoamFile
{
    version     2.0;
    format      ascii;
    class       surfaceScalarField;
    location    "50";
    object      phi;
}
// * * * * * * * * * * * * * * * * * * * * * * * * * * * * * * * * * * * * * //

dimensions      [1 0 -1 0 0 0 0];

internalField   nonuniform List<scalar> 
403053
(
7.962049
-0.2467966
-7.715253
8.606655
4.920631
-5.565237
7.488613
6.02854
-4.910498
6.993419
0.4951936
7.887749
-2.824355
-5.063394
9.704445
1.274886
-3.091582
13.86348
4.15942
-8.56525
14.0869
6.828661
-2.131451
12.69968
8.383828
-0.9680659
10.34925
8.612152
0.7316923
7.40049
7.710732
-4.76197
7.199151
0.2013388
3.638851
-3.944135
0.3052838
6.344557
-5.22228
2.516574
10.21744
-4.392604
-2.304633
13.37225
-0.9902466
-0.8896808
15.04689
3.437509
-0.9527266
15.21668
6.904192
-0.2453178
14.38214
8.958129
0.2602364
12.67416
9.798701
0.5214265
10.41345
9.743592
0.2278569
8.266634
8.917422
0.4285414
5.401088
7.682993
-4.817447
5.897012
-0.4959242
1.805628
-3.74128
1.935652
1.763894
-6.871219
2.968818
3.362909
-8.193523
1.372228
5.713696
-7.670953
0.9275617
8.861119
-5.014846
0.8771755
11.08586
0.1728866
1.039883
11.52089
5.050721
1.418439
11.22662
7.652127
1.600274
10.37458
8.989578
1.661157
9.098307
9.372138
1.647731
7.35613
9.205267
1.454332
5.441407
8.635008
0.9627078
4.017204
6.93543
0.3857843
3.729507
0.2876975
-2.78313
-3.994644
3.036494
-3.805917
-8.398895
2.550463
-3.983767
-9.969285
1.953612
-3.421893
-9.926944
1.694118
-1.691185
-8.44725
1.701696
1.087729
-4.93155
2.325523
3.118267
0.230177
2.790006
3.635586
4.282088
2.852721
3.632838
6.167382
2.824944
3.281593
6.986777
2.736606
2.81531
7.201611
2.46994
2.514631
6.851935
2.083751
2.279453
5.5957
1.574909
2.912288
3.096671
-1.992436
-2.834812
4.827247
-7.459897
-6.739068
8.211886
-9.55094
-9.58511
3.277258
-10.77813
-11.15625
2.414158
-11.4511
-11.41849
2.164505
-11.66927
-10.45641
2.227334
-10.9265
-8.22432
2.549999
-8.646274
-4.938492
2.888447
-6.264683
-1.239896
3.140393
-4.725984
1.505587
3.123096
-3.597319
2.925198
2.932914
-2.384912
3.37873
2.610474
-0.7449449
3.05127
2.160697
1.535935
1.827926
1.486894
2.764818
-0.0619529
1.745358
-0.2617271
3.026545
-6.818581
-2.488039
6.471809
-10.06028
-7.792552
4.295183
-12.0646
-10.79782
3.217027
-13.31634
-12.51483
2.610322
-14.14973
-13.04813
2.463034
-14.6636
-12.53352
2.59097
-14.66198
-11.07143
2.845481
-13.81841
-8.919791
3.137732
-11.92044
-6.509723
3.371863
-9.476925
-4.395445
3.457513
-6.830071
-3.12263
3.400974
-3.818056
-2.826449
3.193163
-0.5675887
-3.14403
2.944833
2.238244
-3.890692
2.912785
3.073891
-4.394812
3.497212
-2.762791
5.574955
-1.628131
-1.61238
3.240511
-7.367174
-4.987735
8.23874
-10.25798
-8.999348
4.097597
-11.97724
-12.18635
3.107797
-12.9497
-14.11186
2.569487
-13.47893
-14.91195
2.393053
-13.62779
-14.82157
2.436916
-13.35489
-14.00358
2.659253
-12.56827
-12.69049
2.984076
-11.19788
-11.15659
3.276485
-9.259486
-9.792222
3.458381
-7.129565
-8.71556
3.463009
-5.060133
-8.225637
3.329756
-3.329089
-7.998902
3.123828
-2.132627
-8.016629
2.929475
-1.586933
-7.81422
2.873714
-2.175753
-6.577419
4.403448
-4.477126
2.301373
-3.257183
-1.789803
3.434606
-6.803517
-5.398152
3.95675
-9.599495
-9.82639
3.62302
-11.3958
-13.38595
2.995916
-12.41781
-15.54657
2.456711
-12.92413
-16.53157
2.125945
-13.06239
-16.6398
1.956476
-12.89178
-16.19342
2.019228
-12.46794
-15.25514
2.140811
-11.77113
-14.17259
2.319191
-10.93896
-13.05187
2.427472
-10.05878
-12.062
2.466261
-9.281393
-11.3854
2.38238
-8.584049
-10.93336
2.237111
-7.959623
-10.58074
1.939687
-7.169133
-9.906163
1.301453
-5.377256
-8.250224
-0.1190726
-5.322718
-4.531664
-1.613362
-1.190757
1.014316
-4.845271
-4.981859
2.815616
-7.914185
-9.982701
3.225225
-10.14907
-14.13402
2.98295
-11.5509
-16.63518
2.490444
-12.30712
-17.79703
2.021677
-12.68161
-17.9562
1.690894
-12.8093
-17.66601
1.600277
-12.81296
-16.8646
1.613128
-12.76912
-15.91895
1.702506
-12.66711
-14.88755
1.73368
-12.5587
-13.93186
1.761445
-12.46183
-13.12768
1.645401
-12.37585
-12.47891
1.459576
-12.14489
-11.79608
0.9843778
-11.24311
-10.63227
-0.1756752
-8.445801
-8.391309
-2.656223
-4.801589
-8.96693
0.579811
-1.770568
-1.256111
-2.356422
-0.7895142
-4.520168
-8.838919
2.120275
-7.521494
-13.94308
2.810388
-9.695583
-17.04842
2.587327
-11.01219
-18.54319
2.06277
-11.77759
-18.80831
1.617499
-12.36793
-18.4628
1.387137
-12.76228
-17.78206
1.311813
-13.14239
-16.86767
1.32883
-13.54915
-15.83369
1.352905
-13.94343
-14.8452
1.307628
-14.29153
-13.93348
1.153901
-14.54476
-13.08038
0.8547018
-14.35859
-12.03161
0.04935727
-12.74038
-10.1839
-2.066583
-4.972007
-4.264079
-11.8956
-9.773596
3.957664
-0.962264
-5.351822
1.018014
-6.260173
0.3609042
-3.080908
-11.94233
2.098172
-6.478043
-16.15934
2.508059
-8.784586
-18.38971
2.153058
-10.17573
-19.05001
1.632842
-11.15513
-18.79093
1.307525
-12.02947
-18.124
1.216281
-12.84627
-17.23937
1.188495
-13.59703
-16.21568
1.132754
-14.30772
-15.1598
1.025285
-14.93401
-14.13459
0.8274069
-15.30542
-13.05463
0.3456637
-14.82138
-11.60276
-0.9128947
-12.04925
-9.159818
-3.796219
-4.670881
-11.64245
5.62482
-6.587084
6.999821
-1.335203
-6.299971
3.086682
-8.464712
0.4355217
-1.693829
-13.37261
1.993776
-5.415442
-16.80087
2.132776
-7.82953
-18.31797
1.682052
-9.4161
-18.47468
1.27032
-10.69925
-17.96513
1.12428
-11.83882
-17.15499
1.055193
-12.88226
-16.15568
0.9834493
-13.80945
-15.06717
0.8345628
-14.52799
-13.93016
0.5140984
-14.77968
-12.55969
-0.2432459
-13.61091
-10.49376
-2.277761
-5.981754
-4.337627
-12.45135
-10.65263
9.912039
-1.12829
-10.11895
8.632484
-5.399663
-1.785495
4.06289
-9.52856
0.7255455
-0.8964944
-13.50167
1.660184
-4.612112
-16.21279
1.610438
-6.985437
-17.32116
1.219806
-8.779508
-17.26344
1.092384
-10.2764
-16.63483
0.9767364
-11.51892
-15.73524
0.8220748
-12.52054
-14.5794
0.5138492
-13.11843
-13.27146
-0.06079784
-12.99478
-11.5356
-1.147755
-10.92431
-9.027729
-3.536496
-4.578293
-10.68365
7.378357
-8.506647
10.52104
-0.1658338
-8.376514
8.127327
-5.712428
-1.422416
3.909871
-9.245721
-0.0384909
-0.6531876
-12.53188
0.8821418
-4.005115
-14.87395
0.9047155
-6.352222
-15.73932
0.8229821
-8.098262
-15.51979
0.6309987
-9.453257
-14.65923
0.2789861
-10.35883
-13.28785
-0.3859778
-10.48099
-11.52317
-1.626133
-9.881759
-9.117614
-3.017215
-4.805422
-3.702799
-10.40127
-9.383715
7.400717
-7.566551
6.474034
-4.785745
6.618296
-1.947674
-7.442309
3.09336
-7.826364
-1.180575
-0.5316635
-10.86814
-0.3807824
-3.468701
-12.84674
0.04445731
-5.427517
-13.25837
-0.3026051
-6.572169
-12.24345
-1.271129
-7.146085
-10.19909
-2.514845
-4.213172
-4.8982
-9.557884
-4.786105
-8.544681
-8.488904
5.046919
-6.994593
2.937664
-5.717109
2.277967
-3.458367
-6.750077
-0.5107578
-8.227488
-1.830526
-2.528596
-9.022277
-2.218256
-1.354885
-5.564388
-7.852775
-2.843336
-8.710641
-7.741536
2.646107
-6.104474
1.213467
-6.794848
-0.2388753
-7.569935
-5.803263
0.2274858
3.240792
-3.468277
0.8635104
5.632444
-6.268469
1.171829
6.859727
-7.168045
1.241411
8.012625
-8.082207
1.209122
9.247074
-9.214784
1.193111
10.60776
-10.59175
1.236647
12.06575
-12.10929
1.326381
13.27314
-13.36287
1.405639
13.43169
-13.51095
9.76108
-8.355441
1.570218
1.161765
-2.731983
2.762449
1.990996
-3.183227
5.755386
3.007783
-2.759928
7.045542
4.353526
-0.01123771
7.639688
6.248078
0.01750232
7.377306
8.488389
-0.213383
6.681956
10.41656
-0.4741348
5.934741
12.15413
-0.7991554
5.284157
13.96187
-1.245535
4.666696
15.69911
-1.80851
3.997814
16.75875
-2.658173
5.884253
16.3706
-8.495958
3.426869
14.33959
-11.88221
10.03773
-6.610857
3.433936
-1.396812
-2.037124
8.001393
-1.367479
-2.038213
11.47963
-1.706241
0.2190044
14.60055
-0.5476826
0.4345407
16.58872
1.892667
0.4726898
18.85417
3.813273
0.1693592
16.98457
10.26621
0.09178397
15.75804
11.32914
0.3139397
14.13187
13.1921
0.5881996
13.15081
14.1245
0.818428
10.14458
17.83976
0.8655744
8.972357
17.44694
0.4840372
7.814022
18.09446
-0.5655214
6.26807
17.54599
-1.660447
6.739495
15.27652
-5.710214
10.46759
-3.728092
4.109128
-2.568151
-1.540977
8.49542
-4.094442
-1.688662
12.78387
-5.561962
-0.09396502
16.69758
-5.444966
-0.1749843
22.07865
-5.129061
-0.799698
23.31296
1.810758
-1.152394
24.66411
3.939611
-1.477488
25.40193
3.439039
-1.625908
24.23794
7.554448
-0.6265508
21.868
10.1319
0.5196458
15.60268
19.07514
1.809876
16.242
15.43115
1.769284
15.39855
17.06881
1.221584
12.14444
20.48473
0.8638348
10.57269
18.6491
0.4686403
8.606717
17.58647
-0.3439831
7.800337
14.47568
-3.201713
9.734383
-1.934046
3.551488
-2.187539
-1.363949
6.862335
-4.813577
-1.06542
10.29236
-7.608261
0.08379065
15.06161
-10.26172
-0.06949635
17.75899
-8.025676
-0.11667
19.98604
-6.552539
-0.8035695
26.29882
-7.730087
-1.835324
29.57456
-0.4807064
-1.947009
22.78908
3.718359
-2.059091
21.73497
7.201974
-0.7248641
20.46011
9.785232
0.6534558
26.341
12.06095
1.864997
21.75484
13.52867
1.726667
14.7152
21.98054
2.329244
16.06579
17.52979
1.604351
15.37972
18.36295
0.97223
11.92474
20.09061
0.950841
9.615544
16.21104
0.5738367
7.903081
12.48764
-1.040792
8.18652
-0.2834393
2.571313
-0.4745177
-2.096795
5.042895
-3.648198
-1.010923
6.994576
-7.411198
0.6459405
9.813885
-11.0623
0.6347309
9.324206
-10.51503
0.7429911
14.86078
-14.09784
0.8408707
19.51616
-9.648198
0.9568572
16.56062
-7.378317
0.2991333
18.53926
-3.302599
-0.04642822
19.59076
1.931861
-0.2177259
19.66125
6.388401
0.4977649
19.00613
9.281607
1.418983
18.12476
11.22121
2.242529
16.86441
12.44304
2.573842
22.51567
13.88719
2.870632
18.20095
14.87706
2.150003
12.28063
21.36869
2.418654
14.84965
15.43441
2.087173
11.63812
17.42634
1.996226
9.478975
12.993
1.653781
7.314588
8.951601
1.399306
5.141386
2.173201
3.912023
-1.828116
-2.558424
4.677938
-5.265965
0.8518518
4.557839
-8.763962
1.472863
3.159953
-11.16921
1.504796
6.205359
-13.76844
2.143657
4.018133
-11.58418
2.642387
4.449638
-11.42791
2.72043
5.85087
-10.37527
2.52328
8.595146
-7.579496
2.409796
11.51455
-2.310405
2.362744
12.92736
3.825971
2.568065
13.38885
7.356762
3.063621
13.23397
9.517273
3.519977
12.64831
10.81489
3.861548
12.05133
11.94136
3.99714
11.44565
12.72657
3.718875
15.90455
13.69619
3.599388
11.494
16.60923
3.523435
11.9751
13.60508
3.340157
11.36462
10.58111
3.022371
9.397807
7.507615
3.410796
5.982436
8.556757
2.412472
0.6464293
-3.058901
3.85382
-1.88676
-1.382704
2.661401
-5.752246
1.678699
0.5131746
-9.106064
2.490328
-2.769479
-10.98404
3.097484
-3.776439
-13.72912
4.004134
-5.011357
-12.20833
4.409527
-5.8058
-13.02634
4.346489
-5.85979
-12.87676
4.249602
-4.868023
-11.23529
4.365726
-1.860719
-7.857884
4.865697
1.686266
-2.055373
5.124365
3.658758
3.034011
5.202981
4.72173
6.027681
5.251564
5.320496
7.636531
5.316195
5.694581
8.830428
5.206788
6.100796
9.497512
4.906593
6.93427
9.859644
4.57798
9.706287
12.31179
4.622093
13.34827
5.791697
4.171401
13.59404
5.854252
4.481098
13.38081
2.697087
5.023757
8.740565
0.859133
9.763547
0.7095863
8.030979
4.16908
0.7207195
-4.24337
3.441503
-1.712581
0.5533971
-0.1684463
-4.757695
2.615399
-6.203203
-6.6094
3.538093
-7.765465
-9.440392
4.84586
-9.166149
-10.29823
6.181677
-11.3459
-12.68938
5.938059
-13.08198
-14.3874
5.511298
-14.26387
-14.86895
5.338583
-14.79248
-13.94399
5.464648
-14.37554
-11.56017
5.835343
-11.85547
-7.926914
6.239921
-8.369228
-3.723002
6.411164
-5.416867
-0.1699779
6.368395
-3.209932
2.174608
6.187902
-1.17347
3.477537
5.926902
1.112254
3.80782
5.564666
4.06815
3.139351
5.251291
11.42345
1.202907
5.498939
14.98018
-1.190795
6.452307
16.34013
-2.553193
7.04749
15.86314
-4.029406
7.203486
12.12419
-3.784302
8.382389
-2.064323
14.8981
4.80583
1.081127
-5.166238
2.91184
-0.6102988
0.791708
-2.351494
-2.657838
3.163477
-8.090737
-5.479635
4.609478
-9.042747
-8.326585
6.310012
-11.42931
-10.49137
6.874889
-13.69794
-13.67751
6.473788
-15.52666
-15.92769
5.979326
-16.84334
-16.85337
5.764137
-17.6311
-16.44396
5.878702
-17.72017
-14.85055
6.22493
-16.78355
-12.38103
6.655227
-14.62561
-9.526982
7.017905
-11.58198
-6.951948
7.195852
-8.183686
-5.010128
7.187417
-4.576568
-4.020327
7.083909
-0.9359078
-3.883406
6.995399
2.339885
-4.43829
7.214633
4.79926
-5.563994
7.804739
10.18325
-9.272478
8.272646
9.767931
-9.443796
7.305923
8.775423
-9.902356
6.865458
6.279742
-7.533077
6.244456
-4.159779
8.375199
5.808372
1.685728
-6.412973
3.557621
1.161205
0.4792478
-2.517959
0.2702118
3.14753
-6.934306
-2.823227
5.00045
-8.105981
-6.026182
7.110013
-10.93192
-10.73895
7.171115
-13.35841
-14.7714
6.628183
-15.13885
-17.58185
6.004082
-16.27745
-18.93558
5.613866
-16.84528
-18.98226
5.543053
-16.78976
-18.0003
5.753484
-16.02031
-16.30576
6.139354
-14.49732
-14.31333
6.539838
-12.38543
-12.43829
6.832834
-9.958861
-10.92528
6.951597
-7.561964
-9.99736
6.909892
-5.537333
-9.540387
6.756179
-4.050547
-9.537745
6.542144
-3.146406
-9.89441
6.299989
-3.665567
-10.53541
6.185542
-1.350575
-14.03232
4.574909
-2.34743
-12.26478
3.359277
-2.571292
-9.098235
1.78902
-4.816471
-1.914601
7.706248
2.203453
-8.223973
6.59971
2.706978
-0.4392351
1.508862
2.873406
2.487654
-2.439214
-0.1735299
4.732985
-5.768789
-5.210133
6.470277
-9.221525
-10.67863
7.015432
-12.09426
-15.55633
6.653589
-14.16813
-18.99589
5.944621
-15.49248
-20.78907
5.303776
-16.24884
-21.18521
4.915783
-16.47684
-20.59134
4.838265
-16.28363
-19.32276
4.964597
-15.68958
-17.76162
5.17344
-14.86793
-16.16746
5.334991
-13.93654
-14.76791
5.377505
-13.08284
-13.72632
5.257642
-12.31612
-13.02864
4.958646
-11.71254
-12.6056
4.403965
-11.37481
-12.3732
3.442509
-11.49266
-12.45988
1.923246
-14.38291
-15.72734
0.05360889
-12.45443
-13.0323
-1.160969
-9.713733
-9.389455
-2.449474
-5.022048
-9.508156
10.18915
2.433902
-10.4196
11.03682
3.536991
-1.677682
8.189306
4.584527
1.13639
2.958155
2.506727
3.56521
-1.524302
-3.181393
5.269332
-5.904321
-9.538022
6.464638
-9.554424
-15.55002
6.626741
-12.31574
-19.76349
6.019367
-14.2017
-22.08743
5.205993
-15.45148
-22.78702
4.542492
-16.21737
-22.42132
4.196144
-16.68314
-21.34443
4.100569
-16.92534
-19.94939
4.132472
-17.03982
-18.46518
4.14587
-17.04269
-17.07222
4.068631
-17.01781
-15.9003
3.794505
-16.90709
-14.95733
3.277536
-16.70131
-14.17979
2.352786
-16.48188
-13.55475
0.7864434
-16.82486
-13.30025
-1.472872
-22.14015
-15.94856
-3.430417
-18.5298
-12.50819
-4.134464
-13.6269
-9.23989
-5.052468
-4.938362
-13.71058
12.55906
2.384106
-12.50927
15.38279
3.594063
-2.880796
15.53992
4.833068
-0.4056733
13.32301
1.106952
1.846118
5.50343
0.6068617
3.24181
0.1691367
-7.155456
5.072002
-4.906377
-13.85166
6.187537
-8.858506
-19.30056
6.076529
-11.7234
-22.45081
5.291044
-13.7249
-23.6139
4.445873
-15.17127
-23.45353
3.865717
-16.2546
-22.53075
3.581462
-17.13132
-21.2064
3.462567
-17.87927
-19.72734
3.363012
-18.50527
-18.29076
3.152164
-18.99424
-16.98168
2.724246
-19.26724
-15.80537
1.975747
-19.29826
-14.75399
0.6545733
-19.45109
-13.93216
-1.536347
-24.85274
-15.4262
-4.367996
-26.86768
-18.48058
-5.226637
-21.08508
-12.6659
-5.624882
-15.3038
-8.64544
-6.375729
-4.566163
-15.676
14.19565
2.148621
-13.96016
18.53921
3.079034
-3.82853
21.44397
3.392919
-1.464614
19.04202
3.516794
-0.00788974
13.01449
0.3938518
0.8887125
8.245439
-4.925139
2.899642
2.369471
-10.77818
4.900664
-3.34402
-16.81271
5.733698
-7.741077
-21.26066
5.359956
-10.85594
-23.37056
4.504375
-13.09759
-23.65847
3.754114
-14.82952
-22.91556
3.333018
-16.2614
-21.68022
3.094197
-17.48901
-20.2469
2.879918
-18.53907
-18.77251
2.557094
-19.35794
-17.33944
2.004033
-19.87695
-15.97656
1.035863
-20.13628
-14.76673
-0.6408184
-20.73162
-13.95886
-3.174173
-25.98526
-16.25621
-5.558798
-25.38972
-13.48412
-5.591991
-21.02794
-11.3556
-5.672075
-15.29714
-7.802038
-6.574206
-4.051179
-15.81212
14.48107
1.715633
-14.04808
20.15674
2.195054
-4.791692
23.31466
2.629229
-2.394229
26.17314
2.571613
-1.913299
25.13645
-4.111129
-1.045406
15.35113
-1.594746
0.1549473
10.22771
-7.872596
2.653367
4.024906
-13.12609
4.509952
-2.08875
-18.11061
5.096384
-6.806423
-21.5286
4.557763
-10.10259
-22.83474
3.742756
-12.52736
-22.56622
3.199718
-14.4635
-21.5398
2.850915
-16.07859
-20.1941
2.545734
-17.42695
-18.71985
2.130269
-18.47487
-17.22501
1.447594
-19.2029
-15.76237
0.2705799
-19.91695
-14.57047
-1.759973
-25.82272
-15.92399
-4.580443
-28.53777
-18.6599
-5.533899
-23.32767
-13.28187
-5.412356
-19.49012
-10.17943
-5.013731
-13.70499
-7.027217
-6.559942
-3.356458
-14.39971
10.44541
-8.729778
19.75892
4.383931
-11.50239
24.339
1.687559
-3.638404
28.93557
0.865486
-2.890445
27.19789
0.1528201
-2.526271
20.39762
-2.655185
-2.258238
16.22967
-5.736297
0.2461578
10.94609
-9.749731
2.632771
4.595093
-14.11252
4.013091
-1.571872
-18.07148
4.320284
-6.249385
-20.64877
3.711345
-9.486765
-21.32775
3.091289
-11.92944
-20.73984
2.619457
-13.85995
-19.62535
2.183841
-15.4233
-18.262
1.61935
-16.6467
-16.82967
0.7672571
-17.6038
-15.42934
-0.5236818
-18.75758
-14.42099
-2.532193
-24.06984
-16.65073
-4.644654
-24.09248
-13.85628
-4.780977
-20.72375
-11.96325
-4.687348
-16.88725
-9.023946
-4.991981
-7.124599
-2.759758
-14.03011
-10.48106
17.24918
1.604844
-14.47009
23.12349
0.7571762
-4.943928
27.08506
0.3474303
-3.443519
31.10838
-0.2800997
-3.590394
29.78895
-6.799332
-3.043071
20.39927
-3.103598
-1.61953
15.98164
-7.376555
0.6220299
10.42922
-10.80217
2.203583
4.119429
-14.15008
3.270528
-1.681022
-17.28929
3.345695
-5.902427
-19.11234
2.828981
-8.854839
-19.32459
2.168159
-11.08511
-18.61908
1.502985
-12.87544
-17.55159
0.6939444
-14.3679
-16.52935
-0.433993
-15.70901
-15.43119
-1.674252
-20.34211
-16.87884
-3.310318
-24.2976
-17.93611
-4.142843
-20.05462
-13.91657
-4.182693
-17.21546
-10.79695
-4.00546
-13.1138
-7.831732
-5.293867
-3.625656
-12.2479
11.0802
-9.475358
19.93657
3.340236
-11.43943
25.07278
-0.1887679
-4.600009
29.91084
-1.301919
-3.816242
28.29555
-2.082944
-3.101101
28.20642
-8.456196
-2.124824
24.62792
-7.84684
-0.7369514
14.46933
-8.158651
0.07276022
8.824076
-11.15296
1.46756
3.060664
-14.03325
2.126581
-1.95612
-16.21393
2.162825
-5.532929
-17.40778
1.357391
-8.06702
-17.62388
0.2677597
-10.17101
-17.15501
-0.8074367
-13.88566
-20.27941
-2.093173
-16.42812
-18.71862
-2.714797
-18.77194
-19.88727
-3.136656
-17.9137
-15.41785
-3.376497
-15.85596
-12.30186
-3.672461
-13.00326
-9.204845
-4.444805
-5.956767
-3.227143
-11.65108
-9.582423
12.17885
-8.838614
20.55169
2.95825
-11.51986
24.80543
-1.208879
-4.346783
28.1777
-2.512714
-2.942496
25.73718
-4.259771
-1.755909
24.31617
-5.194343
-1.231483
20.92448
-10.98869
-0.7728657
14.90829
-10.87616
0.02228342
6.980335
-13.17819
0.3228271
2.013214
-13.86374
0.7864119
-2.028209
-15.78625
0.201642
-4.757281
-21.59766
-1.14992
-8.932893
-19.66662
-2.023424
-13.47011
-21.21905
-2.264675
-11.67228
-18.22465
-2.291799
-13.35166
-15.67493
-2.532971
-12.66314
-13.21847
-2.887894
-10.94055
-10.19472
-3.829729
-5.306638
-4.170869
-10.66788
-8.533781
12.06869
-9.110442
19.71789
2.397349
-11.25543
22.67613
-1.94202
-3.528931
23.18214
-3.006697
-1.759086
23.73853
-4.465376
-1.285356
19.88308
-6.428602
-0.70464
17.77595
-8.289468
-0.47956
12.29146
-13.43744
-0.3607393
6.920173
-14.97713
-0.3101761
1.485565
-17.29496
-0.6266231
-5.692805
-19.12111
-1.101445
-4.788009
-18.97504
-1.596378
-7.119418
-16.95141
-1.936225
-8.117176
-15.32797
-1.898917
-8.481873
-13.30662
-2.003605
-7.936488
-10.72541
-3.038447
-3.686097
-5.062142
-9.382974
-7.856966
11.20515
-8.8078
17.29484
1.928055
-9.959771
19.1272
-2.29014
-2.548912
19.45412
-3.226443
-1.565857
18.16033
-4.444652
-0.6901566
16.72976
-6.258707
-0.6001963
12.30478
-8.519016
-0.4934437
8.698747
-10.71748
-0.6536175
5.015186
-12.63076
-0.9806346
1.278301
-14.04534
-1.338884
-1.814441
-14.45095
-1.431349
-3.339049
-13.86381
-1.562998
-4.275155
-12.38758
-2.004284
-4.649296
-10.12903
-2.803455
-1.837156
-5.43089
-8.106664
-6.899298
9.790405
-7.86235
11.41306
-3.912795
14.67959
1.467153
-7.960126
14.493
-2.851092
-1.406974
13.19519
-4.08548
-0.8754128
11.03375
-5.395375
-0.9622062
8.480568
-6.856628
-1.307663
5.844527
-8.272852
-1.721867
3.276195
-9.38418
-2.092828
1.053242
-9.907149
-2.320844
-0.5842575
-9.526387
-2.699921
0.4673073
-6.21114
-7.228007
-1.119859
-8.541861
-6.550749
8.16925
-6.702096
8.77219
-3.454032
8.306319
-3.619609
7.332671
-4.421727
6.064947
-5.588904
4.63311
-6.841014
3.237691
-7.988761
1.969978
-8.639437
0.9151387
-8.471547
-5.296001
-2.819707
9.871191
-7.051484
-3.119367
14.30955
-14.00989
-3.073162
16.13966
-16.18587
-2.944252
17.27634
-17.40525
-2.703644
18.03186
-18.27247
-2.255837
18.23879
-18.6866
-1.693421
17.20093
-17.76335
10.56932
-12.26274
-3.26154
8.79929
-5.53775
-4.169992
12.99487
-12.08642
-6.635564
15.36974
-12.90416
-4.275698
18.11461
-10.60328
-4.402857
20.41675
-5.980041
-4.205765
22.10229
-6.159724
-3.900843
23.69452
-6.723098
-3.511015
25.16324
-7.521209
-2.991511
26.27368
-8.554399
-2.366354
26.56912
-9.993343
2.583563
25.26958
-19.65018
0.1865682
22.56202
-20.16503
0.5344723
18.95557
-19.30347
11.49461
-10.96013
-5.554883
9.729066
-4.174183
-4.494149
14.19234
-6.45378
-5.802798
17.89019
-3.586675
-5.64322
18.8015
-3.591342
-5.008858
20.99119
-3.510948
-4.438051
23.16305
-3.317111
-3.895923
25.20419
-3.644021
-3.34042
27.44111
-4.302097
-2.756137
29.82628
-5.247323
-2.098364
32.05991
-6.443995
-1.220626
33.55031
-7.858928
0.06243469
33.4826
-9.49608
0.7625955
32.18559
-10.32373
0.7269455
29.54285
-10.55163
4.687001
23.32309
-15.78853
14.4797
-9.792703
-3.080188
7.808899
-4.72871
-5.65172
11.21698
-8.645447
-5.009159
14.66102
-5.574512
-4.624435
15.66703
-1.859423
-1.072904
15.12275
-0.7840845
-3.147357
17.5355
-0.1278191
-2.690171
14.56283
-0.2972873
-2.10386
15.88884
-0.4801464
-1.569264
17.5291
-0.9417152
-1.011522
19.37154
-1.702956
-0.3612353
21.33469
-2.750446
0.3562097
23.25355
-4.020382
1.057307
24.86095
-5.374614
1.506574
26.09501
-6.572631
-3.375649
35.78701
-7.074637
3.084733
31.06175
-7.979286
4.170005
31.07061
-8.832798
6.973621
26.69706
-15.02097
3.45435
18.60861
-15.08934
10.96833
-7.513977
-3.741778
7.548262
-3.806485
-2.636785
11.52951
-4.825603
-3.276598
13.45451
-1.597717
-0.2770325
12.2068
-0.5453471
-0.5180021
12.52241
0.6536103
0.3306803
9.682148
1.40869
2.968708
9.980215
2.157325
3.588891
11.22925
2.702162
3.755624
12.90937
2.830247
3.528804
14.86907
2.673465
3.254987
16.89564
2.275583
3.171548
19.00665
1.612328
3.335495
21.16338
0.6806906
3.626044
23.2256
-0.4637054
3.910944
24.95294
-1.800998
8.652995
26.19107
-3.642065
6.41391
26.4935
-5.074871
1.567991
34.87262
-5.566952
6.880135
27.53936
-6.154449
5.194915
26.21996
-5.926135
6.216075
18.199
-8.251832
10.68795
-4.471871
-2.737496
6.428202
-3.690706
-1.296156
10.42556
-4.318636
-1.052863
12.35691
-1.070696
1.909658
10.26487
0.2271151
2.882125
7.843257
1.353951
6.28778
4.849186
2.229356
8.88913
4.320681
2.97912
10.89659
4.900707
3.506594
11.91241
6.756172
3.929934
11.74712
9.110953
4.133063
10.7675
11.6339
4.306575
9.484675
14.04141
4.450998
8.284863
16.36245
4.432208
7.515881
18.6438
4.106991
7.207322
21.02173
3.378002
7.056474
23.30388
2.283941
7.096047
24.90191
0.6840649
7.137976
25.58368
-0.7925559
12.4135
26.18261
-2.295727
5.09588
33.88078
-2.751892
9.28359
24.98144
-2.949186
6.721521
23.43092
-2.669856
6.367478
15.07428
-4.032294
7.887752
-1.520274
0.2788229
7.836412
-1.687033
0.7704439
11.04892
-1.114982
3.692298
9.250096
0.184963
6.382482
4.637249
1.396464
9.609202
0.7559986
2.171877
13.06133
-1.3365
2.639595
16.45047
-2.003218
2.759773
18.91988
-1.007358
2.638959
20.30988
1.546715
2.667064
20.17749
4.886536
2.879312
18.71926
8.06364
3.40259
16.74191
11.12264
4.269565
14.6786
13.81216
5.133248
13.02721
16.44048
5.664586
11.75448
18.57875
5.484985
10.77804
20.72255
4.779352
10.14233
22.7364
3.665053
9.582826
24.0953
2.516522
9.573255
24.7075
1.140702
15.60368
24.68329
-0.03465143
7.961857
30.92678
-0.2375627
10.92932
20.84464
-0.3811825
7.116255
18.62237
0.2649774
10.88744
4.116571
-0.7487826
6.214022
-5.465239
2.491794
10.00516
-5.409326
4.897019
9.157236
-0.5135416
7.608312
4.043679
1.131176
9.85969
-0.7939153
2.114366
12.48043
-4.359448
2.5785
15.04586
-6.508266
2.536839
17.79216
-7.044541
2.178351
20.42987
-6.071139
1.622501
22.5876
-3.560025
1.113682
23.7031
0.7529187
1.071116
22.79096
5.281559
1.635123
21.19671
9.046981
2.945047
19.31831
11.94118
4.402836
17.77684
14.25019
5.596757
15.83499
16.15151
6.09576
14.3619
18.37807
6.146814
13.09279
20.11763
5.492232
11.9498
21.55593
4.654591
11.34715
22.53922
3.721771
11.27933
22.57541
2.749537
17.36972
21.70756
2.088038
10.05342
25.81678
2.060729
11.54699
15.13776
1.99104
7.900763
12.7916
1.742056
6.856205
1.044557
0.2839419
5.292362
-5.576304
4.119932
8.507142
-6.12911
6.714507
8.862378
-1.451792
7.592132
5.801826
0.3809901
8.654682
0.05059124
1.919614
10.06104
-4.50308
2.948745
10.96357
-7.887844
3.260603
11.78886
-9.839644
3.249076
12.94504
-10.49287
3.13302
14.62897
-9.661229
2.863012
16.49726
-7.52964
2.400458
18.80487
-3.583451
1.982333
20.06242
1.936212
1.870069
20.02132
6.895477
2.690369
19.2579
10.16442
3.959164
18.18208
12.32859
5.239945
16.81002
13.92676
6.170662
15.80023
15.55774
6.700756
14.34741
17.14943
6.57102
13.16185
18.88529
6.274846
12.38674
19.73306
5.668448
12.14653
19.80806
5.003783
12.27424
18.74748
4.48615
18.33553
16.80642
4.348378
13.85261
17.07199
4.721888
11.0363
10.93979
4.668118
6.528273
5.901417
5.462817
2.702906
3.825367
4.693854
5.873734
-5.275226
6.919688
8.766994
-2.485686
7.928238
8.65201
-0.7981821
7.91466
2.197058
1.059922
8.262543
-2.368654
2.923214
7.81367
-6.666792
4.085449
6.502135
-9.622423
4.55091
5.281888
-11.30509
4.82935
4.382393
-11.95428
5.003289
4.348353
-11.89732
4.990564
5.355835
-10.85615
4.842307
7.773322
-8.307699
4.716557
10.95952
-3.367968
4.480725
12.97105
2.961057
4.490958
13.77087
7.259197
5.16902
13.93141
9.672083
6.015947
13.59771
11.30585
6.816159
13.0506
12.71213
7.389867
12.32572
14.03238
7.560813
11.95968
15.35644
7.494279
11.84727
16.18965
7.179252
12.3756
15.84358
6.776304
13.1913
14.39436
6.559794
14.46173
12.16543
6.781358
18.66603
13.93035
7.494103
19.11042
3.089269
7.406134
12.24709
5.009538
7.755203
2.570987
12.37901
7.197788
4.878205
-6.202259
10.60741
7.658147
-2.30078
10.31771
6.362868
-0.4800531
8.158252
1.367814
1.605997
6.704613
-3.163125
3.92681
3.916015
-6.782595
5.394728
0.4383184
-9.168809
6.121566
-2.541314
-11.00045
6.679132
-4.683614
-12.41961
7.017158
-5.96343
-13.35462
7.0836
-6.387698
-13.31001
7.127735
-5.750025
-11.89743
7.317784
-3.067057
-8.912956
7.727717
0.9051994
-3.625415
7.73858
3.902969
1.823688
7.64072
5.554851
5.393816
7.877949
6.555247
7.39595
8.225697
7.141861
8.865953
8.466349
7.545735
10.00977
8.525319
8.294325
10.72389
8.46194
9.968553
10.76183
8.375684
12.31202
9.375661
8.295854
15.26467
7.303189
8.619622
18.2846
4.854754
9.314495
29.38061
2.406958
10.19093
27.89187
1.689329
10.91966
19.34236
2.368884
11.19016
4.70349
17.20986
3.067402
4.083129
-7.150531
10.1241
6.765368
-8.943858
12.82049
7.418507
-2.456751
9.553565
5.842362
-0.4559401
7.785522
1.300367
2.388887
4.596348
-2.455622
5.097069
-0.38343
-4.998144
6.733421
-5.117772
-7.339974
7.751367
-8.360858
-10.09117
8.515482
-10.85785
-12.73147
8.746921
-12.74961
-14.58281
8.631253
-14.05082
-15.26349
8.593271
-14.66813
-14.5964
8.780927
-14.38999
-12.52392
9.16816
-12.17004
-9.155336
9.549898
-8.507043
-5.119347
9.691198
-4.979766
-1.377315
9.612248
-2.28664
1.355329
9.535397
-0.0433867
3.055223
9.494378
2.249641
3.862095
9.419316
5.208869
3.571101
9.444857
9.192111
2.513556
9.763967
13.72196
0.8248921
10.47323
17.83111
-1.012279
11.25381
20.52822
-2.633422
11.99455
21.95729
-3.43779
12.79807
29.14643
-3.41043
12.80871
20.5438
-0.2701702
11.24168
8.439434
1.797855
15.01
1.99965
6.439784
8.343111
4.324648
-8.58463
12.75873
6.518036
-4.168289
15.54039
7.134175
-2.497321
10.79661
6.117492
-0.6975891
7.887705
2.352556
2.648421
3.016709
-0.2480286
5.82688
-2.937616
-2.222605
7.788264
-7.352885
-5.708687
9.093994
-10.45198
-9.818672
9.701478
-12.94842
-13.38596
9.624724
-14.91394
-15.91921
9.281243
-16.3356
-17.14252
9.064828
-17.19128
-17.0086
9.146578
-17.35448
-15.63529
9.499512
-16.52497
-13.30558
9.975964
-14.52651
-10.50512
10.40521
-11.53361
-7.839688
10.66533
-8.087338
-5.660018
10.75649
-4.462872
-4.267873
10.78254
-0.7408979
-3.731639
10.86716
2.79518
-3.994267
11.24392
6.079246
-4.7217
11.75593
9.117111
-6.02923
12.0889
10.68083
-7.085264
11.81519
11.14334
-7.654159
11.42368
10.41868
-7.378731
10.91005
13.07679
-7.131912
9.438573
7.698297
-2.135825
7.244148
3.075589
1.720773
4.69979
2.617132
2.458106
10.55504
4.128772
-10.35917
15.29663
6.160086
-4.383639
18.45596
6.993597
-3.01875
12.70979
6.836292
-1.385599
9.303316
3.947521
2.290754
3.968634
2.396005
5.838178
-1.985421
0.5316505
8.20025
-6.331615
-4.106132
9.853651
-9.746767
-9.504841
10.27244
-12.50235
-13.9905
9.988305
-14.56579
-17.24109
9.389398
-15.95201
-19.02016
8.877719
-16.71297
-19.37592
8.671331
-16.83364
-18.55825
8.797106
-16.23408
-16.91804
9.152253
-14.88584
-14.88216
9.568635
-12.93257
-12.86595
9.905816
-10.58147
-11.15479
10.09527
-8.131035
-9.945191
10.13677
-5.92774
-9.250838
10.07208
-4.241058
-9.066635
9.927831
-3.02138
-9.316431
9.675041
-2.370088
-9.803669
9.308689
-2.816747
-10.42648
8.362784
-4.002186
-10.37752
7.268073
-5.716916
-9.516698
5.641716
-8.496256
-9.180053
2.91288
-7.588711
-4.012383
0.9690123
-5.123041
0.1858249
-0.9307218
1.931557
-4.437466
12.24071
3.87824
-11.99017
17.69321
5.816198
-5.108621
21.72341
6.874604
-3.911198
15.38863
7.448257
-2.501159
12.37608
5.237464
1.283371
7.710478
4.53248
5.016777
2.162347
3.0219
7.790868
-3.255966
-1.881313
9.66377
-7.549304
-8.537959
10.34189
-10.90997
-14.10583
10.12959
-13.41124
-18.19075
9.395554
-15.12392
-20.58797
8.584273
-16.18215
-21.39958
7.99767
-16.67811
-20.97725
7.753233
-16.68881
-19.73568