/*--------------------------------*- C++ -*----------------------------------*\
  =========                 |
  \\      /  F ield         | OpenFOAM: The Open Source CFD Toolbox
   \\    /   O peration     | Website:  https://openfoam.org
    \\  /    A nd           | Version:  6
     \\/     M anipulation  |
\*---------------------------------------------------------------------------*/
FoamFile
{
    version     2.0;
    format      ascii;
    class       surfaceScalarField;
    location    "50";
    object      phi;
}
// * * * * * * * * * * * * * * * * * * * * * * * * * * * * * * * * * * * * * //

dimensions      [1 0 -1 0 0 0 0];

internalField   nonuniform List<scalar> 
403053
(
7.981963
-0.3695544
-7.612409
8.60363
4.732981
-5.354648
7.46645
5.82157
-4.68439
6.845565
0.620885
8.10567
-2.883266
-5.222405
9.876761
1.290078
-3.061168
13.97533
4.05414
-8.522261
14.12931
6.625815
-2.046814
12.68247
8.135458
-0.8670536
10.25593
8.366826
0.905281
7.324158
7.515349
-4.583577
7.070656
0.2535026
4.090547
-4.054758
-0.03578937
6.837821
-5.059409
2.312135
10.8121
-4.125498
-2.732045
13.80352
-0.7325923
-0.9687556
15.31284
3.496126
-0.9513037
15.34038
6.802234
-0.2039608
14.38113
8.774856
0.3198541
12.56835
9.58855
0.5910568
10.23282
9.554014
0.2968677
8.04711
8.797849
0.458515
5.196298
7.64231
-4.791498
5.834834
-0.6385363
2.219096
-3.791542
1.572446
2.515502
-6.81356
2.462396
4.272482
-7.981297
1.164908
6.67559
-7.286964
0.7583573
9.593373
-4.450525
0.8001493
11.45488
0.6087287
1.025894
11.70311
5.100408
1.453596
11.20432
7.627732
1.645907
10.15918
8.9089
1.724797
8.71456
9.286949
1.711681
6.882841
9.151169
1.478398
5.001185
8.606205
0.9177613
3.786611
6.915374
0.1340346
3.668516
0.1180949
-2.216691
-4.067564
2.492713
-3.076835
-8.269909
2.316493
-3.169294
-9.690798
1.801959
-2.546833
-9.496577
1.587153
-0.7558137
-7.87522
1.633675
1.7007
-4.186499
2.338714
3.199882
0.7591119
2.842115
3.442071
4.506355
2.879189
3.226992
6.259276
2.864703
2.731026
7.02438
2.758534
2.248152
7.186603
2.44744
2.076168
6.777579
2.00061
2.071386
5.496865
1.423292
2.815943
2.923958
-1.771849
-2.805573
4.577422
-7.108818
-6.602542
7.871947
-9.215358
-9.317867
3.154498
-10.4878
-10.76263
2.344273
-11.19513
-10.90681
2.117568
-11.41644
-9.839959
2.18604
-10.56785
-7.53773
2.502644
-8.426416
-4.221434
2.839113
-6.35736
-0.6626397
3.099939
-5.032244
1.873573
3.060586
-3.976358
3.100624
2.867871
-2.704657
3.368273
2.546629
-0.7706346
2.747229
2.096327
1.822139
1.450404
1.453688
2.920296
-0.3872715
2.105057
-0.5653577
3.485654
-6.734125
-2.399672
6.328225
-10.00554
-7.552869
4.221745
-12.06051
-10.44433
3.181436
-13.3633
-12.06901
2.609161
-14.23088
-12.52262
2.483393
-14.74415
-11.9423
2.615609
-14.70478
-10.43684
2.859741
-13.78008
-8.283868
3.137736
-11.84191
-5.950616
3.349809
-9.393522
-3.996098
3.421282
-6.688216
-2.963406
3.358724
-3.490107
-2.98996
3.160125
-0.1580626
-3.560449
2.975633
2.56678
-4.325637
3.051198
3.242956
-4.721853
3.658405
-3.043444
5.721042
-1.661266
-1.55901
3.220276
-7.371378
-4.8361
8.14654
-10.24526
-8.732516
4.053525
-11.96033
-11.82987
3.100616
-12.93873
-13.69475
2.604146
-13.46933
-14.45598
2.463957
-13.59839
-14.34524
2.532
-13.27565
-13.52546
2.765872
-12.40547
-12.24367
3.089632
-10.93823
-10.78525
3.367396
-8.907281
-9.546764
3.519717
-6.712358
-8.646114
3.487785
-4.661862
-8.356323
3.315868
-3.089135
-8.237345
3.104168
-2.048196
-8.319852
2.953276
-1.583337
-8.114252
2.92754
-2.265079
-6.837097
4.475395
-4.61051
2.345431
-3.365427
-1.766755
3.573173
-6.886266
-5.267185
3.951924
-9.629239
-9.579643
3.590099
-11.37767
-13.05499
2.973546
-12.36725
-15.17022
2.465059
-12.851
-16.14051
2.16828
-12.96136
-16.25898
2.024102
-12.74802
-15.83837
2.099565
-12.26774
-14.94681
2.222866
-11.51401
-13.93139
2.392407
-10.64145
-12.90117
2.481843
-9.760504
-12.01958
2.492519
-9.04761
-11.45325
2.384037
-8.435123
-11.08237
2.232538
-7.912474
-10.78218
1.939682
-7.208227
-10.11925
1.300751
-5.474283
-8.427043
-0.1439988
-5.417865
-4.666929
-1.886463
-1.336858
1.456566
-5.16918
-4.943924
2.959455
-8.163699
-9.820711
3.235588
-10.29708
-13.87368
2.95206
-11.6102
-16.32029
2.463189
-12.30841
-17.46445
2.02215
-12.64238
-17.64165
1.716639
-12.7329
-17.38718
1.639337
-12.69874
-16.63526
1.654284
-12.62226
-15.74751
1.739641
-12.50324
-14.78291
1.762715
-12.40302
-13.89891
1.779108
-12.34522
-13.1636
1.652549
-12.31784
-12.5694
1.459645
-12.15759
-11.92084
0.9784064
-11.32067
-10.76197
-0.1942091
-8.54932
-8.491406
-2.706982
-4.844925
-9.12226
0.001492554
-1.33835
-1.978636
-2.64452
-0.319275
-5.146528
-8.930094
2.277274
-7.971723
-13.87019
2.82171
-9.96567
-16.87234
2.546002
-11.15945
-18.30556
2.034884
-11.85126
-18.5659
1.616057
-12.39298
-18.24781
1.402354
-12.75071
-17.6089
1.331367
-13.10418
-16.74091
1.346882
-13.49797
-15.75562
1.366499
-13.89715
-14.8153
1.315567
-14.26897
-13.94741
1.155629
-14.56011
-13.1286
0.8503396
-14.4191
-12.09873
0.03687952
-12.83577
-10.24815
-2.09714
-5.031937
-4.279507
-12.01574
-9.876862
2.983754
-1.087403
-4.540871
-0.05339266
-6.529994
0.637047
-3.914011
-12.18778
2.178213
-7.024819
-16.25712
2.495586
-9.118323
-18.3215
2.109446
-10.38172
-18.91351
1.611007
-11.28868
-18.64699
1.306148
-12.11602
-18.00301
1.221452
-12.9021
-17.14858
1.193751
-13.63651
-16.15686
1.135647
-14.34551
-15.13125
1.024953
-14.9836
-14.1325
0.8231789
-15.37639
-13.07194
0.3361376
-14.91455
-11.62826
-0.932315
-12.14519
-9.180562
-3.836948
-4.672075
-11.75262
5.09354
-6.180943
5.945635
-1.611812
-5.770277
1.968876
-8.825544
0.6145185
-2.569634
-13.75009
2.031474
-5.959498
-17.01587
2.084234
-8.173137
-18.34076
1.640881
-9.651411
-18.42363
1.25491
-10.8724
-17.90216
1.120141
-11.97327
-17.09968
1.05197
-12.9938
-16.11493
0.9786104
-13.91149
-15.04141
0.8278464
-14.63148
-13.91736
0.5048478
-14.89005
-12.55568
-0.2576885
-13.72113
-10.49209
-2.305096
-6.049888
-4.31265
-12.53915
-10.72196
9.282607
-1.206042
-9.688377
7.715771
-5.649304
-1.609405
3.079309
-9.929262
0.8156381
-1.664457
-13.91933
1.647227
-5.091376
-16.46198
1.54814
-7.309891
-17.39098
1.185865
-9.022747
-17.26983
1.08053
-10.47229
-16.61764
0.9675018
-11.68479
-15.71422
0.8117903
-12.66895
-14.55915
0.5018919
-13.25753
-13.25366
-0.07511911
-13.12653
-11.51901
-1.167671
-11.03464
-9.01135
-3.572622
-4.558403
-10.78889
7.150354
-8.356396
10.01216
-0.3101203
-8.200987
7.419545
-5.962967
-1.373682
3.136953
-9.616572
-0.02016624
-1.265078
-12.90117
0.8412234
-4.405888
-15.09417
0.8440049
-6.647609
-15.82861
0.8004966
-8.335793
-15.5456
0.616145
-9.652983
-14.66066
0.2636231
-10.53233
-13.27574
-0.4040566
-10.63124
-11.50706
-1.647695
-10.00907
-9.099572
-3.041615
-4.886073
-3.663688
-10.47065
-9.444476
7.217549
-7.52767
6.133561
-4.878978
6.108045
-2.18071
-7.410347
2.529681
-8.113994
-1.208812
-0.9940506
-11.13787
-0.4325757
-3.795071
-13.02822
0.0006295483
-5.680306
-13.32786
-0.3324993
-6.774325
-12.26699
-1.299645
-7.309267
-10.1974
-2.543401
-4.324835
-4.858395
-9.633096
-4.873161
-8.551246
-8.536849
4.819881
-7.000592
2.591837
-5.885949
1.892469
-3.666778
-6.77172
-0.8388126
-8.408985
-1.887952
-2.757756
-9.11554
-2.293379
-1.493333
-5.545991
-7.985427
-2.947911
-8.742822
-7.806306
2.44598
-6.112758
0.990981
-6.953986
-0.3905075
-7.734052
-5.936498
0.2951076
3.210788
-3.505896
0.9459104
5.548977
-6.19978
1.262458
6.707644
-7.024192
1.338261
7.792935
-7.868738
1.310566
8.973202
-8.945508
1.296834
10.30249
-10.28876
1.337659
11.76019
-11.80101
1.417315
12.999
-13.07866
1.48025
13.21253
-13.27546
9.662434
-8.182185
1.631441
1.226547
-2.857989
2.827894
2.069969
-3.266421
5.858186
3.007395
-2.826899
7.163706
4.253473
-0.0100152
7.778417
6.041324
0.05160876
7.539902
8.180889
-0.1494382
6.866171
10.03021
-0.3832734
6.133323
11.7235
-0.6881617
5.482474
13.53323
-1.122194
4.850162
15.31501
-1.683692
4.153695
16.44365
-2.534659
5.943664
16.1213
-8.248831
3.47903
14.15493
-11.69029
9.949956
-6.470927
3.476802
-1.279373
-2.197429
8.116779
-1.21638
-2.19705
11.61341
-1.611486
0.1848199
14.73667
-0.5454458
0.4295835
16.71316
1.786463
0.4905171
18.99108
3.55484
0.2085626
17.12709
9.889666
0.1552202
15.91233
10.85227
0.3926942
14.29702
12.66752
0.6712935
13.33991
13.59219
0.8981466
10.33596
17.38141
0.9375484
9.148019
17.08671
0.5448834
7.952856
17.81249
-0.4960319
6.35616
17.33591
-1.584285
6.744144
15.11789
-5.555916
10.37218
-3.628031
4.229105
-2.476344
-1.752761
8.809197
-3.957769
-1.901696
13.19495
-5.464295
-0.137834
17.12967
-5.371206
-0.1750001
22.48924
-5.125088
-0.7799362
23.59485
1.788891
-1.108028
24.80483
3.759167
-1.414316
25.55102
3.062965
-1.531889
24.35268
7.210582
-0.5146269
21.9733
9.737226
0.6252793
15.7662
18.53357
1.886616
16.34097
14.98206
1.82457
15.48863
16.67958
1.259475
12.20843
20.20323
0.8894618
10.59337
18.46299
0.4879745
8.58931
17.43489
-0.3129394
7.736568
14.34403
-3.119108
9.62582
-1.889252
3.727197
-2.153298
-1.573899
7.301467
-4.735989
-1.314625
10.93316
-7.584787
-0.004675469
15.89716
-10.2816
-0.1466959
18.57639
-7.859059
-0.191379
20.74491
-6.410617
-0.8829933
26.94818
-7.745835
-1.890942
30.06118
-0.488057
-1.926946
23.02708
3.565288
-1.990486
21.87814
6.931107
-0.6183982
20.53209
9.444749
0.7714744
26.3083
11.6919
1.970732
21.71762
13.18049
1.808678
14.68879
21.59688
2.365026
15.95722
17.32586
1.608948
15.19961
18.26111
0.9594801
11.73701
19.95959
0.9379066
9.434153
16.07573
0.5711583
7.748732
12.33943
-1.028185
8.036329
-0.2875971
2.749735
-0.4923673
-2.257367
5.48793
-3.643804
-1.24769
7.702957
-7.476391
0.525375
10.85393
-11.23574
0.4999763
10.45659
-10.45608
0.5718277
16.17582
-14.24505
0.6309718
20.86636
-9.543042
0.7540287
17.45998
-7.166633
0.0951267
19.21
-3.048673
-0.1581526
20.01442
2.026678
-0.217115
19.91052
6.264932
0.5661101
19.1121
9.048272
1.514756
18.10377
10.94863
2.34265
16.73701
12.18417
2.659946
22.18417
13.69398
2.914255
17.81138
14.75945
2.147708
11.85984
21.21237
2.361741
14.39862
15.39311
2.027701
11.29643
17.22018
1.957734
9.249867
12.74452
1.641471
7.183089
8.665563
1.437543
4.941567
2.241522
4.260162
-1.9483
-2.80423
5.303447
-5.400346
0.713258
5.490486
-8.98664
1.323209
4.438805
-11.48656
1.302505
7.699041
-14.02632
1.882442
5.189405
-11.61591
2.342891
5.632898
-11.27144
2.449814
6.981865
-10.04047
2.283228
9.579548
-7.089155
2.242947
12.15552
-1.80841
2.285009
13.22463
4.031797
2.617621
13.45378
7.317839
3.147188
13.09168
9.415366
3.62017
12.33149
10.70426
3.951776
11.60342
11.86176
4.038693
10.92526
12.6637
3.69167
15.1852
13.58675
3.499712
10.94056
16.33612
3.41972
11.66142
13.21615
3.283173
11.2716
10.09702
3.037327
9.461701
6.970866
3.504591
5.673329
8.729939
2.600139
0.5182898
-3.118428
4.286394
-2.063362
-1.571193
3.400874
-6.041953
1.527126
1.649019
-9.547316
2.31253
-1.565022
-11.15166
2.879137
-2.844272
-13.95176
3.697406
-4.145865
-12.12385
4.12603
-4.96994
-12.76726
4.121853
-5.037085
-12.45668
4.070512
-4.057325
-10.67342
4.238179
-1.211763
-7.159345
4.844087
1.953492
-1.437776
5.146432
3.535658
3.357445
5.257418
4.37071
6.120071
5.324945
4.806824
7.662059
5.364619
5.106733
8.803992
5.205296
5.529634
9.396082
4.84533
6.472534
9.594787
4.472353
9.473522
11.70595
4.553131
13.47029
5.004378
4.215008
14.05622
4.88241
4.628676
13.91701
1.850053
5.260025
8.870836
0.2822917
10.43721
0.4301253
8.44071
4.368403
0.5419558
-4.392069
3.864517
-2.010373
0.450897
0.5706296
-5.223992
2.475926
-5.28327
-7.054994
3.361578
-6.894562
-9.593327
4.630382
-8.695439
-10.21948
5.940548
-10.99282
-12.44906
5.777078
-12.80632
-14.015
5.405519
-14.03539
-14.37795
5.267903
-14.584
-13.35177
5.412996
-14.13944
-10.89772
5.796457
-11.65765
-7.273019
6.192574
-8.385206
-3.178103
6.363038
-5.689685
0.1660853
6.319051
-3.606815
2.30275
6.14431
-1.574735
3.429825
5.888715
0.9210554
3.468698
5.527921
4.199819
2.498191
5.27152
11.852
0.4880798
5.670749
15.80006
-2.232466
6.774437
16.77139
-3.451885
7.362964
16.00113
-4.792608
7.412922
12.05064
-4.215664
8.448449
-2.208977
14.68974
4.939445
0.8627143
-5.260204
3.230333
-1.016645
0.715385
-1.895625
-3.174492
3.076458
-7.767032
-5.660446
4.476858
-8.911168
-8.273674
6.152708
-11.35674
-10.30848
6.756322
-13.66381
-13.36864
6.408083
-15.52572
-15.5088
5.964874
-16.86038
-16.34929
5.789385
-17.63685
-15.88386
5.924178
-17.67562
-14.26995
6.27074
-16.66189
-11.83222
6.683216
-14.43351
-9.075822
7.019145
-11.38306
-6.641318
7.178234
-7.97114
-4.919517
7.16907
-4.275889
-4.185442
7.080141
-0.5745537
-4.306919
7.049915
2.661203
-5.047688
7.36132
4.995332
-6.149396
7.961752
10.23268
-10.08236
8.333587
9.502731
-10.03403
7.312095
8.363004
-10.46019
6.807313
5.845907
-7.782436
6.083869
-4.144388
7.781317
5.795936
1.467061
-6.400282
3.569261
0.7324139
0.4776159
-2.546005
-0.1811843
3.121959
-7.016889
-2.924939
4.955654
-8.173378
-5.987632
7.016987
-10.96066
-10.56979
7.102118
-13.35544
-14.46823
6.594988
-15.11218
-17.16962
6.021713
-16.22489
-18.45514
5.682521
-16.74962
-18.47675
5.649622
-16.62444
-17.508
5.878737
-15.76255
-15.86793
6.263447
-14.14565
-13.97185
6.646519
-11.94853
-12.23058
6.911866
-9.482829
-10.887
6.98957
-7.12491
-10.13667
6.909178
-5.251757
-9.813402
6.737497
-3.967911
-9.907114
6.528856
-3.202315
-10.28438
6.296924
-4.008014
-10.93717
6.135903
-1.761476
-14.43363
4.498491
-2.882565
-12.53297
3.193864
-3.072046
-9.15012
1.557165
-4.721306
-2.495128
7.513385
2.039909
-8.086233
6.189861
2.401338
-0.3453998
0.9156917
2.512549
2.580436
-2.818046
-0.4205554
4.802527
-6.026224
-5.324453
6.496923
-9.383712
-10.60886
6.986658
-12.17448
-15.31639
6.612471
-14.17566
-18.63585
5.932471
-15.43808
-20.36054
5.336094
-16.1346
-20.74435
4.988225
-16.29696
-20.18014
4.934061
-16.03423
-18.97349
5.065699
-15.38081
-17.49794
5.265074
-14.52618
-16.00905
5.405681
-13.61086
-14.72746
5.41766
-12.83115
-13.80139
5.269044
-12.17119
-13.19436
4.953539
-11.69892
-12.82828
4.388573
-11.48369
-12.61112
3.412266
-11.73686
-12.68418
1.856177
-14.83671
-15.93893
-0.061769
-12.92624
-13.13017
-1.313278
-10.08978
-9.360711
-2.62587
-4.924787
-9.886295
9.898968
2.3417
-10.20076
10.44645
3.382189
-1.528331
7.193162
4.435684
1.330151
2.121764
2.325853
3.781556
-2.222449
-3.459927
5.439142
-6.405332
-9.726888
6.536495
-9.905913
-15.45931
6.595559
-12.52011
-19.5329
5.974432
-14.29092
-21.75375
5.186167
-15.45438
-22.42468
4.560436
-16.15232
-22.08413
4.24127
-16.56277
-21.06464
4.15588
-16.76573
-19.74112
4.185785
-16.86511
-18.33629
4.189341
-16.88511
-17.02536
4.097003
-16.91111
-15.92964
3.806797
-16.87512
-15.04618
3.275478
-16.75714
-14.30383
2.335974
-16.62506
-13.6863
0.7488946
-17.05737
-13.41591
-1.542946
-22.54714
-16.03496
-3.536452
-18.9159
-12.50618
-4.255229
-13.92323
-9.16237
-5.191012
-4.834083
-14.01394
12.24068
2.357628
-12.25661
14.74387
3.576594
-2.697591
14.4709
4.87041
-0.1617605
11.87258
1.444547
2.141281
4.28137
0.2617169
3.55029
-0.9109597
-7.53167
5.274386
-5.691829
-14.08984
6.233115
-9.381767
-19.33645
6.039485
-12.0453
-22.29253
5.237193
-13.90447
-23.36752
4.418062
-15.25801
-23.19791
3.869672
-16.27985
-22.31301
3.601573
-17.1177
-21.04242
3.486034
-17.84914
-19.62076
3.382416
-18.4824
-18.23994
3.163408
-19.00114
-16.98041
2.72515
-19.32041
-15.84161
1.965029
-19.40609
-14.81065
0.6293837
-19.61793
-13.98999
-1.581612
-25.15104
-15.45735
-4.441182
-27.20948
-18.53954
-5.313849
-21.38976
-12.60752
-5.718377
-15.5292
-8.544862
-6.478068
-4.465153
-15.89813
13.90718
2.169031
-13.71859
17.95824
3.164523
-3.638984
20.45495
3.58716
-1.213458
17.82163
3.759679
0.3181833
11.832
0.4361723
1.2743
6.91755
-5.180521
3.200353
1.116776
-11.19707
5.086213
-4.295061
-17.18782
5.758795
-8.354634
-21.42341
5.299902
-11.23894
-23.31049
4.438283
-13.34049
-23.51304
3.722835
-14.98957
-22.76713
3.324662
-16.37194
-21.56005
3.093745
-17.57406
-20.16229
2.879298
-18.619
-18.72214
2.552084
-19.44953
-17.31861
1.991903
-19.9921
-15.97682
1.013919
-20.28212
-14.77617
-0.6767791
-20.91536
-13.9643
-3.229403
-26.25057
-16.24002
-5.634737
-25.68808
-13.43892
-5.663102
-21.27698
-11.2771
-5.741531
-15.47561
-7.694828
-6.651403
-3.957943
-15.98282
14.26986
1.758992
-13.85982
19.73535
2.323529
-4.624494
22.62982
2.875865
-2.183179
25.13062
2.88335
-1.62447
23.83454
-3.738061
-0.710628
14.20502
-1.797194
0.4759216
8.967296
-8.238174
2.893346
2.799631
-13.63374
4.645057
-3.035404
-18.57668
5.072534
-7.406884
-21.76436
4.466235
-10.49402
-22.84947
3.678474
-12.80365
-22.50512
3.167756
-14.67459
-21.46902
2.831874
-16.25295
-20.13487
2.529555
-17.58432
-18.67514
2.112219
-18.62937
-17.19331
1.424598
-19.3643
-15.73882
0.2392381
-20.0944
-14.54706
-1.804111
-26.09346
-15.86189
-4.642499
-28.80202
-18.65426
-5.599164
-23.56761
-13.20055
-5.472787
-19.6955
-10.08467
-5.064538
-13.84668
-6.927526
-6.616122
-3.281178
-14.52345
10.37239
-8.613402
19.50089
4.463187
-11.26815
23.92764
1.924666
-3.475555
28.32396
1.175728
-2.688698
26.44703
0.4181394
-2.27927
19.58416
-2.632767
-1.989928
15.25759
-5.981121
0.4601088
9.856679
-10.1959
2.778713
3.52182
-14.6563
4.061706
-2.401399
-18.54405
4.251043
-6.780169
-20.89132
3.60648
-9.857323
-21.38124
3.033808
-12.21663
-20.72696
2.584745
-14.0998
-19.59576
2.155854
-15.63683
-18.22763
1.591398
-16.84704
-16.79402
0.7358076
-17.80014
-15.39112
-0.5622633
-18.96061
-14.37578
-2.583428
-24.31954
-16.5803
-4.711544
-24.35523
-13.77994
-4.83863
-20.93975
-11.8797
-4.736327
-17.06021
-8.930553
-5.033654
-7.23132
-2.662086
-14.09433
-10.5125
17.10598
1.681524
-14.32432
22.90883
0.9343983
-4.812585
26.78419
0.600874
-3.300503
30.66346
-0.03366693
-3.427468
29.19546
-6.638034
-2.883125
19.7613
-3.267629
-1.480326
15.17211
-7.697061
0.7166774
9.52196
-11.27967
2.253358
3.234092
-14.66134
3.246387
-2.358682
-17.69903
3.244495
-6.35186
-19.31801
2.730444
-9.195308
-19.38105
2.113688
-11.36922
-18.62244
1.464211
-13.12793
-17.53063
0.6576595
-14.60414
-16.49344
-0.4720587
-15.9374
-15.38376
-1.715719
-20.63952
-16.78181
-3.362518
-24.56276
-17.90027
-4.20126
-20.28539
-13.81899
-4.238321
-17.40902
-10.70596
-4.050109
-13.25469
-7.74725
-5.337639
-3.561491
-12.35528
11.06246
-9.380931
19.84762
3.428125
-11.27889
24.95299
-0.007346267
-4.49715
29.73844
-1.104167
-3.714954
28.04585
-1.942047
-3.003392
27.74701
-8.449118
-2.047347
23.885
-8.030213
-0.6838109
13.77271
-8.680449
0.1027116
8.060681
-11.60591
1.447786
2.348299
-14.47322
2.053993
-2.492585
-16.53039
2.053893
-5.913796
-17.55339
1.261052
-8.382869
-17.6643
0.2112913
-10.45504
-17.14881
-0.853052
-14.23972
-20.20275
-2.13912
-16.7405
-18.68064
-2.753578
-19.03034
-19.84795
-3.180869
-18.18529
-15.32298
-3.422343
-16.07117
-12.21529
-3.717819
-13.16959
-9.12179
-4.485749
-6.059512
-3.14561
-11.71172
-9.621003
12.17497
-8.746843
20.50074
3.045414
-11.37853
24.72417
-1.061375
-4.266226
28.03399
-2.382659
-2.869203
25.49678
-4.215136
-1.696774
23.97972
-5.322932
-1.19022
20.30679
-11.24852
-0.7595931
14.0834
-11.26105
-0.007415769
6.347809
-13.77338
0.2640318
1.450021
-14.20998
0.6894267
-2.47071
-15.9995
0.07345824
-5.20558
-21.66699
-1.247871
-9.30552
-19.71226
-2.079425
-13.76825
-21.23446
-2.311857
-11.95898
-18.16248
-2.327442
-13.63254
-15.61109
-2.563291
-12.89145
-13.14106
-2.923014
-11.12191
-10.11686
-3.867962
-5.42337
-4.088928
-10.7314
-8.56898
12.07254
-9.027124
19.67545
2.469727
-11.13401
22.59418
-1.836703
-3.464683
23.0302
-2.941768
-1.709391
23.45657
-4.498308
-1.250998
19.49382
-6.589971
-0.6957982
17.35483
-8.624345
-0.4977121
11.67861
-13.79969
-0.4102319
6.283507
-15.36853
-0.400335
0.9246972
-17.62707
-0.7476719
-6.109347
-19.35446
-1.214979
-5.129755
-19.03009
-1.661771
-7.433539
-16.95548
-1.9752
-8.373041
-15.29412
-1.928859
-8.708263
-13.24752
-2.028346
-8.120539
-10.66122
-3.067567
-3.806022
-4.986113
-9.445267
-7.89495
11.20706
-8.737329
17.25008
1.977215
-9.856945
19.03541
-2.227229
-2.499865
19.28898
-3.216512
-1.535363
17.9067
-4.525386
-0.6823085
16.34384
-6.441763
-0.6197216
11.86875
-8.776514
-0.5480825
8.235849
-11.00106
-0.7345779
4.563205
-12.88327
-1.071155
0.8577369
-14.22497
-1.424027
-2.129004
-14.54328
-1.500064
-3.596553
-13.88662
-1.601311
-4.487575
-12.37235
-2.030743
-4.820529
-10.08898
-2.825584
-1.95231
-5.368731
-8.160705
-6.938423
9.768287
-7.791072
11.37413
-3.833074
14.57978
1.464405
-7.886564
14.33719
-2.881768
-1.401031
12.97872
-4.179606
-0.9036829
10.76698
-5.545139
-1.019641
8.181845
-7.032432
-1.383484
5.53685
-8.436936
-1.801341
2.982975
-9.509736
-2.161357
0.800471
-9.985136
-2.37564
-0.7838382
-9.557694
-2.744612
0.3299394
-6.174306
-7.311825
-1.217177
-8.541868
-6.585908
8.121472
-6.657067
8.69906
-3.459357
8.205361
-3.685906
7.202975
-4.542753
5.912508
-5.741965
4.472848
-6.997276
3.082791
-8.11968
1.830417
-8.732762
0.8049614
-8.532239
-5.369344
-2.816473
9.831489
-7.015016
-3.106104
14.22509
-13.93546
-3.050943
16.02935
-16.08451
-2.914215
17.15201
-17.28874
-2.669601
17.90571
-18.15032
-2.222981
18.12156
-18.56818
-1.665237
17.10159
-17.65933
10.52225
-12.18748
-3.253716
8.789027
-5.535311
-4.164376
12.95868
-12.04802
-6.617471
15.28713
-12.83404
-4.266364
17.9857
-10.50532
-4.379056
20.23322
-5.895435
-4.164934
21.87009
-6.05486
-3.843326
23.43257
-6.602161
-3.442089
24.89475
-7.390278
-2.920095
26.02011
-8.420544
-2.300719
26.34506
-9.86285
2.608111
25.07843
-19.46501
0.2192464
22.40168
-20.01281
0.5527438
18.83466
-19.16816
11.43271
-10.87996
-5.492517
9.708254
-4.215736
-4.422406
14.1922
-6.473287
-5.726724
17.83512
-3.572123
-5.590248
18.69661
-3.545954
-4.960113
20.79159
-3.436021
-4.381111
22.86767
-3.213452
-3.82214
24.82048
-3.509365
-3.244968
26.99621
-4.140819
-2.6413
29.35856
-5.067481
-1.973597
31.60835
-6.255942
-1.09968
33.14507
-7.673925
0.1670194
33.13776
-9.326034
0.8490839
31.88354
-10.16392
0.7782223
29.3173
-10.41178
4.689448
23.15338
-15.6319
14.38911
-9.699659
-2.969687
7.76705
-4.797363
-5.501792
11.21871
-8.686606
-4.795317
14.66919
-5.667415
-4.421093
15.718
-1.900021
-0.9018939
15.11479
-0.7988667
-2.974903
17.38214
-0.1184128
-2.533904
14.3917
-0.2408923
-1.952016
15.64066
-0.3790665
-1.413471
17.20671
-0.7935107
-0.8431233
18.99306
-1.512703
-0.1752334
20.93171
-2.529798
0.5548468
22.86125
-3.783994
1.253804
24.50627
-5.138815
1.684539
25.78627
-6.354708
-3.183282
35.43879
-6.86962
3.176626
30.76147
-7.804082
4.226049
30.78959
-8.685632
6.962691
26.48244
-14.82998
3.450146
18.44883
-14.93628
10.87181
-7.421664
-3.592323
7.478153
-3.885831
-2.381815
11.49942
-4.942881
-2.931849
13.44625
-1.677508
0.06683675
12.29431
-0.6238048
-0.1758066
12.5303
0.5723548
0.6640639
9.668351
1.340146
3.196585
9.90488
2.117836
3.804514
11.07014
2.703618
3.96515
12.65655
2.875079
3.731795
14.52558
2.765047
3.45407
16.47695
2.410566
3.371654
18.54272
1.783248
3.540073
20.6966
0.8740337
3.829391
22.79556
-0.2622977
4.099
24.58319
-1.601192
8.843216
25.88549
-3.439741
6.555788
26.23648
-4.877872
1.695888
34.57365
-5.395094
6.92023
27.26844
-6.010339
5.199916
25.96195
-5.792807
6.175368
17.98079
-8.08443
10.5337
-4.358332
-2.579739
6.362234
-3.782496
-1.001474
10.34378
-4.443889
-0.6375708
12.29409
-1.158566
2.335084
10.35069
0.1229098
3.278984
7.912261
1.240723
6.558928
4.934159
2.119148
9.135579
4.378956
2.897564
11.12719
4.889894
3.452959
12.14052
6.63991
3.907422
11.98208
8.880808
4.14274
11.01881
11.29327
4.350807
9.747491
13.61244
4.528518
8.552474
15.86837
4.540657
7.779549
18.12927
4.238398
7.459168
20.53281
3.520677
7.280522
22.87732
2.429406
7.279522
24.55701
0.8334475
7.267245
25.30428
-0.6398109
12.494
25.93621
-2.145224
5.181419
33.56421
-2.611228
9.271005
24.68608
-2.81372
6.69542
23.09061
-2.534239
6.292407
14.76544
-3.828728
7.661816
-1.36941
0.5511364
7.674513
-1.863415
1.200406
10.90545
-1.21094
4.146257
9.270955
0.0772796
6.805593
4.680297
1.258295
9.915493
0.8594259
2.04124
13.38129
-1.219824
2.550354
16.77356
-1.900591
2.712276
19.21322
-0.9503545
2.620653
20.55972
1.513116
2.672262
20.39968
4.722684
2.903851
18.94358
7.770847
3.446634
16.98358
10.72684
4.330978
14.94247
13.33187
5.202893
13.2971
15.92011
5.741153
12.01499
18.07319
5.566302
11.00658
20.2836
4.861601
10.31927
22.38521
3.748563
9.692291
23.81685
2.602394
9.620004
24.46295
1.232604
15.57112
24.42622
0.06776907
7.957821
30.53528
-0.1251456
10.81935
20.47882
-0.249728
7.038125
18.13585
0.41081
10.51212
4.187822
-0.5403424
6.039403
-5.499061
2.889904
9.775724
-5.531458
5.356177
9.064623
-0.6254471
8.1205
3.947577
0.9851574
10.29893
-0.7629928
1.950234
13.02526
-4.306703
2.43512
15.69464
-6.455204
2.41931
18.4951
-6.973315
2.080879
21.09497
-5.974712
1.541496
23.11813
-3.467558
1.066571
24.08148
0.7553114
1.077079
23.06941
5.115643
1.676785
21.43045
8.739216
3.008186
19.53845
11.52774
4.467605
17.9851
13.7883
5.655895
16.02375
15.69775
6.145455
14.50993
17.98079
6.181648
13.18145
19.80699
5.515652
11.96607
21.31874
4.672971
11.30033
22.32053
3.746059
11.1888
22.31721
2.791706
17.16893
21.36888
2.158075
9.953739
25.24756
2.158854
11.36814
14.58035
2.141099
7.701613
12.13727
2.041384
6.466573
1.23504
0.4292253
5.152393
-5.581618
4.398469
8.264632
-6.194473
7.140063
8.577564
-1.543433
8.143707
5.551736
0.2518751
9.147037
-0.05120219
1.747759
10.70786
-4.562407
2.763965
11.79178
-7.962428
3.071789
12.76361
-9.908863
3.053653
14.00038
-10.50901
2.929895
15.68763
-9.568488
2.660548
17.43278
-7.328771
2.211192
19.50286
-3.332095
1.859174
20.50539
2.04176
1.854236
20.31314
6.761497
2.736086
19.45296
9.878103
4.024564
18.29795
11.98269
5.30327
16.85524
13.58108
6.219333
15.76667
15.26187
6.721746
14.23525
16.92409
6.562033
12.97561
18.69955
6.240573
12.16273
19.52869
5.632421
11.93142
19.51429
4.991957
12.10452
18.32048
4.516774
18.16373
16.20214
4.423746
13.94297
16.1931
4.849538
11.10343
10.11038
4.866423
6.445157
5.292325
5.83252
2.407178
4.037979
4.861395
5.675524
-5.384526
7.25641
8.417454
-2.547837
8.349473
8.382775
-0.8982747
8.369769
1.822416
0.904794
8.869571
-2.56252
2.724774
8.646403
-6.881994
3.865965
7.536377
-9.872036
4.322139
6.425349
-11.50289
4.587497
5.540512
-12.02587
4.744589
5.491969
-11.79826
4.728133
6.440865
-10.58782
4.593382
8.737224
-7.90069
4.515183
11.61804
-2.915917
4.361867
13.27498
3.205405
4.516776
13.89257
7.163929
5.243778
13.88531
9.507619
6.102504
13.41464
11.11554
6.887984
12.75199
12.54155
7.42166
11.94292
13.88271
7.542123
11.53732
15.17321
7.43165
11.47529
15.90044
7.110005
12.15189
15.37238
6.748487
13.18516
13.72259
6.601952
14.68396
11.30499
6.902931
19.19055
12.7482
7.668249
19.61982
2.036116
7.644991
12.58181
4.344259
7.986073
2.314323
12.67467
7.373175
4.621897
-6.319548
10.89093
7.273583
-2.373885
10.8189
5.920951
-0.584578
8.617844
1.013954
1.43833
7.374731
-3.504356
3.712075
4.828184
-7.185833
5.162918
1.487847
-9.542027
5.889464
-1.545114
-11.1992
6.426673
-3.818168
-12.39385
6.767066
-5.189491
-13.1561
6.851018
-5.673071
-12.9635
6.929777
-5.078103
-11.426
7.168524
-2.462059
-8.356199
7.668324
1.231143
-3.054708
7.713344
3.839199
2.105576
7.707715
5.278227
5.433716
7.959819
6.133402
7.339374
8.285608
6.626248
8.770557
8.48344
7.013028
9.847101
8.494161
7.86051
10.39841
8.399673
9.752254
10.22122
8.340604
12.46372
8.523741
8.352178
15.80395
6.243474
8.767558
19.05316
3.77066
9.54515
30.26246
1.501558
10.47455
28.63124
1.014773
11.09327
19.58515
2.146706
11.24365
4.670041
17.22943
3.165771
3.946113
-7.111884
10.26909
6.482274
-8.963697
13.06784
7.001062
-2.526225
9.841473
5.318925
-0.5636792
8.214431
0.8546576
2.237236
5.24571
-2.953523
4.893813
0.4181846
-5.525954
6.529224
-4.400306
-7.634127
7.540973
-7.866618
-10.10722
8.314883
-10.50275
-12.5685
8.587868
-12.48546
-14.28627
8.518388
-13.84441
-14.85653
8.519886
-14.48908
-14.1031
8.734761
-14.20916
-11.97813
9.138468
-11.96612
-8.620214
9.515048
-8.466614
-4.67962
9.648722
-5.176573
-1.126224
9.588951
-2.63679
1.41882
9.525079
-0.4248987
2.960411
9.48697
2.036091
3.506299
9.407733
5.326486
2.909217
9.470317
9.612227
1.724873
9.881356
14.29139
-0.0885619
10.70757
18.32877
-1.949047
11.51811
20.77327
-3.43757
12.17665
21.84613
-3.930985
12.80813
28.53313
-3.541072
12.55859
19.87546
-0.04837399
10.85276
8.057821
2.195549
14.29213
2.224929
5.832892
8.394043
4.172549
-8.620479
12.84012
6.231944
-4.195748
15.67264
6.71704
-2.548497
10.95896
5.550643
-0.7782451
8.174712
1.818857
2.535436
3.469018
-0.8500913
5.678721
-2.547418
-2.663969
7.63131
-7.154908
-5.83792
8.963991
-10.3367
-9.747934
9.57883
-12.87432
-13.17253
9.549726
-14.86628
-15.58754
9.258113
-16.29884
-16.72223
9.087649
-17.14077
-16.53562
9.198618
-17.25774
-15.14943
9.559014
-16.36022
-12.85575
10.02123
-14.30188
-10.14585
10.42703
-11.29886
-7.620392
10.66938
-7.852929
-5.610109
10.75207
-4.181643
-4.421858
10.79112
-0.4163814
-4.125104
10.91606
3.096245
-4.588225
11.34613
6.298439
-5.362773
11.8472
9.144342
-6.677895
12.07702
10.44973
-7.666041
11.7237
10.64418
-8.082488
11.25778
9.674576
-7.518363
10.64086
11.76518
-6.851796
9.001439
6.520014
-1.568217
6.765008
2.2801
2.282741
4.152722
2.918412
1.586617
10.56754
3.98966
-10.38465
15.29554
5.903814
-4.399875
18.43713
6.618743
-3.043292
12.69694
6.305697
-1.415143
9.309835
3.426285
2.257294
3.96584
1.82214
5.793721
-2.044028
0.1531396
8.148414
-6.395363
-4.252168
9.78257
-9.773837
-9.471151
10.20381
-12.49155
-13.80471
9.944876
-14.52203
-16.92588
9.390536
-15.8735
-18.61804
8.9298
-16.5874
-18.93759
8.765486
-16.64123
-18.13048
8.91362
-15.95901
-16.5436
9.269076
-14.5281
-14.59868
9.668431
-12.51029
-12.70361
9.977278
-10.12755
-11.13354
10.13026
-7.7034
-10.0724
10.13556
-5.621591
-9.512207
10.04279
-4.125775
-9.433627
9.878443
-3.084792
-9.722632
9.6158
-2.632913
-10.20625
9.212384
-3.277383
-10.74103
8.217951
-4.6569
-10.5379
7.02879
-6.482317
-9.421179
5.285397
-9.614544
-8.699121
2.484424
-8.328367
-3.418222
0.5638276
-5.512703
0.7065703
-1.239493
2.206928
-4.80122
12.21438
3.765079
-11.9898
17.61444
5.611534
-5.107777
21.55667
6.579694
-3.903181
15.20539
7.037964
-2.467227
12.08557
4.852848
1.347863
7.267356
4.119476
5.101313
1.662959
2.689249
7.870815
-3.630919
-2.16686
9.705493
-7.771954
-8.668373
10.32492
-11.03517
-14.01927
10.09025
-13.4536
-17.94457
9.369582
-15.09247
-20.23929
8.596222
-16.08146
-21.01264
8.052261
-16.50917
-20.60531
7.83659
-16.45378
-19.41893