/*--------------------------------*- C++ -*----------------------------------*\
  =========                 |
  \\      /  F ield         | OpenFOAM: The Open Source CFD Toolbox
   \\    /   O peration     | Website:  https://openfoam.org
    \\  /    A nd           | Version:  6
     \\/     M anipulation  |
\*---------------------------------------------------------------------------*/
FoamFile
{
    version     2.0;
    format      ascii;
    class       volScalarField;
    location    "50";
    object      T;
}
// * * * * * * * * * * * * * * * * * * * * * * * * * * * * * * * * * * * * * //

dimensions      [0 0 0 1 0 0 0];

internalField   nonuniform List<scalar> 
140018
(
924.1757
924.1771
924.1779
924.1773
924.1311
924.1385
924.1475
924.1568
924.1637
924.1684
924.1696
924.1687
924.0986
924.0999
924.1067
924.1149
924.1262
924.1382
924.1488
924.157
924.1617
924.1633
924.1629
924.1598
924.0956
924.0971
924.0995
924.1024
924.1064
924.1151
924.1271
924.1392
924.1491
924.1549
924.1562
924.1538
924.1493
924.1397
924.1012
924.1051
924.107
924.1088
924.1121
924.1199
924.13
924.1391
924.1451
924.1464
924.1435
924.1382
924.1318
924.1213
924.1109
924.1164
924.119
924.1185
924.117
924.1162
924.1178
924.1225
924.1282
924.1289
924.1262
924.1216
924.1157
924.1081
924.1002
924.0972
924.1285
924.1373
924.1386
924.1358
924.1305
924.1239
924.1172
924.1117
924.108
924.1069
924.1061
924.1063
924.107
924.1083
924.1093
924.1083
924.1389
924.1536
924.1615
924.1629
924.16
924.1547
924.1482
924.1415
924.1353
924.1303
924.1268
924.1246
924.123
924.1192
924.115
924.1107
924.1064
924.1035
924.1588
924.1737
924.1797
924.1798
924.1763
924.1705
924.1634
924.1558
924.1481
924.1408
924.134
924.1277
924.122
924.1169
924.1124
924.1085
924.1056
924.104
924.1722
924.1852
924.1896
924.189
924.185
924.1786
924.1706
924.1617
924.1525
924.1436
924.1355
924.1285
924.1227
924.1179
924.1138
924.1103
924.1076
924.106
924.1778
924.1898
924.1943
924.1946
924.1914
924.1855
924.1774
924.1679
924.158
924.1483
924.1397
924.1326
924.127
924.1224
924.1186
924.1153
924.1122
924.1098
924.1889
924.1952
924.1978
924.1966
924.1921
924.1847
924.1754
924.1652
924.1552
924.1463
924.139
924.1335
924.1293
924.126
924.1233
924.1214
924.1923
924.1947
924.1987
924.2001
924.1978
924.1918
924.1834
924.1735
924.1635
924.1544
924.147
924.1416
924.1377
924.1348
924.132
924.1297
924.1994
924.2001
924.2016
924.2018
924.198
924.1912
924.1822
924.1726
924.1635
924.1559
924.1507
924.1471
924.1454
924.1445
924.2052
924.2034
924.2033
924.2039
924.2026
924.1981
924.1906
924.182
924.1733
924.1654
924.1602
924.1562
924.1546
924.1537
924.2086
924.2065
924.2055
924.2052
924.2034
924.198
924.191
924.1835
924.1752
924.1702
924.1649
924.1649
924.2076
924.2065
924.2062
924.2038
924.1988
924.1932
924.184
924.1806
924.2071
924.2067
924.2043
924.2003
924.1907
924.19
924.189
924.1879
924.1873
924.1878
924.1892
924.1907
924.1909
924.1899
924.1933
924.1933
924.1927
924.192
924.1908
924.1893
924.1874
924.1856
924.185
924.1858
924.1871
924.1879
924.1872
924.1859
924.19
924.189
924.1865
924.1859
924.1866
924.1871
924.1872
924.1866
924.1852
924.1834
924.1822
924.1824
924.1834
924.1841
924.1844
924.1834
924.1873
924.1819
924.1735
924.1684
924.1657
924.1695
924.1732
924.1776
924.18
924.1811
924.1806
924.1797
924.1786
924.1785
924.1793
924.1802
924.1805
924.1788
924.1901
924.1808
924.1654
924.1524
924.1455
924.1422
924.1414
924.1478
924.1531
924.1605
924.167
924.1727
924.1741
924.174
924.1741
924.1739
924.1744
924.1746
924.1728
924.1669
924.1942
924.1866
924.1668
924.1445
924.1308
924.12
924.1164
924.1172
924.1206
924.1293
924.1398
924.1501
924.1591
924.1649
924.1683
924.1684
924.1675
924.1676
924.1661
924.1624
924.1537
924.1416
924.1929
924.1781
924.1489
924.124
924.1098
924.1075
924.1076
924.1088
924.1118
924.1184
924.1288
924.1399
924.1498
924.1567
924.1603
924.1607
924.1597
924.1562
924.1535
924.1469
924.1363
924.1264
924.1944
924.1914
924.1678
924.1282
924.1088
924.107
924.1117
924.1133
924.1139
924.1157
924.1213
924.1318
924.1396
924.1455
924.1486
924.1493
924.1477
924.1449
924.1384
924.1343
924.1258
924.1169
924.1105
924.1053
924.1947
924.1888
924.1551
924.1119
924.1095
924.1188
924.1261
924.1258
924.1231
924.1205
924.1198
924.1219
924.127
924.1303
924.1305
924.1294
924.1268
924.122
924.1157
924.1081
924.1059
924.1037
924.103
924.1034
924.1951
924.1866
924.1402
924.1142
924.1282
924.1424
924.1462
924.1439
924.1383
924.1313
924.1243
924.1184
924.1142
924.1122
924.112
924.1122
924.1121
924.1109
924.1096
924.108
924.1059
924.1045
924.1047
924.1062
924.1955
924.1851
924.134
924.1265
924.1493
924.1648
924.1678
924.165
924.1592
924.1519
924.1444
924.1374
924.1317
924.1273
924.124
924.1211
924.1171
924.113
924.1091
924.106
924.1034
924.1032
924.1049
924.108
924.1962
924.186
924.1444
924.1419
924.1699
924.1811
924.1828
924.1794
924.1731
924.165
924.1562
924.1475
924.1395
924.1322
924.1258
924.12
924.115
924.1108
924.1073
924.105
924.1039
924.104
924.105
924.1066
924.1972
924.1901
924.1623
924.153
924.1778
924.1894
924.191
924.188
924.1817
924.1729
924.1629
924.1526
924.143
924.1346
924.1275
924.1216
924.1169
924.113
924.1099
924.1077
924.1062
924.1052
924.1049
924.1049
924.1987
924.1952
924.1785
924.1677
924.1762
924.1907
924.1954
924.1942
924.1891
924.1807
924.1704
924.1594
924.1491
924.1401
924.1327
924.1269
924.1223
924.1186
924.1156
924.1131
924.1113
924.1094
924.1084
924.1077
924.2007
924.1997
924.1913
924.1845
924.1833
924.1897
924.1961
924.1983
924.1956
924.1887
924.1789
924.1679
924.1572
924.1479
924.1403
924.1346
924.1302
924.1268
924.124
924.1215
924.1191
924.1172
924.116
924.1152
924.2032
924.2034
924.2005
924.1958
924.1938
924.1935
924.1966
924.1999
924.2003
924.1959
924.1876
924.1772
924.1666
924.1571
924.1495
924.1438
924.1396
924.1366
924.1341
924.1322
924.1297
924.128
924.1268
924.1262
924.2061
924.2069
924.2062
924.2041
924.2022
924.2004
924.2001
924.2013
924.2028
924.2014
924.1956
924.1865
924.1765
924.1672
924.1595
924.1538
924.1499
924.1474
924.1455
924.1437
924.1421
924.1409
924.1397
924.1398
924.2098
924.21
924.2094
924.208
924.2069
924.2052
924.2044
924.2045
924.2045
924.2018
924.195
924.1863
924.1775
924.1699
924.1641
924.1604
924.158
924.1569
924.156
924.1558
924.1561
924.1571
924.2139
924.2144
924.2143
924.2136
924.2124
924.2107
924.2086
924.2068
924.2061
924.2055
924.2018
924.1951
924.1875
924.1802
924.1743
924.1703
924.1681
924.167
924.1668
924.1677
924.1686
924.1703
924.2173
924.2178
924.2174
924.2161
924.2142
924.2118
924.2093
924.2075
924.2068
924.2059
924.2022
924.1964
924.1898
924.1836
924.1795
924.1764
924.1757
924.1764
924.1778
924.1799
924.2207
924.2206
924.2193
924.2172
924.2143
924.2113
924.2088
924.2075
924.2073
924.2066
924.2026
924.1985
924.1924
924.1877
924.1845
924.1835
924.1836
924.185
924.2233
924.2222
924.2198
924.2167
924.2131
924.2099
924.208
924.2076
924.2081
924.2076
924.2047
924.2008
924.1966
924.1922
924.1907
924.1895
924.2238
924.2215
924.2183
924.2144
924.2109
924.2085
924.2077
924.2083
924.2094
924.2094
924.2075
924.2048
924.1995
924.1978
924.2182
924.2147
924.2115
924.209
924.2079
924.2082
924.2096
924.211
924.2114
924.2101
924.2024
924.2023
924.2016
924.2007
924.1993
924.1976
924.1954
924.1925
924.1985
924.1989
924.1988
924.1994
924.1994
924.1994
924.199
924.1983
924.1969
924.1949
924.1922
924.1896
924.1863
924.1827
924.1943
924.1948
924.1944
924.1942
924.1946
924.1949
924.1954
924.196
924.1962
924.1958
924.1945
924.1922
924.1898
924.1867
924.183
924.1804
924.1936
924.1933
924.1927
924.1924
924.192
924.1912
924.1908
924.1904
924.1904
924.1911
924.1923
924.1932
924.1932
924.1919
924.1899
924.1871
924.184
924.1811
924.1781
924.1757
924.1934
924.1934
924.1934
924.193
924.1928
924.1924
924.1918
924.1909
924.1897
924.1885
924.1877
924.1879
924.1889
924.19
924.1902
924.1895
924.1877
924.1852
924.1821
924.1799
924.1774
924.1766
924.1934
924.1937
924.1941
924.1946
924.1947
924.1944
924.1939
924.1932
924.1924
924.1914
924.1898
924.188
924.1864
924.1856
924.1859
924.1867
924.1874
924.1869
924.1855
924.1835
924.1811
924.179
924.1769
924.1742
924.1936
924.1944
924.1951
924.1954
924.1944
924.1908
924.1867
924.1844
924.1847
924.1855
924.1862
924.1863
924.1855
924.184
924.183
924.1829
924.1836
924.1842
924.1842
924.1833
924.1813
924.1784
924.1742
924.1674
924.1924
924.1937
924.1947
924.1953
924.1936
924.1859
924.1747
924.1643
924.1572
924.1555
924.1606
924.1665
924.1721
924.1762
924.1783
924.1788
924.1787
924.179
924.1799
924.1807
924.1806
924.1789
924.1744
924.166
924.1526
924.1367
924.1909
924.1922
924.1935
924.1946
924.1942
924.1863
924.1702
924.1519
924.1378
924.1296
924.1266
924.1287
924.1381
924.1487
924.1582
924.1655
924.1701
924.1723
924.1733
924.1739
924.1748
924.1744
924.1716
924.1647
924.151
924.1358
924.1208
924.1096
924.1906
924.1918
924.1931
924.1943
924.1909
924.1745
924.1492
924.1286
924.1185
924.1144
924.1134
924.1152
924.1218
924.1329
924.1442
924.1537
924.1604
924.1641
924.1655
924.1657
924.1652
924.163
924.1574
924.1471
924.1315
924.1198
924.1096
924.1031
924.1901
924.1913
924.193
924.1942
924.186
924.159
924.1284
924.1169
924.1172
924.1176
924.1173
924.1181
924.1223
924.1321
924.1411
924.1474
924.1515
924.1533
924.1532
924.1519
924.1486
924.1436
924.1353
924.1249
924.1141
924.1063
924.1028
924.1009
924.1881
924.1893
924.1908
924.1929
924.1935
924.1793
924.1426
924.1187
924.1254
924.1309
924.1304
924.1272
924.1237
924.1218
924.1227
924.1269
924.1317
924.1337
924.1339
924.1326
924.1289
924.1237
924.117
924.1111
924.1068
924.1046
924.1043
924.1047
924.1044
924.1052
924.1882
924.1892
924.1909
924.1933
924.1932
924.1728
924.1315
924.1303
924.1455
924.1504
924.1485
924.1429
924.1358
924.1286
924.1224
924.1179
924.1153
924.1149
924.1151
924.1146
924.1125
924.1103
924.1082
924.1062
924.1054
924.106
924.1081
924.1101
924.1108
924.1105
924.1886
924.1896
924.1914
924.1939
924.1933
924.17
924.1342
924.1484
924.1659
924.1702
924.1678
924.1618
924.1541
924.146
924.1385
924.1322
924.1273
924.1234
924.1199
924.116
924.112
924.1084
924.1057
924.104
924.1048
924.1078
924.1114
924.1135
924.113
924.1113
924.1898
924.1907
924.1924
924.1946
924.1943
924.1746
924.1467
924.1637
924.1805
924.1839
924.181
924.1747
924.1661
924.1565
924.1472
924.1386
924.1311
924.1247
924.119
924.1142
924.1102
924.1071
924.1053
924.1047
924.1053
924.1065
924.1078
924.1088
924.1091
924.1083
924.1917
924.1924
924.1938
924.1957
924.196
924.1839
924.1638
924.169
924.1868
924.1913
924.1893
924.1834
924.1746
924.164
924.1531
924.143
924.1343
924.1272
924.1214
924.1168
924.1131
924.1103
924.1082
924.1068
924.1059
924.1054
924.1051
924.1051
924.1052
924.1053
924.1943
924.1948
924.1958
924.1973
924.1981
924.1925
924.18
924.1771
924.1862
924.1943
924.195
924.191
924.1831
924.1725
924.161
924.1502
924.1409
924.1335
924.1278
924.1233
924.1198
924.1169
924.1145
924.1123
924.1104
924.1089
924.1077
924.1071
924.1069
924.1073
924.1975
924.1977
924.1984
924.1995
924.2005
924.1985
924.1924
924.1881
924.1891
924.1943
924.1981
924.1971
924.1914
924.182
924.1707
924.1596
924.1499
924.1423
924.1366
924.1324
924.1292
924.1265
924.124
924.1216
924.1193
924.1172
924.1154
924.1144
924.1141
924.1146
924.2007
924.201
924.2014
924.2022
924.2031
924.2029
924.2005
924.1976
924.196
924.1967
924.1992
924.2009
924.1983
924.1911
924.181
924.1702
924.1604
924.1526
924.147
924.143
924.1402
924.138
924.1359
924.1337
924.1315
924.1293
924.1272
924.1254
924.1243
924.1254
924.2044
924.2049
924.2057
924.2065
924.2068
924.2062
924.2047
924.203
924.2019
924.2019
924.2028
924.2029
924.1988
924.1907
924.181
924.1715
924.1636
924.1579
924.1541
924.1517
924.1502
924.1488
924.1473
924.1457
924.1441
924.1435
924.1416
924.1418
924.2087
924.2089
924.2096
924.2099
924.2104
924.2104
924.2099
924.2088
924.2074
924.2062
924.2055
924.2052
924.204
924.1989
924.1911
924.1825
924.1747
924.1687
924.1648
924.1628
924.1618
924.1613
924.1608
924.1604
924.1598
924.1593
924.1588
924.16
924.2126
924.213
924.2134
924.214
924.2144
924.2147
924.2146
924.2139
924.2126
924.2108
924.2089
924.2073
924.2064
924.2046
924.1995
924.1926
924.1853
924.1791
924.1749
924.1726
924.172
924.1722
924.1728
924.1736
924.1745
924.1746
924.1754
924.1772
924.2162
924.2171
924.2177
924.2182
924.2185
924.2184
924.2179
924.2165
924.2144
924.2119
924.2094
924.2077
924.2069
924.2053
924.2007
924.1948
924.1888
924.1841
924.1813
924.1804
924.1808
924.1821
924.1839
924.1855
924.1871
924.1896
924.2207
924.2212
924.2216
924.2219
924.2217
924.221
924.2195
924.2172
924.2142
924.2111
924.2087
924.2077
924.2077
924.2064
924.2026
924.1977
924.1929
924.1894
924.1876
924.1873
924.1884
924.1901
924.1921
924.1949
924.2249
924.2253
924.2253
924.2253
924.2249
924.2238
924.222
924.2193
924.2159
924.2123
924.2094
924.208
924.2082
924.2089
924.2081
924.2052
924.2012
924.1975
924.1945
924.193
924.1929
924.1939
924.1959
924.1985
924.2282
924.2284
924.228
924.2273
924.2259
924.2238
924.2208
924.2169
924.2129
924.2098
924.2081
924.2082
924.2095
924.2106
924.2104
924.2083
924.2051
924.2014
924.1991
924.1973
924.1978
924.1987
924.231
924.2304
924.2293
924.2275
924.225
924.2212
924.2171
924.2131
924.21
924.2082
924.2081
924.2093
924.2111
924.2126
924.2123
924.2114
924.2083
924.2054
924.2026
924.2023
924.2309
924.2289
924.2254
924.2216
924.2174
924.2135
924.2103
924.2086
924.2083
924.2093
924.2111
924.2131
924.2145
924.2148
924.2141
924.2116
924.2294
924.2261
924.2223
924.2181
924.214
924.2109
924.2091
924.2087
924.2095
924.2111
924.2131
924.2151
924.2168
924.2173
924.2176
924.2144
924.2117
924.2101
924.2095
924.2101
924.2114
924.2129
924.2063
924.2054
924.204
924.2025
924.2007
924.1988
924.2068
924.2068
924.2064
924.2057
924.2051
924.204
924.2027
924.201
924.1991
924.1969
924.1938
924.1913
924.1881
924.1843
924.204
924.2043
924.2048
924.2049
924.2049
924.2041
924.2037
924.2027
924.2014
924.1998
924.1979
924.1955
924.1923
924.1898
924.1866
924.1828
924.179
924.1742
924.2005
924.2013
924.2017
924.2018
924.2022
924.2023
924.2021
924.2017
924.201
924.2001
924.1987
924.1968
924.1943
924.1915
924.1887
924.1855
924.1817
924.1781
924.174
924.1714
924.1972
924.1979
924.1984
924.198
924.1984
924.1984
924.1985
924.1985
924.1985
924.1984
924.1982
924.1974
924.196
924.1938
924.191
924.188
924.1847
924.1813
924.1779
924.174
924.1715
924.1703
924.1951
924.1955
924.1953
924.1953
924.195
924.1948
924.1945
924.1943
924.1941
924.1942
924.1945
924.1949
924.1951
924.1947
924.1934
924.191
924.1883
924.1849
924.1815
924.1783
924.1752
924.1729
924.1711
924.1709
924.1937
924.194
924.1939
924.1938
924.1936
924.1932
924.1929
924.1925
924.192
924.1915
924.191
924.1906
924.1907
924.1912
924.1918
924.1918
924.1907
924.1888
924.186
924.1827
924.1795
924.1766
924.1745
924.1733
924.1724
924.1724
924.1926
924.193
924.1933
924.1934
924.1935
924.1935
924.1934
924.1933
924.1929
924.1924
924.1917
924.1908
924.1898
924.1888
924.1881
924.1881
924.1885
924.1886
924.1881
924.1866
924.1842
924.1814
924.1787
924.1765
924.1749
924.1734
924.1707
924.1652
924.1915
924.192
924.1926
924.1931
924.1936
924.194
924.1944
924.1943
924.1933
924.1916
924.1902
924.1894
924.1889
924.1885
924.1877
924.1867
924.1857
924.1851
924.1852
924.1855
924.1854
924.1843
924.1824
924.18
924.1776
924.1746
924.169
924.1627
924.1516
924.1372
924.1909
924.1916
924.1923
924.1931
924.1939
924.1946
924.1945
924.1915
924.1834
924.1741
924.168
924.1675
924.1709
924.1748
924.1781
924.1803
924.1812
924.1813
924.1812
924.1815
924.182
924.1822
924.1813
924.1792
924.1755
924.1692
924.1581
924.1446
924.1311
924.1192
924.1894
924.1903
924.191
924.1919
924.1929
924.1938
924.1943
924.1911
924.1787
924.1618
924.1469
924.1371
924.1328
924.1358
924.1452
924.1551
924.1635
924.1697
924.1733
924.1751
924.1759
924.1767
924.1773
924.1768
924.174
924.1678
924.1565
924.1408
924.1244
924.1106
924.104
924.0995
924.1889
924.1895
924.1903
924.1912
924.1924
924.1935
924.1929
924.1829
924.1611
924.1392
924.1257
924.1192
924.1168
924.1178
924.1244
924.1361
924.1475
924.1568
924.1632
924.1668
924.1683
924.1689
924.1689
924.1671
924.162
924.1524
924.1383
924.1237
924.1113
924.1025
924.0992
924.0977
924.1883
924.1888
924.1895
924.1905
924.1918
924.1931
924.1902
924.1721
924.1421
924.1248
924.1213
924.1207
924.1198
924.1198
924.123
924.1322
924.1422
924.1491
924.1538
924.1562
924.1568
924.156
924.1537
924.1492
924.1414
924.131
924.1197
924.1105
924.1046
924.1012
924.1004
924.1004
924.1878
924.1881
924.1888
924.1898
924.1914
924.1928
924.1868
924.16
924.1289
924.129
924.134
924.1336
924.1302
924.1263
924.1237
924.1238
924.1275
924.1332
924.1365
924.1375
924.1368
924.1338
924.1293
924.1232
924.1165
924.1107
924.107
924.1055
924.1051
924.1047
924.1055
924.1051
924.1882
924.1878
924.1879
924.1884
924.1896
924.1914
924.1928
924.1834
924.1504
924.1324
924.1469
924.1528
924.1514
924.1459
924.1387
924.1314
924.125
924.1203
924.1175
924.1169
924.1172
924.1166
924.1142
924.1115
924.1089
924.1069
924.1061
924.1068
924.1085
924.1097
924.1098
924.1093
924.108
924.107
924.189
924.1884
924.1883
924.1887
924.1898
924.1918
924.1931
924.182
924.1492
924.1466
924.1657
924.1714
924.1695
924.1635
924.1555
924.1469
924.139
924.1323
924.127
924.1229
924.1193
924.1156
924.1119
924.1086
924.1062
924.105
924.106
924.1091
924.1127
924.1136
924.1116
924.1097
924.1077
924.1055
924.1906
924.1899
924.1895
924.1897
924.1906
924.1925
924.1938
924.1845
924.1587
924.1588
924.1786
924.1841
924.182
924.1757
924.1669
924.1569
924.147
924.1381
924.1306
924.1243
924.119
924.1145
924.1109
924.1082
924.1068
924.1065
924.1071
924.1083
924.1092
924.1095
924.1088
924.1072
924.1056
924.1038
924.1931
924.1921
924.1915
924.1914
924.192
924.1936
924.195
924.1896
924.1725
924.1678
924.1826
924.1908
924.19
924.1846
924.1759
924.165
924.1537
924.1434
924.1348
924.1279
924.1225
924.1183
924.1151
924.1125
924.1106
924.1091
924.108
924.1072
924.1067
924.1063
924.106
924.1056
924.1052
924.1054
924.1962
924.1951
924.1943
924.1939
924.1941
924.1952
924.1967
924.1946
924.1853
924.1791
924.1837
924.1924
924.1952
924.1922
924.1849
924.1744
924.1628
924.1518
924.1426
924.1355
924.1303
924.1263
924.1232
924.1205
924.1181
924.1159
924.1137
924.1118
924.1102
924.1091
924.1085
924.1085
924.1093
924.1109
924.1993
924.1986
924.1977
924.197
924.1969
924.1976
924.1988
924.1987
924.1948
924.1903
924.1894
924.1931
924.1974
924.1979
924.1933
924.1844
924.1734
924.1624
924.1529
924.1457
924.1406
924.1369
924.1342
924.1318
924.1296
924.1273
924.1248
924.1223
924.1199
924.118
924.1167
924.1162
924.117
924.1182
924.2019
924.2013
924.2008
924.2004
924.2007
924.2016
924.2022
924.2012
924.199
924.1973
924.1973
924.1991
924.201
924.1998
924.1937
924.1842
924.1739
924.1645
924.1571
924.1521
924.1488
924.1466
924.1449
924.1434
924.1416
924.1395
924.137
924.1342
924.1314
924.1289
924.1284
924.1261
924.2063
924.2061
924.205
924.2045
924.2045
924.205
924.2058
924.206
924.2053
924.2043
924.2032
924.2029
924.2033
924.2036
924.2009
924.1939
924.185
924.1762
924.1689
924.1637
924.1606
924.1588
924.1578
924.1573
924.1565
924.1552
924.1534
924.151
924.148
924.1451
924.1438
924.1429
924.2104
924.2098
924.2091
924.2088
924.2087
924.2091
924.2097
924.2101
924.2102
924.2099
924.209
924.2078
924.2068
924.2061
924.205
924.2015
924.1948
924.1873
924.1803
924.1749
924.1714
924.1697
924.1691
924.1694
924.1698
924.1697
924.1691
924.1678
924.1659
924.1639
924.1635
924.1648
924.2141
924.2138
924.2133
924.2132
924.2133
924.2136
924.214
924.2145
924.2148
924.2148
924.2141
924.2127
924.2107
924.2088
924.2072
924.2056
924.2023
924.1968
924.1908
924.1853
924.1813
924.179
924.1784
924.1791
924.1802
924.1813
924.182
924.1822
924.1821
924.1826
924.1826
924.1852
924.2173
924.2177
924.2175
924.2177
924.218
924.2185
924.2189
924.2192
924.219
924.2182
924.2166
924.2142
924.2114
924.209
924.2074
924.2063
924.2039
924.1996
924.1947
924.1903
924.1872
924.186
924.1863
924.1875
924.1891
924.1908
924.1923
924.1942
924.1957
924.1977
924.2214
924.2215
924.2219
924.2217
924.2221
924.2225
924.2229
924.223
924.2226
924.2215
924.2196
924.2168
924.2135
924.2104
924.2084
924.2077
924.2075
924.206
924.2026
924.1986
924.195
924.1927
924.1921
924.1927
924.194
924.1958
924.1978
924.2001
924.2022
924.2052
924.2247
924.2254
924.2257
924.2259
924.2263
924.2264
924.2262
924.2255
924.2241
924.2218
924.2187
924.215
924.2114
924.2089
924.2082
924.2087
924.2094
924.2086
924.2059
924.2026
924.1996
924.1978
924.1972
924.1975
924.1987
924.2006
924.2026
924.2052
924.2287
924.2297
924.2297
924.2296
924.2295
924.229
924.2279
924.2261
924.2233
924.2198
924.2158
924.212
924.2093
924.2083
924.209
924.2105
924.2117
924.2113
924.2094
924.2065
924.204
924.2022
924.2012
924.2014
924.2024
924.204
924.2326
924.2331
924.2327
924.2322
924.2312
924.2298
924.2275
924.2242
924.2203
924.2161
924.2123
924.2096
924.2085
924.2091
924.2108
924.2128
924.2141
924.2141
924.2126
924.2102
924.208
924.2057
924.2049
924.2044
924.2358
924.2355
924.2346
924.2333
924.2312
924.2284
924.2248
924.2206
924.2162
924.2125
924.2099
924.2089
924.2094
924.2109
924.2131
924.2152
924.2166
924.2167
924.2151
924.2139
924.2112
924.2089
924.2382
924.2369
924.235
924.2322
924.2288
924.225
924.2208
924.2166
924.213
924.2106
924.2097
924.2101
924.2114
924.2135
924.2157
924.2177
924.2188
924.219
924.2182
924.2164
924.2386
924.2361
924.2334
924.2296
924.2255
924.2209
924.2169
924.2136
924.2116
924.2107
924.2111
924.2122
924.2139
924.2164
924.2184
924.2201
924.221
924.2214
924.2334
924.2295
924.2251
924.2213
924.2177
924.2147
924.2128
924.2121
924.2124
924.2133
924.2148
924.2168
924.219
924.2206
924.2185
924.216
924.2144
924.2138
924.214
924.2142
924.2105
924.2098
924.2089
924.2079
924.2066
924.2051
924.2036
924.2017
924.1996
924.1975
924.2098
924.2097
924.2095
924.2093
924.2086
924.2073
924.2062
924.2047
924.2031
924.2012
924.1989
924.1968
924.1942
924.1906
924.1869
924.1816
924.208
924.2085
924.2082
924.2081
924.2078
924.2069
924.2058
924.2043
924.2026
924.2007
924.1985
924.1962
924.1937
924.1913
924.1878
924.1838
924.1792
924.1744
924.2057
924.206
924.2063
924.2066
924.2066
924.2063
924.206
924.2052
924.2041
924.2026
924.2008
924.1987
924.1962
924.1934
924.1903
924.1874
924.184
924.181
924.1769
924.1724
924.1678
924.1653
924.2026
924.2034
924.2035
924.2041
924.2043
924.2043
924.2042
924.2039
924.2033
924.2024
924.2011
924.1995
924.1974
924.1948
924.1916
924.1881
924.1847
924.1809
924.1776
924.174
924.171
924.1679
924.1654
924.1648
924.1994
924.2002
924.2005
924.201
924.2013
924.2013
924.2013
924.2012
924.2011
924.2007
924.2002
924.1994
924.1983
924.1966
924.1943
924.1912
924.1875
924.1837
924.1795
924.1758
924.1722
924.1695
924.1677
924.1665
924.1657
924.1661
924.1967
924.1973
924.1976
924.1981
924.1982
924.1981
924.1979
924.1977
924.1975
924.1973
924.197
924.1967
924.1965
924.1961
924.1954
924.1939
924.1915
924.1882
924.1844
924.18
924.176
924.1722
924.1695
924.1681
924.1676
924.1676
924.1677
924.1686
924.1946
924.195
924.1952
924.1956
924.1958
924.1956
924.1954
924.195
924.1946
924.1942
924.1938
924.1934
924.193
924.1927
924.1926
924.1926
924.1923
924.1911
924.189
924.1859
924.182
924.178
924.1741
924.1713
924.1698
924.1694
924.1695
924.1698
924.17
924.1699
924.1931
924.1935
924.1938
924.1941
924.1941
924.194
924.1938
924.1936
924.1933
924.1929
924.1925
924.1919
924.1912
924.1905
924.1898
924.1894
924.1893
924.1891
924.1883
924.1867
924.184
924.1807
924.1772
924.1743
924.1725
924.1717
924.1711
924.1705
924.1687
924.1665
924.1919
924.1921
924.1925
924.1928
924.1931
924.1933
924.1935
924.1936
924.1936
924.1931
924.1921
924.191
924.1903
924.1897
924.1891
924.1884
924.1875
924.1867
924.1862
924.186
924.1856
924.1844
924.1823
924.1796
924.1769
924.1745
924.1723
924.1693
924.1654
924.1589
924.1498
924.1396
924.1907
924.191
924.1912
924.1917
924.1922
924.1927
924.1931
924.1936
924.1938
924.1925
924.1882
924.1816
924.1768
924.1761
924.1774
924.1794
924.1814
924.1826
924.183
924.1828
924.1825
924.1825
924.1824
924.1817
924.18
924.1774
924.1737
924.1683
924.16
924.1499
924.1382
924.1258
924.12
924.1126
924.1898
924.19
924.1905
924.191
924.1916
924.1923
924.1931
924.1937
924.1923
924.1843
924.1687
924.1539
924.1436
924.139
924.1429
924.1516
924.1603
924.1675
924.1726
924.1756
924.1769
924.1775
924.178
924.1781
924.177
924.1738
924.1676
924.1574
924.1436
924.1292
924.1164
924.1073
924.1019
924.1009
924.1891
924.1892
924.1897
924.1902
924.1909
924.1918
924.1928
924.1929
924.1871
924.1686
924.1468
924.1316
924.1234
924.1199
924.1201
924.127
924.139
924.1502
924.1591
924.1653
924.1687
924.1703
924.1708
924.1708
924.1689
924.1637
924.1544
924.1411
924.1266
924.1141
924.1052
924.1006
924.0987
924.099
924.1896
924.1886
924.1885
924.1889
924.1894
924.1901
924.1911
924.1923
924.1912
924.1787
924.1517
924.1309
924.1245
924.123
924.1217
924.1211
924.1235
924.1323
924.143
924.1504
924.1556
924.1584
924.1593
924.1589
924.157
924.1528
924.1453
924.135
924.1236
924.1137
924.1067
924.1026
924.101
924.1008
924.101
924.1017
924.1893
924.1884
924.1881
924.1882
924.1886
924.1893
924.1905
924.1918
924.189
924.1696
924.138
924.1312
924.1358
924.1358
924.1325
924.1283
924.1252
924.1249
924.1282
924.1346
924.139
924.1406
924.1402
924.1378
924.1339
924.1282
924.1214
924.1148
924.1099
924.107
924.1057
924.1049
924.1048
924.1045
924.1041
924.104
924.1898
924.1887
924.1881
924.1879
924.1881
924.1888
924.19
924.1916
924.187
924.1622
924.1363
924.1471
924.1541
924.1533
924.148
924.1408
924.1333
924.1268
924.122
924.1192
924.1185
924.1191
924.1186
924.1162
924.1133
924.1104
924.1081
924.1071
924.1074
924.1082
924.109
924.1088
924.108
924.1068
924.106
924.1037
924.1912
924.1898
924.1888
924.1882
924.1881
924.1886
924.19
924.1916
924.1862
924.1608
924.1465
924.1645
924.1718
924.1705
924.1646
924.1564
924.1474
924.1391
924.1322
924.1268
924.1226
924.1191
924.1157
924.1123
924.1093
924.1071
924.1062
924.1069
924.1098
924.1132
924.1122
924.1103
924.1086
924.1068
924.1044
924.102
924.1934
924.1916
924.1903
924.1893
924.1888
924.1891
924.1903
924.192
924.1877
924.1675
924.1577
924.1762
924.1838
924.1825
924.1765
924.1675
924.1572
924.1471
924.1381
924.1306
924.1246
924.1197
924.1157
924.1124
924.1101
924.1087
924.1085
924.1091
924.1101
924.1107
924.1102
924.1088
924.1073
924.1056
924.1038
924.1036
924.1962
924.1943
924.1926
924.1912
924.1903
924.1902
924.1912
924.1928
924.1906
924.1779
924.1689
924.1788
924.1898
924.1903
924.1855
924.1769
924.1661
924.1548
924.1445
924.1362
924.1297
924.1248
924.1211
924.1182
924.1158
924.1138
924.1121
924.1107
924.1096
924.1089
924.1084
924.1081
924.1076
924.1072
924.1072
924.1093
924.1996
924.1975
924.1957
924.194
924.1927
924.1922
924.1928
924.1942
924.1939
924.1876
924.1808
924.1824
924.1904
924.195
924.193
924.1863
924.1762
924.1648
924.1541
924.1454
924.1389
924.1343
924.1309
924.1282
924.1257
924.1232
924.1205
924.118
924.1157
924.1139
924.1127
924.1121
924.1124
924.1129
924.114
924.1169
924.2032
924.2011
924.1996
924.1977
924.196
924.1951
924.1952
924.1963
924.1969
924.1948
924.1911
924.1899
924.1924
924.1967
924.1983
924.1947
924.1866
924.1761
924.1656
924.1568
924.1504
924.1461
924.1434
924.1413
924.1394
924.1371
924.1349
924.1324
924.1297
924.1271
924.1247
924.1228
924.1213
924.1208
924.1219
924.1236
924.2071
924.2058
924.2036
924.2018
924.2001
924.1989
924.1986
924.1992
924.2001
924.2001
924.1989
924.1977
924.1976
924.1991
924.201
924.2008
924.1956
924.1871
924.1776
924.169
924.1626
924.1586
924.1564
924.1552
924.1543
924.1532
924.1521
924.1506
924.1485
924.1458
924.1427
924.1393
924.1357
924.132
924.1315
924.1308
924.2106
924.2097
924.2078
924.2062
924.2047
924.2035
924.2029
924.2032
924.204
924.2046
924.2047
924.2043
924.2039
924.2037
924.204
924.2041
924.2023
924.1964
924.1886
924.1809
924.1746
924.1704
924.1683
924.1677
924.1677
924.1677
924.168
924.1677
924.1668
924.1649
924.162
924.158
924.1531
924.1477
924.1454
924.1454
924.2129
924.2117
924.2105
924.2094
924.2085
924.208
924.208
924.2086
924.2093
924.2098
924.2101
924.2098
924.209
924.208
924.2071
924.2058
924.2031
924.1977
924.1914
924.1856
924.1812
924.1786
924.1778
924.1782
924.1789
924.1801
924.1811
924.1815
924.1811
924.1797
924.1772
924.1739
924.1709
924.1714
924.2171
924.2158
924.2151
924.2143
924.2138
924.2135
924.2135
924.2139
924.2144
924.2151
924.2154
924.2152
924.2142
924.2125
924.2103
924.2083
924.2064
924.2038
924.1998
924.1952
924.1909
924.1877
924.1862
924.186
924.1867
924.1882
924.1899
924.1913
924.1923
924.1926
924.1921
924.1912
924.1919
924.1929
924.2205
924.2206
924.2193
924.219
924.2188
924.2188
924.2189
924.2193
924.2198
924.2202
924.2203
924.2198
924.2185
924.2163
924.2134
924.2105
924.2082
924.2067
924.2052
924.2027
924.1993
924.1961
924.1937
924.1925
924.1925
924.1935
924.1952
924.197
924.1987
924.2001
924.2013
924.2024
924.2043
924.206
924.2232
924.2232
924.2231
924.2233
924.2236
924.2239
924.2243
924.2246
924.2246
924.2243
924.2234
924.2218
924.2191
924.2157
924.2122
924.2094
924.2079
924.2076
924.2073
924.206
924.2035
924.2009
924.1988
924.1977
924.1977
924.1987
924.2001
924.2018
924.2037
924.2056
924.2078
924.2102
924.2279
924.2272
924.2274
924.2278
924.2283
924.2286
924.2287
924.2284
924.2277
924.2263
924.2242
924.2212
924.2174
924.2135
924.2103
924.2086
924.2084
924.2093
924.21
924.2094
924.2075
924.2051
924.2032
924.2022
924.202
924.2025
924.2035
924.2051
924.2071
924.2093
924.2318
924.2321
924.2315
924.2316
924.232
924.2322
924.2321
924.2315
924.2304
924.2286
924.226
924.2226
924.2185
924.2144
924.2111
924.2091
924.2089
924.21
924.2118
924.2129
924.2126
924.2111
924.2092
924.2075
924.2061
924.2053
924.2053
924.2063
924.2079
924.2101
924.2349
924.2355
924.2351
924.2351
924.2351
924.2348
924.234
924.2326
924.2304
924.2273
924.2235
924.2193
924.2151
924.2118
924.2098
924.2094
924.2105
924.2125
924.2145
924.2158
924.2158
924.2147
924.213
924.211
924.2092
924.208
924.2082
924.2092
924.2385
924.2389
924.2384
924.2379
924.2372
924.2362
924.2345
924.2319
924.2285
924.2243
924.2199
924.2158
924.2126
924.2107
924.2103
924.2113
924.2132
924.2154
924.2174
924.2186
924.2187
924.2178
924.2161
924.2138
924.2123
924.211
924.2418
924.2417
924.2407
924.2395
924.238
924.2359
924.233
924.2293
924.225
924.2206
924.2165
924.2135
924.2119