/*--------------------------------*- C++ -*----------------------------------*\
  =========                 |
  \\      /  F ield         | OpenFOAM: The Open Source CFD Toolbox
   \\    /   O peration     | Website:  https://openfoam.org
    \\  /    A nd           | Version:  6
     \\/     M anipulation  |
\*---------------------------------------------------------------------------*/
FoamFile
{
    version     2.0;
    format      ascii;
    class       volScalarField;
    location    "50";
    object      T;
}
// * * * * * * * * * * * * * * * * * * * * * * * * * * * * * * * * * * * * * //

dimensions      [0 0 0 1 0 0 0];

internalField   nonuniform List<scalar> 
140018
(
924.1059
924.1073
924.1084
924.1079
924.0619
924.069
924.0778
924.0873
924.0944
924.0993
924.1008
924.1001
924.0333
924.0345
924.0401
924.0473
924.0579
924.0696
924.0801
924.0883
924.0932
924.0952
924.0953
924.0929
924.0329
924.0342
924.0362
924.0384
924.0414
924.0487
924.0597
924.0712
924.0809
924.087
924.0889
924.0875
924.0839
924.0756
924.0396
924.0433
924.0444
924.0454
924.0476
924.054
924.0632
924.0717
924.078
924.0801
924.0783
924.0739
924.0684
924.0591
924.0506
924.0553
924.0572
924.0561
924.0539
924.0523
924.0528
924.0565
924.0623
924.0639
924.062
924.0582
924.0529
924.0462
924.0369
924.0321
924.0676
924.0755
924.0762
924.0732
924.0678
924.0611
924.0544
924.0485
924.0445
924.043
924.0421
924.0416
924.0415
924.0423
924.0432
924.0425
924.0775
924.0905
924.0972
924.0979
924.0948
924.0895
924.083
924.0763
924.0701
924.0649
924.0612
924.0586
924.0565
924.0532
924.0494
924.0453
924.041
924.038
924.0948
924.1077
924.1126
924.1123
924.1087
924.1029
924.096
924.0885
924.081
924.0739
924.0674
924.0614
924.056
924.0511
924.0468
924.043
924.0401
924.0385
924.1056
924.117
924.1209
924.1202
924.1165
924.1104
924.1027
924.0941
924.0853
924.0767
924.069
924.0623
924.0568
924.0522
924.0482
924.0447
924.0421
924.0406
924.1087
924.1201
924.1247
924.1252
924.1224
924.1169
924.1092
924.1002
924.0907
924.0815
924.0732
924.0664
924.061
924.0566
924.0529
924.0496
924.0466
924.0442
924.1193
924.125
924.128
924.1271
924.1231
924.1161
924.1073
924.0976
924.0881
924.0796
924.0727
924.0674
924.0633
924.0601
924.0574
924.0556
924.1239
924.1251
924.1286
924.1302
924.1283
924.1228
924.1149
924.1055
924.096
924.0874
924.0803
924.0752
924.0714
924.0686
924.0659
924.0637
924.1302
924.1304
924.1316
924.1319
924.1285
924.1222
924.1138
924.1047
924.0961
924.0889
924.0839
924.0805
924.0788
924.0779
924.1357
924.1339
924.1335
924.1337
924.1327
924.1286
924.1216
924.1136
924.1054
924.0979
924.0929
924.0891
924.0876
924.0867
924.1388
924.1367
924.1354
924.1349
924.1334
924.1284
924.122
924.1149
924.1071
924.1024
924.0973
924.0974
924.1375
924.1362
924.1357
924.1337
924.1292
924.124
924.1154
924.1122
924.1366
924.1362
924.1342
924.1305
924.1211
924.1205
924.1196
924.1187
924.1184
924.119
924.1204
924.1216
924.1217
924.1206
924.1233
924.1232
924.1226
924.1219
924.1209
924.1196
924.1179
924.1166
924.1162
924.1171
924.1183
924.1189
924.1182
924.1168
924.1191
924.118
924.1154
924.1151
924.116
924.1168
924.1172
924.1169
924.1158
924.1143
924.1135
924.1138
924.1149
924.1154
924.1155
924.1146
924.1161
924.1104
924.102
924.097
924.0946
924.0986
924.1026
924.1073
924.1101
924.1115
924.1114
924.1109
924.1101
924.1102
924.111
924.1118
924.1121
924.1107
924.1192
924.1094
924.094
924.0814
924.0748
924.0717
924.0713
924.0778
924.0832
924.0909
924.0976
924.1036
924.1052
924.1055
924.106
924.106
924.1065
924.1069
924.1056
924.1009
924.1241
924.1158
924.0956
924.0741
924.0613
924.0518
924.0487
924.0495
924.0526
924.0608
924.0711
924.0813
924.0904
924.0963
924.1
924.1005
924.1
924.1005
924.0996
924.0969
924.0899
924.0794
924.1227
924.1073
924.0782
924.0554
924.0436
924.0423
924.043
924.0441
924.0464
924.052
924.0614
924.072
924.0816
924.0886
924.0927
924.0936
924.0932
924.0905
924.0886
924.0835
924.0744
924.0653
924.1245
924.1211
924.0972
924.0592
924.0437
924.0443
924.0491
924.0503
924.0502
924.0512
924.0555
924.0646
924.0723
924.0783
924.0818
924.0831
924.0822
924.0802
924.0748
924.0716
924.0641
924.0556
924.0489
924.0429
924.1247
924.1186
924.0851
924.0463
924.0482
924.0571
924.0636
924.0628
924.0596
924.0564
924.055
924.0564
924.0611
924.065
924.0657
924.0651
924.0631
924.0594
924.0536
924.0454
924.0428
924.0398
924.0382
924.0381
924.125
924.1166
924.0715
924.0527
924.0668
924.0797
924.0827
924.0801
924.0744
924.0674
924.0604
924.0543
924.05
924.0476
924.0473
924.0474
924.047
924.0457
924.0441
924.0424
924.0405
924.0391
924.039
924.0403
924.1254
924.1155
924.0683
924.0651
924.0862
924.0997
924.102
924.099
924.0931
924.0859
924.0785
924.0716
924.0658
924.0613
924.0579
924.0549
924.0513
924.0474
924.0437
924.0407
924.0379
924.0376
924.0391
924.042
924.1259
924.1168
924.0802
924.0787
924.1038
924.1136
924.1148
924.1115
924.1053
924.0974
924.0889
924.0804
924.0727
924.0657
924.0595
924.0541
924.0493
924.0452
924.0418
924.0395
924.0384
924.0385
924.0395
924.0411
924.1268
924.121
924.0973
924.0884
924.1092
924.1203
924.122
924.1192
924.1133
924.1049
924.0953
924.0855
924.0763
924.0682
924.0614
924.0558
924.0512
924.0474
924.0444
924.0421
924.0407
924.0398
924.0396
924.0396
924.1282
924.1256
924.1119
924.1022
924.1077
924.1205
924.1256
924.1248
924.1202
924.1124
924.1026
924.0921
924.0822
924.0736
924.0665
924.061
924.0565
924.0529
924.0499
924.0475
924.0458
924.044
924.0429
924.0423
924.13
924.1295
924.1231
924.1176
924.1156
924.1203
924.126
924.1284
924.1262
924.1199
924.1107
924.1002
924.0901
924.0812
924.074
924.0684
924.0641
924.0608
924.0581
924.0557
924.0534
924.0515
924.0503
924.0495
924.1324
924.1328
924.1309
924.1273
924.1256
924.1248
924.127
924.1298
924.1305
924.1266
924.1189
924.1091
924.0991
924.09
924.0827
924.0773
924.0733
924.0703
924.0679
924.0661
924.0637
924.0621
924.0609
924.0603
924.1352
924.136
924.1358
924.1344
924.1329
924.1314
924.1308
924.1315
924.1326
924.1316
924.1263
924.1178
924.1085
924.0996
924.0923
924.0869
924.0832
924.0807
924.0789
924.0772
924.0757
924.0746
924.0733
924.0734
924.1388
924.1392
924.139
924.138
924.1372
924.1356
924.1347
924.1344
924.1343
924.132
924.1257
924.1176
924.1094
924.1021
924.0967
924.0931
924.0909
924.0897
924.0889
924.0887
924.0891
924.0899
924.1427
924.1433
924.1434
924.143
924.1421
924.1406
924.1387
924.1368
924.1358
924.1352
924.132
924.1258
924.1187
924.1118
924.1063
924.1025
924.1003
924.0994
924.0992
924.1
924.1009
924.1024
924.1461
924.1467
924.1465
924.1454
924.1438
924.1416
924.1392
924.1373
924.1364
924.1356
924.1323
924.127
924.1209
924.1151
924.1111
924.1081
924.1074
924.1081
924.1094
924.1114
924.1494
924.1494
924.1484
924.1466
924.1439
924.1411
924.1386
924.1371
924.1367
924.1362
924.1327
924.1289
924.1233
924.1188
924.1157
924.1148
924.1148
924.116
924.152
924.1511
924.149
924.1462
924.1428
924.1396
924.1376
924.137
924.1374
924.1371
924.1346
924.1311
924.1272
924.123
924.1216
924.1203
924.1527
924.1506
924.1477
924.144
924.1406
924.1382
924.1372
924.1376
924.1386
924.1387
924.1372
924.1348
924.1299
924.1283
924.1476
924.1443
924.1412
924.1387
924.1374
924.1375
924.1387
924.1401
924.1406
924.1396
924.1326
924.1324
924.1318
924.1309
924.1296
924.1279
924.1258
924.1232
924.1289
924.1293
924.1293
924.1298
924.1299
924.1298
924.1294
924.1286
924.1273
924.1254
924.1228
924.1204
924.1172
924.1138
924.1248
924.1254
924.125
924.1249
924.1254
924.1257
924.1261
924.1266
924.1268
924.1263
924.125
924.1228
924.1205
924.1175
924.114
924.1116
924.124
924.1236
924.1231
924.1229
924.1225
924.1218
924.1215
924.1213
924.1214
924.1222
924.1233
924.124
924.1239
924.1226
924.1205
924.1179
924.115
924.1122
924.1093
924.107
924.1237
924.1236
924.1236
924.1232
924.123
924.1227
924.1221
924.1213
924.1202
924.1192
924.1187
924.119
924.12
924.121
924.1211
924.1203
924.1185
924.1161
924.1131
924.111
924.1086
924.1079
924.1236
924.1239
924.1243
924.1246
924.1247
924.1244
924.1238
924.1231
924.1223
924.1214
924.12
924.1185
924.1172
924.1167
924.1171
924.1179
924.1184
924.1179
924.1165
924.1145
924.1122
924.1102
924.1085
924.1065
924.1238
924.1245
924.1252
924.1254
924.1241
924.1202
924.1159
924.1136
924.114
924.115
924.116
924.1163
924.1158
924.1148
924.1141
924.1142
924.115
924.1155
924.1154
924.1144
924.1127
924.1101
924.1068
924.1015
924.1228
924.124
924.1249
924.1254
924.1233
924.1152
924.1039
924.0935
924.0867
924.0851
924.0903
924.0963
924.1022
924.1066
924.109
924.1099
924.1101
924.1106
924.1115
924.1123
924.1122
924.1108
924.1073
924.1005
924.0891
924.0747
924.1214
924.1226
924.1238
924.1248
924.1242
924.1157
924.0993
924.0816
924.0686
924.0611
924.0584
924.0603
924.0694
924.0798
924.0893
924.0966
924.1014
924.1039
924.1051
924.106
924.107
924.107
924.1049
924.0995
924.0879
924.0741
924.0594
924.0478
924.1211
924.1222
924.1234
924.1245
924.1206
924.1037
924.0791
924.0605
924.0523
924.0491
924.0483
924.0497
924.0553
924.0656
924.0763
924.0855
924.0922
924.0962
924.0979
924.0986
924.0985
924.0972
924.093
924.0844
924.0702
924.0588
924.048
924.0407
924.1206
924.1218
924.1233
924.1242
924.1156
924.0886
924.0606
924.0523
924.0539
924.0542
924.0534
924.0535
924.0566
924.0649
924.0738
924.08
924.0844
924.0866
924.0871
924.0865
924.0841
924.0803
924.0732
924.0636
924.0527
924.044
924.0396
924.0369
924.1188
924.1198
924.1212
924.1232
924.1235
924.109
924.0737
924.0547
924.0628
924.0678
924.067
924.0633
924.0594
924.057
924.0573
924.061
924.0661
924.0685
924.0692
924.0685
924.0657
924.0613
924.0549
924.0488
924.0435
924.0402
924.0391
924.0392
924.0389
924.0395
924.1187
924.1196
924.1212
924.1234
924.123
924.1029
924.0654
924.0679
924.0821
924.0862
924.084
924.0783
924.0712
924.064
924.0578
924.0532
924.0505
924.05
924.0501
924.0497
924.0477
924.0453
924.0429
924.0409
924.0399
924.0403
924.0422
924.0441
924.045
924.045
924.1191
924.12
924.1216
924.1238
924.1232
924.1012
924.0699
924.0846
924.1004
924.1039
924.1013
924.0953
924.0877
924.0797
924.0723
924.0661
924.0612
924.0573
924.0539
924.0502
924.0465
924.043
924.0403
924.0385
924.0391
924.0418
924.0455
924.0479
924.0478
924.0461
924.1201
924.1209
924.1224
924.1245
924.1243
924.1068
924.0826
924.0975
924.1128
924.1157
924.1129
924.1068
924.0985
924.0893
924.0802
924.0719
924.0647
924.0585
924.0531
924.0485
924.0446
924.0416
924.0398
924.0393
924.0398
924.041
924.0424
924.0434
924.0438
924.0433
924.1219
924.1224
924.1237
924.1254
924.1258
924.1157
924.0985
924.1019
924.1175
924.1221
924.1204
924.1149
924.1065
924.0964
924.086
924.0763
924.068
924.0611
924.0556
924.0511
924.0475
924.0447
924.0427
924.0413
924.0405
924.0401
924.0399
924.0399
924.04
924.0401
924.1243
924.1246
924.1255
924.1269
924.1277
924.1234
924.1131
924.1098
924.1168
924.1244
924.1255
924.122
924.1147
924.1047
924.0937
924.0833
924.0744
924.0673
924.0618
924.0575
924.054
924.0512
924.0489
924.0468
924.045
924.0435
924.0423
924.0416
924.0414
924.0417
924.1273
924.1274
924.1279
924.1289
924.1299
924.1286
924.1239
924.1201
924.1203
924.1245
924.1281
924.1276
924.1224
924.1136
924.103
924.0924
924.0832
924.0759
924.0704
924.0663
924.0631
924.0606
924.0582
924.0559
924.0536
924.0515
924.0497
924.0486
924.0483
924.0487
924.1303
924.1305
924.1308
924.1315
924.1324
924.1325
924.1308
924.1286
924.1271
924.1274
924.1294
924.1309
924.1288
924.1222
924.1127
924.1025
924.0932
924.0858
924.0803
924.0765
924.0738
924.0717
924.0697
924.0676
924.0654
924.0633
924.0612
924.0594
924.0582
924.0591
924.1337
924.1341
924.1348
924.1356
924.136
924.1358
924.1348
924.1335
924.1325
924.1323
924.1329
924.1329
924.1293
924.1218
924.1127
924.1037
924.0962
924.0908
924.0871
924.0849
924.0834
924.082
924.0806
924.0791
924.0776
924.077
924.0751
924.0752
924.1378
924.1379
924.1386
924.1388
924.1394
924.1396
924.1394
924.1387
924.1376
924.1364
924.1356
924.1351
924.1339
924.1294
924.1221
924.1141
924.1067
924.101
924.0973
924.0954
924.0944
924.0939
924.0935
924.0931
924.0926
924.092
924.0916
924.0926
924.1415
924.1419
924.1422
924.1428
924.1432
924.1436
924.1437
924.1433
924.1423
924.1407
924.1388
924.1372
924.1361
924.1344
924.1299
924.1235
924.1166
924.1108
924.1068
924.1047
924.104
924.1042
924.1048
924.1055
924.1064
924.1065
924.1072
924.1089
924.1449
924.1457
924.1463
924.1469
924.1472
924.1473
924.1469
924.1458
924.144
924.1416
924.1392
924.1374
924.1365
924.1351
924.131
924.1255
924.1199
924.1155
924.1128
924.1118
924.1122
924.1134
924.1151
924.1167
924.1182
924.1205
924.1492
924.1497
924.1501
924.1505
924.1503
924.1498
924.1486
924.1465
924.1438
924.1408
924.1384
924.1372
924.1371
924.136
924.1327
924.1282
924.1238
924.1204
924.1186
924.1183
924.1192
924.1208
924.1227
924.1253
924.1532
924.1536
924.1537
924.1537
924.1534
924.1525
924.151
924.1486
924.1454
924.142
924.1391
924.1375
924.1375
924.1381
924.1376
924.1351
924.1315
924.128
924.1252
924.1237
924.1235
924.1244
924.1262
924.1286
924.1564
924.1567
924.1563
924.1558
924.1545
924.1527
924.1499
924.1464
924.1426
924.1394
924.1377
924.1375
924.1386
924.1397
924.1397
924.1379
924.1351
924.1317
924.1295
924.1277
924.1281
924.1289
924.1592
924.1586
924.1577
924.1562
924.1539
924.1504
924.1466
924.1427
924.1396
924.1378
924.1375
924.1385
924.1402
924.1416
924.1415
924.1409
924.1381
924.1354
924.1328
924.1324
924.1593
924.1575
924.1544
924.1509
924.1469
924.1431
924.14
924.1381
924.1377
924.1385
924.1401
924.142
924.1434
924.1439
924.1433
924.1411
924.1581
924.155
924.1515
924.1475
924.1436
924.1406
924.1387
924.1381
924.1387
924.1402
924.142
924.1439
924.1456
924.1461
924.1471
924.1439
924.1413
924.1396
924.139
924.1394
924.1405
924.1419
924.1362
924.1353
924.134
924.1326
924.131
924.1292
924.1367
924.1366
924.1363
924.1356
924.1351
924.134
924.1328
924.1312
924.1295
924.1274
924.1245
924.1221
924.1191
924.1155
924.1341
924.1344
924.1348
924.1349
924.1349
924.1342
924.1337
924.1328
924.1316
924.1301
924.1282
924.126
924.123
924.1207
924.1177
924.1141
924.1105
924.1059
924.1307
924.1315
924.1319
924.1321
924.1324
924.1324
924.1322
924.1319
924.1312
924.1303
924.129
924.1271
924.1248
924.1221
924.1195
924.1165
924.113
924.1095
924.1057
924.1031
924.1276
924.1282
924.1287
924.1284
924.1289
924.1289
924.1289
924.129
924.129
924.1289
924.1286
924.1278
924.1264
924.1243
924.1216
924.1188
924.1156
924.1125
924.1093
924.1055
924.1032
924.102
924.1254
924.1258
924.1257
924.1257
924.1255
924.1253
924.1251
924.1249
924.1248
924.125
924.1252
924.1256
924.1257
924.1252
924.1239
924.1216
924.119
924.1158
924.1125
924.1095
924.1066
924.1044
924.1027
924.1025
924.124
924.1243
924.1242
924.1241
924.1239
924.1236
924.1233
924.1229
924.1225
924.122
924.1217
924.1215
924.1217
924.1222
924.1226
924.1225
924.1214
924.1195
924.1167
924.1136
924.1106
924.1079
924.1059
924.1048
924.1038
924.1039
924.123
924.1233
924.1236
924.1237
924.1237
924.1237
924.1236
924.1235
924.1231
924.1226
924.1219
924.1211
924.1203
924.1195
924.119
924.1191
924.1195
924.1196
924.119
924.1174
924.115
924.1124
924.1098
924.1078
924.1063
924.1051
924.1028
924.0982
924.122
924.1224
924.1229
924.1234
924.1238
924.1242
924.1245
924.1243
924.1231
924.1213
924.1199
924.1191
924.1188
924.1185
924.118
924.1173
924.1165
924.1162
924.1164
924.1167
924.1164
924.1153
924.1135
924.1113
924.109
924.1065
924.102
924.0964
924.0861
924.0725
924.1214
924.122
924.1226
924.1234
924.1241
924.1247
924.1244
924.1211
924.1127
924.1033
924.0973
924.097
924.1007
924.1048
924.1083
924.1107
924.1119
924.1123
924.1124
924.1129
924.1134
924.1135
924.1127
924.1108
924.1078
924.1026
924.0932
924.0811
924.0677
924.0555
924.12
924.1208
924.1214
924.1223
924.1232
924.1241
924.1244
924.1209
924.1081
924.0914
924.0773
924.0683
924.0643
924.0672
924.0765
924.0862
924.0946
924.1007
924.1046
924.1065
924.1076
924.1085
924.1092
924.109
924.1068
924.1018
924.0923
924.0782
924.0624
924.0482
924.0407
924.0355
924.1195
924.1201
924.1208
924.1217
924.1227
924.1237
924.1229
924.1125
924.091
924.0705
924.0589
924.0536
924.0514
924.052
924.0578
924.0688
924.0796
924.0886
924.0949
924.0987
924.1005
924.1014
924.1018
924.1008
924.0968
924.0888
924.0762
924.0621
924.0493
924.0394
924.0353
924.0333
924.1189
924.1194
924.12
924.121
924.1222
924.1233
924.1202
924.1019
924.0734
924.059
924.0574
924.057
924.0557
924.0551
924.0574
924.0651
924.075
924.0816
924.0865
924.0893
924.0903
924.0901
924.0887
924.0853
924.0787
924.0692
924.058
924.0481
924.0413
924.037
924.0357
924.0353
924.1185
924.1188
924.1194
924.1204
924.1218
924.123
924.1166
924.0905
924.0629
924.0657
924.0705
924.0698
924.066
924.0617
924.0587
924.0584
924.0615
924.0673
924.071
924.0724
924.0722
924.0701
924.0664
924.0609
924.0543
924.0479
924.0431
924.0407
924.0398
924.0392
924.04
924.0397
924.1189
924.1184
924.1185
924.119
924.12
924.1217
924.1229
924.1134
924.0822
924.0689
924.083
924.0882
924.0864
924.0809
924.0737
924.0663
924.06
924.0552
924.0524
924.0518
924.0522
924.0518
924.0496
924.0469
924.0441
924.0417
924.0407
924.0411
924.0426
924.0438
924.0441
924.0439
924.0427
924.0422
924.1195
924.119
924.1188
924.1192
924.1202
924.1219
924.1231
924.1126
924.0829
924.0824
924.0999
924.1048
924.1026
924.0967
924.0888
924.0804
924.0726
924.066
924.0608
924.0568
924.0533
924.0498
924.0463
924.0431
924.0407
924.0394
924.0402
924.0431
924.0468
924.0483
924.0463
924.0446
924.0428
924.0409
924.121
924.1203
924.1199
924.12
924.1208
924.1225
924.1238
924.1155
924.0928
924.0929
924.1109
924.1158
924.1137
924.1078
924.0993
924.0896
924.08
924.0715
924.0642
924.0582
924.0531
924.0488
924.0453
924.0427
924.0412
924.0409
924.0416
924.0428
924.0438
924.0442
924.0437
924.0423
924.0407
924.039
924.1233
924.1223
924.1218
924.1216
924.1221
924.1235
924.1248
924.1203
924.1058
924.1012
924.1136
924.1215
924.121
924.1161
924.1078
924.0975
924.0867
924.0768
924.0685
924.0618
924.0566
924.0525
924.0493
924.0469
924.0451
924.0437
924.0426
924.0419
924.0414
924.0411
924.0408
924.0403
924.0399
924.0399
924.1262
924.1251
924.1243
924.1239
924.124
924.125
924.1264
924.1248
924.1173
924.1118
924.1149
924.1225
924.1256
924.1231
924.1163
924.1065
924.0955
924.085
924.0762
924.0693
924.0642
924.0603
924.0573
924.0547
924.0524
924.0503
924.0482
924.0463
924.0447
924.0435
924.0429
924.0427
924.0435
924.0448
924.1291
924.1284
924.1275
924.1268
924.1266
924.1272
924.1283
924.1284
924.1255
924.1218
924.1208
924.1236
924.1274
924.1283
924.1242
924.116
924.1056
924.0951
924.0861
924.0791
924.0742
924.0706
924.068
924.0656
924.0636
924.0614
924.059
924.0565
924.0541
924.0521
924.0508
924.0502
924.0507
924.0518
924.1315
924.1308
924.1304
924.13
924.1301
924.1309
924.1316
924.1311
924.1295
924.1281
924.128
924.1294
924.131
924.1302
924.1246
924.1158
924.106
924.0971
924.0901
924.0852
924.0821
924.0799
924.0782
924.0769
924.0752
924.0731
924.0707
924.068
924.0652
924.0627
924.0621
924.0597
924.1357
924.1354
924.1343
924.1338
924.1338
924.1342
924.1349
924.1353
924.135
924.1344
924.1336
924.1332
924.1334
924.1335
924.1312
924.1248
924.1165
924.1082
924.1012
924.0963
924.0933
924.0915
924.0905
924.09
924.0893
924.0882
924.0864
924.0841
924.0812
924.0784
924.077
924.0761
924.1396
924.1389
924.1382
924.1379
924.1378
924.1381
924.1386
924.1392
924.1395
924.1394
924.1389
924.1379
924.1368
924.136
924.1348
924.1317
924.1256
924.1186
924.112
924.1069
924.1036
924.1018
924.1013
924.1016
924.1019
924.1019
924.1013
924.1
924.0983
924.0964
924.0959
924.097
924.1431
924.1427
924.1422
924.1421
924.1421
924.1424
924.1428
924.1433
924.1438
924.1439
924.1435
924.1423
924.1406
924.1386
924.137
924.1354
924.1324
924.1274
924.1218
924.1166
924.1128
924.1106
924.11
924.1106
924.1117
924.1127
924.1134
924.1136
924.1135
924.1139
924.1139
924.1163
924.146
924.1464
924.1462
924.1463
924.1467
924.1471
924.1476
924.1479
924.1479
924.1473
924.146
924.1438
924.1412
924.1387
924.137
924.1359
924.1338
924.1299
924.1254
924.1213
924.1184
924.1171
924.1174
924.1185
924.12
924.1215
924.123
924.1247
924.1262
924.128
924.15
924.15
924.1504
924.1502
924.1505
924.151
924.1514
924.1515
924.1512
924.1504
924.1487
924.1462
924.1431
924.1401
924.138
924.1372
924.137
924.1357
924.1328
924.1291
924.1257
924.1235
924.1228
924.1233
924.1245
924.1261
924.128
924.1302
924.1321
924.1349
924.1531
924.1537
924.154
924.1542
924.1545
924.1547
924.1546
924.1541
924.1528
924.1508
924.148
924.1445
924.141
924.1385
924.1376
924.138
924.1387
924.1381
924.1358
924.1328
924.13
924.1282
924.1276
924.1278
924.1289
924.1305
924.1325
924.1349
924.1569
924.1578
924.1578
924.1578
924.1577
924.1573
924.1564
924.1548
924.1523
924.1491
924.1453
924.1416
924.1389
924.1378
924.1382
924.1396
924.1408
924.1407
924.139
924.1365
924.1341
924.1324
924.1313
924.1315
924.1323
924.1338
924.1606
924.1611
924.1608
924.1604
924.1595
924.1582
924.1561
924.1532
924.1496
924.1456
924.1419
924.1392
924.138
924.1384
924.1398
924.1417
924.1431
924.1433
924.142
924.1399
924.1379
924.1357
924.1349
924.1343
924.1637
924.1635
924.1627
924.1615
924.1597
924.1571
924.1538
924.1499
924.1458
924.1421
924.1395
924.1384
924.1387
924.14
924.1421
924.144
924.1454
924.1457
924.1444
924.1433
924.1409
924.1387
924.166
924.1649
924.1632
924.1607
924.1576
924.1541
924.1502
924.1461
924.1426
924.1402
924.1392
924.1394
924.1405
924.1425
924.1445
924.1464
924.1475
924.1479
924.1472
924.1456
924.1666
924.1643
924.1619
924.1583
924.1546
924.1502
924.1464
924.1432
924.1411
924.1402
924.1403
924.1413
924.1429
924.1452
924.147
924.1487
924.1496
924.1501
924.162
924.1583
924.1542
924.1506
924.1471
924.1442
924.1423
924.1415
924.1416
924.1424
924.1438
924.1456
924.1476
924.1492
924.1478
924.1454
924.1438
924.1431
924.1432
924.1433
924.1401
924.1395
924.1386
924.1377
924.1365
924.1352
924.1337
924.132
924.13
924.128
924.1394
924.1394
924.1391
924.139
924.1383
924.1371
924.1361
924.1347
924.1332
924.1315
924.1293
924.1273
924.125
924.1215
924.1181
924.1131
924.1378
924.1382
924.138
924.1378
924.1375
924.1367
924.1357
924.1343
924.1327
924.1309
924.1288
924.1267
924.1244
924.1221
924.1189
924.1151
924.1107
924.1062
924.1357
924.1359
924.1361
924.1364
924.1364
924.1362
924.1359
924.1351
924.1341
924.1327
924.131
924.129
924.1266
924.124
924.1211
924.1184
924.1152
924.1124
924.1085
924.1042
924.0999
924.0975
924.1327
924.1335
924.1336
924.1341
924.1343
924.1343
924.1342
924.1339
924.1333
924.1325
924.1313
924.1298
924.1278
924.1252
924.1222
924.119
924.1157
924.1122
924.1091
924.1056
924.1028
924.0999
924.0975
924.0969
924.1297
924.1304
924.1308
924.1312
924.1315
924.1315
924.1315
924.1314
924.1313
924.131
924.1304
924.1297
924.1286
924.127
924.1247
924.1217
924.1183
924.1146
924.1107
924.1072
924.1038
924.1013
924.0996
924.0985
924.0977
924.098
924.1271
924.1276
924.1279
924.1284
924.1285
924.1285
924.1283
924.1281
924.1279
924.1277
924.1275
924.1273
924.127
924.1267
924.1259
924.1244
924.122
924.1188
924.1152
924.1111
924.1072
924.1037
924.1012
924.0998
924.0994
924.0994
924.0995
924.1003
924.125
924.1254
924.1256
924.126
924.1261
924.126
924.1257
924.1254
924.125
924.1247
924.1244
924.124
924.1236
924.1234
924.1234
924.1234
924.123
924.1218
924.1196
924.1167
924.1129
924.109
924.1054
924.1028
924.1013
924.101
924.1011
924.1014
924.1016
924.1016
924.1236
924.1239
924.1242
924.1244
924.1245
924.1243
924.1241
924.1239
924.1236
924.1232
924.1228
924.1223
924.1217
924.1211
924.1206
924.1203
924.1202
924.12
924.1192
924.1175
924.1148
924.1116
924.1083
924.1056
924.1039
924.1031
924.1027
924.1022
924.1008
924.0987
924.1224
924.1226
924.1229
924.1232
924.1235
924.1236
924.1238
924.1239
924.1238
924.1231
924.122
924.121
924.1203
924.1198
924.1194
924.1188
924.1182
924.1176
924.1173
924.1171
924.1166
924.1153
924.1133
924.1107
924.1081
924.106
924.1041
924.1016
924.0982
924.0922
924.0835
924.0734
924.1213
924.1215
924.1217
924.1222
924.1225
924.123
924.1234
924.1239
924.124
924.1223
924.1178
924.111
924.1062
924.1057
924.1071
924.1094
924.1116
924.113
924.1137
924.1138
924.1137
924.1138
924.1137
924.1129
924.1114
924.109
924.1059
924.1013
924.0942
924.0849
924.0736
924.0609
924.0546
924.047
924.1204
924.1206
924.121
924.1215
924.122
924.1226
924.1233
924.1239
924.1223
924.1139
924.0983
924.0842
924.0745
924.0702
924.0741
924.0827
924.0913
924.0985
924.1036
924.1067
924.1083
924.1091
924.1096
924.1098
924.109
924.1064
924.1012
924.0925
924.08
924.0661
924.0529
924.0431
924.0371
924.0358
924.1198
924.1198
924.1203
924.1208
924.1214
924.1222
924.1231
924.123
924.117
924.0985
924.0778
924.0643
924.0573
924.0542
924.0543
924.0603
924.0716
924.0823
924.0909
924.097
924.1006
924.1023
924.1032
924.1034
924.1022
924.0981
924.0902
924.0783
924.0643
924.0515
924.0417
924.0363
924.0339
924.0339
924.1203
924.1193
924.1192
924.1195
924.12
924.1207
924.1216
924.1226
924.1213
924.1086
924.0825
924.0644
924.06
924.059
924.0574
924.0564
924.0579
924.0653
924.0757
924.0829
924.0881
924.0912
924.0925
924.0926
924.0915
924.0883
924.082
924.0726
924.0615
924.0511
924.0433
924.0384
924.0363
924.0357
924.0359
924.0365
924.1199
924.1191
924.1188
924.1189
924.1193
924.1199
924.121
924.1222
924.1191
924.1
924.0706
924.0673
924.072
924.0717
924.068
924.0635
924.0601
924.0594
924.0622
924.0685
924.0732
924.0752
924.0753
924.0736
924.0705
924.0655
924.059
924.0521
924.0464
924.0426
924.0407
924.0397
924.0395
924.0393
924.039
924.0389
924.1204
924.1193
924.1188
924.1186
924.1188
924.1194
924.1205
924.1219
924.1171
924.0934
924.0714
924.0829
924.0891
924.088
924.0826
924.0754
924.0679
924.0615
924.0567
924.0539
924.0533
924.0541
924.0539
924.0517
924.049
924.0459
924.0433
924.0418
924.0418
924.0425
924.0433
924.0433
924.0427
924.0417
924.0411
924.0392
924.1217
924.1203
924.1194
924.1188
924.1187
924.1192
924.1204
924.1218
924.1166
924.0933
924.0818
924.0986
924.105
924.1034
924.0976
924.0896
924.0808
924.0727
924.0659
924.0606
924.0566
924.0532
924.0499
924.0467
924.0438
924.0416
924.0406
924.0412
924.0437
924.0474
924.0469
924.0451
924.0435
924.0419
924.0397
924.0373
924.1237
924.122
924.1208
924.1198
924.1193
924.1195
924.1206
924.1221
924.1182
924.1004
924.092
924.1085
924.1155
924.1141
924.1084
924.0999
924.09
924.0802
924.0715
924.0643
924.0585
924.0538
924.0499
924.0467
924.0445
924.0432
924.0429
924.0435
924.0446
924.0453
924.045
924.0437
924.0422
924.0405
924.0387
924.0381
924.1263
924.1245
924.1229
924.1216
924.1207
924.1205
924.1214
924.1228
924.121
924.1102
924.1023
924.1103
924.1204
924.1212
924.1168
924.1088
924.0985
924.0877
924.0779
924.0698
924.0636
924.0588
924.0552
924.0524
924.0501
924.0483
924.0467
924.0453
924.0442
924.0435
924.043
924.0427
924.0422
924.0416
924.0414
924.043
924.1295
924.1275
924.1257
924.1242
924.1229
924.1224
924.1228
924.124
924.1239
924.1189
924.1131
924.114
924.1208
924.1253
924.1238
924.1177
924.1082
924.0974
924.0872
924.0788
924.0725
924.068
924.0648
924.0622
924.0598
924.0574
924.0549
924.0525
924.0502
924.0483
924.047
924.0463
924.0464
924.0467
924.0476
924.0502
924.1329
924.1309
924.1294
924.1276
924.126
924.1251
924.125
924.126
924.1267
924.1252
924.1223
924.1212
924.1231
924.1268
924.1286
924.1254
924.118
924.1082
924.0982
924.0898
924.0836
924.0795
924.0768
924.0749
924.073
924.0708
924.0688
924.0663
924.0637
924.0611
924.0587
924.0567
924.055
924.0543
924.0553
924.0568
924.1365
924.1353
924.1332
924.1314
924.1298
924.1286
924.1282
924.1287
924.1296
924.1298
924.1291
924.1283
924.1282
924.1294
924.1311
924.131
924.1264
924.1184
924.1095
924.1014
924.0953
924.0914
924.0892
924.0881
924.0872
924.0861
924.0852
924.0837
924.0817
924.0791
924.0761
924.0727
924.069
924.0653
924.0647
924.064
924.1399
924.1389
924.1372
924.1356
924.1341
924.1329
924.1323
924.1325
924.1332
924.1339
924.1342
924.1342
924.134
924.1339
924.134
924.1341
924.1325
924.1271
924.1198
924.1125
924.1065
924.1026
924.1005
924.0999
924.0999
924.0999
924.1001
924.0999
924.099
924.0973
924.0945
924.0906
924.0858
924.0806
924.0782
924.0781
924.142
924.1408
924.1397
924.1386
924.1377
924.1372
924.1371
924.1376
924.1383
924.1389
924.1394
924.1394
924.1389
924.138
924.137
924.1357
924.1331
924.1282
924.1223
924.1169
924.1127
924.1103
924.1094
924.1097
924.1104
924.1115
924.1125
924.1129
924.1125
924.1112
924.1088
924.1056
924.1027
924.1032
924.146
924.1447
924.144
924.1433
924.1427
924.1424
924.1423
924.1427
924.1433
924.144
924.1445
924.1444
924.1436
924.1421
924.1401
924.1381
924.1361
924.1338
924.1301
924.1258
924.1218
924.1188
924.1173
924.1171
924.1177
924.119
924.1207
924.122
924.1229
924.1232
924.1228
924.122
924.1226
924.1234
924.1492
924.1492
924.148
924.1476
924.1475
924.1474
924.1476
924.1479
924.1484
924.1488
924.149
924.1487
924.1476
924.1456
924.143
924.1402
924.1379
924.1363
924.1349
924.1327
924.1296
924.1266
924.1243
924.1232
924.1231
924.124
924.1256
924.1273
924.1289
924.1302
924.1313
924.1324
924.1341
924.1357
924.1517
924.1517
924.1516
924.1518
924.152
924.1523
924.1527
924.153
924.1531
924.1528
924.1522
924.1507
924.1483
924.1452
924.1418
924.1391
924.1375
924.137
924.1368
924.1357
924.1335
924.1311
924.1292
924.1281
924.1281
924.1289
924.1302
924.1318
924.1335
924.1353
924.1373
924.1395
924.1562
924.1555
924.1556
924.1561
924.1565
924.1568
924.1569
924.1567
924.1561
924.1549
924.153
924.1503
924.1468
924.1431
924.14
924.1381
924.1378
924.1385
924.1393
924.1389
924.1373
924.1351
924.1333
924.1324
924.1321
924.1325
924.1334
924.1348
924.1367
924.1387
924.1599
924.1602
924.1595
924.1597
924.1601
924.1603
924.1602
924.1597
924.1588
924.1571
924.1548
924.1516
924.1479
924.144
924.1407
924.1387
924.1382
924.1392
924.1408
924.142
924.1419
924.1406
924.139
924.1373
924.136
924.1352
924.1351
924.136
924.1375
924.1395
924.1628
924.1634
924.163
924.163
924.163
924.1628
924.1621
924.1609
924.1589
924.1561
924.1526
924.1486
924.1446
924.1414
924.1394
924.1388
924.1397
924.1415
924.1434
924.1447
924.1448
924.144
924.1425
924.1407
924.1389
924.1377
924.1378
924.1387
924.1663
924.1667
924.1661
924.1657
924.1652
924.1642
924.1627
924.1604
924.1573
924.1534
924.1492
924.1453
924.1421
924.1402
924.1397
924.1405
924.1422
924.1443
924.1461
924.1474
924.1476
924.1469
924.1454
924.1433
924.1418
924.1405
924.1694
924.1694
924.1684
924.1673
924.166
924.1641
924.1615
924.1581
924.1541
924.1499
924.146
924.1431
924.1414
924.141
924.1417
924.1432