/*--------------------------------*- C++ -*----------------------------------*\
  =========                 |
  \\      /  F ield         | OpenFOAM: The Open Source CFD Toolbox
   \\    /   O peration     | Website:  https://openfoam.org
    \\  /    A nd           | Version:  6
     \\/     M anipulation  |
\*---------------------------------------------------------------------------*/
FoamFile
{
    version     2.0;
    format      ascii;
    class       volScalarField;
    location    "49.8";
    object      alphat;
}
// * * * * * * * * * * * * * * * * * * * * * * * * * * * * * * * * * * * * * //

dimensions      [1 -1 -1 0 0 0 0];

internalField   nonuniform List<scalar> 
203709
(
0.7968121
1.322396
1.352286
0.8560395
0.8203724
1.370751
1.892296
2.415646
2.456149
1.990023
1.463884
0.8969968
0.7747534
1.309864
1.85554
2.419777
2.636168
2.764105
2.769346
2.656124
2.46485
1.921029
1.335616
0.8085588
0.7581066
1.663507
2.292569
2.549821
2.7149
2.790667
2.802676
2.751736
2.657158
2.534955
2.365827
2.150997
1.620701
0.7192554
1.256754
2.231243
2.545113
2.671541
2.698075
2.660682
2.609609
2.574481
2.548347
2.517671
2.458914
2.329843
2.035334
1.143222
0.7165257
1.666297
2.300705
2.465439
2.477806
2.434362
2.435383
2.471136
2.514455
2.558649
2.600517
2.623026
2.580858
2.378113
1.674026
0.7082438
1.117332
1.980263
2.205052
2.227459
2.190124
2.223502
2.303284
2.400217
2.491814
2.575175
2.663152
2.743335
2.768892
2.666753
2.321331
1.260765
0.7341396
1.670421
2.081909
2.085351
1.983152
1.985082
2.082783
2.188041
2.320486
2.446168
2.555454
2.674223
2.803265
2.886253
2.853317
2.613793
1.814945
0.7299022
1.155833
2.102218
2.281387
2.239762
2.11649
2.065407
2.086211
2.127668
2.235716
2.377248
2.508378
2.649169
2.821035
2.957703
2.972487
2.809716
2.379024
1.233772
1.13437
2.097886
2.3734
2.415472
2.379384
2.32772
2.261922
2.183262
2.182582
2.30611
2.442606
2.595147
2.807302
2.990546
3.032008
2.876193
2.446755
1.289092
0.7012301
1.674346
2.330305
2.492555
2.518434
2.479357
2.389255
2.269017
2.201187
2.251263
2.369901
2.523179
2.769486
2.991432
3.035943
2.813297
2.003912
0.8309842
1.233661
2.176938
2.462469
2.548471
2.528728
2.436553
2.304866
2.21609
2.228387
2.314341
2.448899
2.711836
2.965013
2.983916
2.652869
1.503761
0.7449352
1.681869
2.3217
2.490249
2.501288
2.421365
2.299198
2.213832
2.210384
2.274323
2.389436
2.63343
2.896216
2.846461
2.088362
0.9279748
1.190659
2.081593
2.329548
2.388373
2.342281
2.255186
2.19066
2.180898
2.224843
2.316502
2.537221
2.749186
2.615996
1.518511
0.7006652
1.497375
2.004184
2.145654
2.18656
2.164708
2.132696
2.117552
2.13468
2.185439
2.347431
2.433295
1.948847
0.9195623
0.6737919
1.105479
1.506508
1.877089
1.960493
1.986868
1.97018
1.939651
1.9084
1.720124
1.395076
0.9141843
0.6413967
1.03164
1.377957
1.673601
1.663319
1.37072
1.081861
0.7697307
0.5503145
0.8810687
0.8893484
0.5704816
0.6218292
0.9967727
1.175311
1.501028
1.620859
1.681164
1.714357
1.698272
1.594163
0.9816345
0.5845914
0.9672289
1.350041
1.711257
2.323653
2.879254
3.142761
3.271595
3.300955
3.234335
3.066443
2.43151
1.739803
1.026228
0.6457634
1.391613
1.829076
1.97015
2.518975
3.165231
3.788556
4.221811
4.379075
4.299597
4.103835
3.889957
3.570421
3.176318
2.3498
1.079102
0.6574366
1.506874
2.098058
2.395218
2.825315
3.400404
4.241856
3.79307
4.494883
4.687198
4.841116
5.204725
4.670231
4.243626
3.873756
3.379839
2.427379
1.088176
0.6122799
1.522395
2.272222
2.727059
3.272165
3.932298
2.812259
4.110186
4.128571
4.890616
5.027167
5.0908
5.114942
5.01266
5.170451
4.504055
3.933368
3.373311
2.369946
1.036794
0.5561963
1.405845
2.288542
2.829316
3.547275
2.02035
3.266373
3.334013
4.476766
4.809595
5.206142
5.342993
5.394878
5.303355
5.128969
4.96358
4.679483
4.461799
3.676656
3.099983
2.160024
0.9311688
1.099331
2.086735
2.822529
3.446449
1.922681
2.894117
4.161304
4.710779
5.410778
5.856766
6.233781
6.489947
6.640306
6.670281
6.598858
6.367933
5.899839
5.02288
3.720335
3.081902
2.5249
1.456353
0.6253687
1.551067
2.674133
3.419069
4.350286
2.848119
4.677684
5.553389
6.123491
6.598831
6.827691
6.806549
6.674201
6.510351
6.379351
6.279851
6.15183
5.861688
5.272825
4.286026
3.241679
2.595448
1.671194
0.571186
1.059025
1.954361
2.856997
3.999178
3.559111
3.836447
5.194496
5.5138
5.576757
5.418476
5.188808
5.06028
5.009726
5.025831
5.093326
5.189868
5.24513
5.017022
4.070599
3.087419
3.748411
3.022275
2.243877
1.031878
1.183908
2.172373
2.868994
4.399223
4.038307
4.734655
5.136879
4.897182
4.631731
4.41295
4.250671
4.191931
4.230683
4.331277
4.502286
4.728333
4.985033
5.077972
4.793666
3.87026
4.37636
3.41523
2.555874
1.197227
1.259178
2.356054
3.064142
4.152765
4.616693
5.190378
5.460738
4.930029
4.581193
4.374712
4.121263
3.963824
3.935171
3.993987
4.181567
4.458057
4.825916
5.06001
4.987485
3.927807
3.063391
3.784406
2.788072
1.316783
1.309541
2.484953
3.284423
3.865694
4.451856
5.000079
5.241918
5.051116
4.76197
4.595599
4.33808
4.074841
3.924512
3.861629
4.007869
4.294286
4.745758
5.075862
5.280366
5.134645
4.543131
4.071551
2.938852
1.398198
1.340602
2.552465
3.368374
3.692301
4.11988
4.56803
4.766202
4.702182
4.573815
4.537117
4.492175
4.32052
4.095463
3.875793
3.932004
4.193816
4.71533
5.073576
5.351481
5.314934
4.895497
4.156286
3.009645
1.449573
1.346417
2.550457
3.288961
3.517057
3.779136
4.090465
4.274546
4.290918
4.285957
4.357723
4.429964
4.40167
4.265446
3.989216
3.931476
4.138744
4.73028
5.074398
5.331585
5.298428
4.946924
4.047179
3.004045
1.472732
1.309111
2.465413
3.114945
3.987824
3.9828
4.082835
4.154929
4.159951
4.17755
4.255175
4.348764
4.390768
4.328457
4.079911
3.971801
4.111942
4.779418
5.066564
5.315415
5.261488
5.061264
3.847771
2.923144
1.459275
1.200036
2.287198
2.908685
3.549426
3.703967
3.827364
3.916092
3.958345
4.003646
4.104145
4.225962
4.321178
4.311842
4.09405
4.001771
4.09906
4.845005
5.072484
5.239705
5.234715
4.559646
3.647182
2.759133
1.37635
0.7311702
1.782
2.625943
3.179202
3.977386
3.962713
3.994645
4.029075
4.035099
4.070652
4.14351
4.227313
4.221992
4.01749
3.987505
4.097206
4.891342
5.032578
5.135912
5.295842
4.164408
3.357161
2.184484
0.8542506
1.280877
2.321852
2.867793
3.429224
3.499113
3.558434
3.630731
3.734586
3.825076
3.948664
4.058299
4.048441
3.842472
3.916986
4.0724
4.932921
4.928992
5.001401
4.651209
3.824144
3.007131
1.579199
0.7712304
1.713709
2.455186
2.910638
3.497846
3.433055
3.449204
3.505348
3.634737
3.779318
3.844833
3.780269
3.55285
3.769254
4.050139
4.92973
4.797331
4.939775
4.084731
3.356245
2.243232
0.9422067
0.8316453
1.816642
2.518034
2.872857
3.222085
3.616137
3.461314
3.462572
3.482527
3.443167
3.352495
3.193414
3.650196
4.035972
5.01222
4.623369
4.099817
3.513977
2.427279
1.042895
0.8427303
1.799193
2.408982
2.66046
2.813629
3.000988
3.245024
3.044376
2.965818
2.94532
2.93809
3.620192
3.926756
4.066351
3.901916
3.447138
2.483996
1.10066
0.8017439
1.651598
2.122681
2.276089
2.382557
2.434102
2.512404
2.588861
2.645965
2.70178
2.893256
3.381989
3.437013
3.192395
2.38673
1.107196
0.7107577
1.141604
1.509635
1.818498
1.859647
1.886167
1.925453
1.998126
2.129696
2.441071
2.770208
2.379385
1.774765
1.055257
0.5888143
0.9199142
0.9587515
0.9741145
1.000114
1.053584
1.165892
1.39375
1.510355
0.9942654
0.631721
0.9727325
0.953128
1.262029
1.512722
1.583376
1.524413
0.9432437
0.7186059
1.262047
1.468819
1.893101
2.246212
2.179472
2.703185
3.174032
3.348367
3.339665
2.769447
2.119452
1.809395
1.031963
0.8472029
1.87993
2.625565
3.024362
3.337779
3.382898
3.326161
3.98977
4.562895
4.796779
4.838326
4.67892
4.26347
3.744919
2.761455
1.271489
0.6406071
1.22598
2.098436
3.157617
3.910381
4.317392
4.772703
5.520441
5.986582
5.281804
5.252219
5.369084
5.421381
5.395746
5.324617
5.452013
4.494648
3.17048
2.003755
1.088217
0.6517583
1.55221
2.506888
3.570684
4.031378
4.059231
4.558067
5.322961
7.081395
7.064071
6.022792
5.88901
6.009262
6.113663
6.13774
6.011281
5.767004
5.254014
5.022273
3.895038
2.642638
1.132659
0.6559132
1.540638
2.446035
3.642458
4.112801
4.56447
5.252162
6.148985
7.659654
7.615171
7.073787
6.448249
6.383105
6.466127
6.56322
6.596701
6.516014
6.290757
5.908342
5.574408
5.222315
4.02722
2.637561
1.086334
1.226254
2.329167
3.405312
3.932801
4.777715
5.687468
6.703532
7.666601
7.090798
7.060218
6.855807
6.769791
6.790439
6.835254
6.847059
6.808697
6.745274
6.604887
6.375904
6.032903
5.623998
5.181916
3.847977
1.986701
0.8219388
1.950264
3.05782
3.627838
4.781736
6.26034
6.541574
6.339472
6.143526
6.191514
6.660994
6.808124
7.027048
7.164763
7.219151
7.177959
7.084319
6.947963
6.768485
6.569714
6.33233
5.950234
5.472584
4.891218
3.089939
1.236057
0.7135264
1.771688
2.763388
3.684193
4.531975
6.689629
6.765835
5.224105
4.757336
5.553189
6.021415
6.670759
7.049796
7.362966
7.550144
7.660679
7.698777
7.666061
7.525083
7.315204
7.02344
6.648667
6.181876
5.681488
5.029259
4.232347
2.629834
0.9688583
1.248302
2.420898
3.394529
4.297058
5.812325
7.994922
5.920431
4.749856
5.37656
6.166327
6.78301
7.454624
8.019163
8.50121
8.872005
9.128964
9.274583
9.32932
9.252017
8.993351
8.497228
7.858175
7.210025
6.561791
5.72048
4.815889
3.31461
1.586511
1.477754
2.814434
3.223623
4.237142
6.784101
8.705774
6.71536
6.004155
6.814539
7.439028
8.073455
8.685073
9.071718
9.102285
8.98498
8.861895
8.839579
8.927045
9.052923
9.061958
8.793508
8.391644
8.196547
7.64985
6.616543
5.135222
3.543735
1.655973
0.7239738
1.97278
3.181155
3.404757
4.057119
5.83218
9.043583
7.765651
7.010242
7.269865
7.344643
7.38579
7.228161
6.909108
6.724703
6.684487
6.795204
7.038024
7.396038
7.805903
8.000897
7.681395
7.162404
7.676629
7.508816
6.367734
4.294648
3.840172
2.105662
0.7038257
1.204411
2.476292
3.419332
3.583109
4.023828
5.111044
7.895861
8.730141
8.097718
7.437374
6.738066
6.281655
5.92172
5.624932
5.485971
5.546195
5.761422
6.119014
6.635091
7.329708
7.903414
8.022969
7.515446
7.377071
7.083918
5.835481
3.468438
3.765832
2.52641
1.127102
1.314576
2.625991
3.57272
3.747002
4.077031
4.747885
6.552711
8.180175
8.628996
8.267356
7.229797
6.508686
6.039875
5.545808
5.201435
5.133006
5.271657
5.604093
6.138776
6.996656
7.817356
8.196799
7.788072
7.134495
6.941898
5.617559
3.416676
3.831676
2.616929
1.179274
1.354106
2.694778
3.671052
3.89797
4.195705
4.609001
5.573193
6.949305
7.828032
8.019705
7.628147
7.139496
6.598286
6.0117
5.438972
5.16093
5.124749
5.352874
5.820525
6.776962
7.785873
8.394889
8.354006
7.721301
6.86646
5.53182
3.611348
3.903006
2.653803
1.185927
1.358298
2.7165
3.723633
4.018416
4.341201
4.652437
5.115524
5.944891
6.704901
7.075614
6.99769
6.734923
6.508899
6.260945
5.85537
5.456944
5.21597
5.288064
5.626404
6.636339
7.774903
8.466227
8.462294
7.799218
6.76945
5.476367
3.914547
3.939335
2.656211
1.182509
1.324845
2.682736
3.715569
4.068804
4.443405
4.740749
5.031331
5.424425
5.901376
6.19711
6.233219
6.134687
6.09159
6.057873
5.908873
5.676122
5.426396
5.354629
5.529616
6.561974
7.7913
8.474018
8.406345
7.718176
6.671917
5.460981
4.235425
3.930604
2.619174
1.159932
1.216663
2.545101
3.606777
3.975514
4.387744
4.709225
4.98723
5.238604
5.499442
5.691675
5.74301
5.731418
5.753456
5.790023
5.779872
5.71168
5.563336
5.465317
5.499104
6.532432
7.815848
8.41231
8.331625
7.607374
6.545309
5.434877
4.46406
3.853191
2.511032
1.089506
0.7490919
2.05903
3.397961
3.710797
4.102905
4.437917
4.735831
4.992548
5.187722
5.352774
5.402847
5.400736
5.423991
5.483012
5.56162
5.624223
5.58863
5.528674
5.505619
6.5137
7.820371
8.403724
8.275619
7.536356
6.506822
5.390637
4.464384
3.671479
2.033807
0.684148
1.628534
3.137644
3.464755
3.733304
4.043849
4.318541
4.568394
4.762921
4.928952
5.025102
5.065667
5.110222
5.1922
5.329192
5.47101
5.514264
5.50871
5.489624
6.493349
7.843899
8.271542
8.101605
7.390699
6.404495
5.298186
4.48951
3.362339
1.568312
1.46853
2.856492
3.989474
4.035116
4.16928
4.301713
4.434963
4.552832
4.666564
4.740558
4.771071
4.805993
4.907489
5.087843
5.268054
5.351707
5.391333
5.406606
6.472339
7.769761
8.017227
7.804464
7.132831
6.173436
5.075881
4.621983
2.995736
1.355363
0.8858248
2.213443
3.450452
3.616284
3.687693
3.784229
3.857905
3.929195
4.038517
4.164873
4.289215
4.422986
4.609712
4.830852
5.009613
5.099873
5.165704
5.243603
6.47352
7.5594
7.620987
7.39845
6.752526
5.816852
4.796532
3.864602
2.249673
0.7821194
1.10922
2.644454
4.034287
4.095633
4.087109
4.05989
3.991634
3.952502
3.974229
4.051776
4.171605
4.351043
4.536321
4.667704
4.747102
4.838522
5.124617
6.381799
7.235465
7.101488
6.872755
6.223799
5.402784
4.610006
2.779454
1.053855
1.78358
3.300156
4.253218
4.207678
4.12624
3.999079
3.858062
3.784055
3.777974
3.847539
3.981102
4.112206
4.214712
4.344623
4.545055
5.095051
6.177668
6.855755
6.508501
6.250084
5.719031
5.072656
3.651021
1.791813
0.9935387
2.303043
3.348014
4.161196
4.018757
3.861948
3.680583
3.535046
3.467845
3.480482
3.555191
3.654839
3.784679
4.002044
4.3471
5.087732
5.902621
6.452424
5.846734
5.711653
5.30855
3.972697
2.534077
1.001065
0.9911432
2.231591
3.105981
3.787457
3.553604
3.447317
3.289727
3.188052
3.160906
3.193943
3.280784
3.44169
3.752376
4.28966
5.008447
5.499201
5.99261
5.268968
5.217947
4.023443
2.674309
1.105207
0.9021399
1.579045
2.358433
3.132355
3.552276
3.145184
2.937307
2.852809
2.859397
2.952447
3.157155
3.601781
4.269911
4.816687
5.073859
5.621746
4.68782
3.363029
2.136177
1.12946
0.9157256
1.885544
2.371041
2.516138
2.596687
2.596269
2.603689
2.68498
2.930361
3.565783
4.271754
4.608168
4.456049
3.980611
2.95145
1.380236
0.6625572
1.100177
1.216812
1.515531
1.801275
1.877996
1.990391
2.281215
2.792258
3.196476
2.861715
2.319379
2.014336
1.153643
0.5131355
0.8464046
0.9380198
1.038911
1.236315
1.486078
1.602705
1.05787
0.6077631
1.148313
1.296937
1.467264
1.472697
0.926648
0.5702308
1.047482
1.297462
1.528851
2.056292
3.065424
3.406218
3.650832
3.752282
3.222409
2.508317
2.174262
1.804178
1.014854
0.5239709
1.049652
1.749393
2.550732
3.051932
3.017406
2.799875
3.934943
5.25606
4.602339
4.610591
4.49718
4.391896
4.967625
4.30037
3.169511
2.024626
1.040445
0.649601
1.530888
2.461811
3.253692
2.720488
2.672109
3.107844
3.68074
4.908688
6.618089
6.041998
5.993193
6.206235
6.217244
6.111797
5.466169
4.75457
4.472797
2.913133
1.226789
0.7893859
1.775755
2.832926
3.497365
3.904822
4.196684
4.505704
4.930445
5.539576
6.900664
8.003143
7.547799
7.482113
7.873795
8.023884
7.812737
7.208744
6.423663
5.771075
5.131099
3.265734
1.382608
0.9008772
2.027
2.489969
2.926599
3.631227
4.400793
4.990096
5.490417
6.030705
6.977091
8.701314
9.449422
8.896755
8.881854
9.251799
9.431505
9.215068
8.632982
7.799765
6.752598
5.682456
4.374713
3.539514
1.436176
0.95795
2.190303
2.444991
3.06371
3.983783
4.83589
5.493533
5.991361
6.479425
7.054806
8.422785
10.27386
10.22364
9.863579
9.968017
10.18549
10.332
10.12703
9.586854
8.815466
7.872329
6.802688
5.57192
4.555354
3.553588
1.393509
0.9208823
2.198781
2.400464
2.79488
3.650485
4.696983
5.551504
6.345961
7.112755
7.994274
9.441272
10.35971
10.5757
10.31867
10.41384
10.66588
10.7639
10.71193
10.54116
10.12192
9.501156
8.715832
7.801244
6.759664
5.588251
4.403131
3.291454
1.243256
0.8155823
2.103663
3.403746
3.275154
3.724654
4.659642
5.371581
6.440341
7.596057
8.687729
10.36041
10.22357
9.923638
10.08892
10.27972
10.66579
10.94213
10.99345
10.88894
10.63138
10.3002
9.908621
9.360057
8.660839
7.821265
6.832748
5.719074
5.115711
2.924877
1.050952
1.535524
3.159609
3.411465
3.615928
4.194898
4.900616
5.982042
7.865091
9.060981
9.590589
8.862546
8.852412
9.252989
9.736542
10.22203
10.6296
10.80601
10.79397
10.70187
10.55069
10.34978
10.06279
9.672792
9.260602
8.65315
7.823106
6.715186
5.725717
4.390779
1.988198
0.7954827
2.327627
2.952799
3.359031
3.739568
4.338768
5.196559
7.354043
9.644427
8.543661
7.533069
7.808628
8.341228
9.026486
9.659502
10.14963
10.40881
10.47458
10.45633
10.41124
10.3328
10.2188
10.06502
9.860025
9.561031
9.015207
8.428899
7.531462
6.345377
4.754108
3.03386
0.9948102
1.390937
3.13549
3.417451
3.730485
4.025973
4.645134
6.069699
9.738446
9.503274
7.722061
7.629786
8.074611
8.71661
9.467674
10.15687
10.68455
11.01553
11.19536
11.30807
11.3825
11.36161
11.17848
10.83478
10.41177
9.965369
9.453929
8.844399
7.949584
6.775656
5.251516
3.972763
1.652237
1.680251
3.65588
3.923817
4.181747
4.399932
4.923139
6.854454
11.43062
9.78013
8.559641
8.602237
9.014199
9.659952
10.35198
10.84466
10.89821
10.77869
10.7059
10.80598
11.0761
11.40786
11.58818
11.47251
11.1896
10.87023
10.10563
9.068146
8.067602
7.05371
5.335076
4.414916
1.862371
1.966257
2.994914
3.760412
4.281429
4.578039
5.027771
6.392253
10.85948
11.07436
9.527356
8.991257
8.819943
8.832116
8.720507
8.380371
8.192057
8.202219
8.449052
8.919482
9.599967
10.40805
10.98022
11.0062
10.72041
10.90017
10.47635
9.202871
7.49557
6.927006
5.333396
4.450038
2.166386
0.7932243
2.583172
3.313601
4.062807
4.53504
4.806238
5.128311
5.949876
8.930112
11.46708
10.84426
9.455935
8.323778
7.678008
7.234744
6.867451
6.695727
6.810529
7.18257
7.79185
8.692024
9.931114
11.02119
11.45726
11.17849
10.80201
10.26491
8.944232
6.85212
6.913025
5.624844
3.972383
2.895999
0.9007746
1.301254
3.119477
3.774667
4.47961
4.92665
5.169148
5.368744
5.835804
7.366509
9.8824
10.99153
10.58587
9.253309
8.193438
7.498658
6.830415
6.341603
6.259118
6.521278
7.076943
7.988246
9.494342
10.97468
11.71244
11.55969
10.89238
10.09411
8.628416
6.5896
7.02706
5.99408
3.872184
3.556093
1.452618
1.383609
3.214974
3.974888
4.76987
5.299627
5.593729
5.752452
6.001529
6.600652
8.166477
9.578092
10.05188
9.685221
9.198985
8.391433
7.524626
6.681363
6.275063
6.297347
6.701656
7.497966
9.169993
10.95914
11.91099
11.9115
11.16882
10.00394
8.455158
6.646424
6.389031
5.049688
3.060749
3.31947
1.421272
1.378446
3.196932
3.997295
4.889022
5.553084
5.972818
6.184841
6.329221
6.557617
7.19428
8.127621
8.731688
8.770335
8.502271
8.191749
7.802685
7.209693
6.638892
6.389729
6.589642
7.196086
8.965447
11.00052
12.0547
12.0769
11.27786
9.970657
8.369006
6.708579
5.833312
4.307976
2.605213
2.82886
1.230531
1.287962
3.064361
3.856876
4.802445
5.593935
6.173502
6.515307
6.699367
6.841054
7.044542
7.404807
7.734474
7.814118
7.690579
7.57717
7.458732
7.195897
6.844981
6.603998
6.658465
7.060904
8.873801
11.10782
12.18399
12.18225
11.35845
9.995814
8.353865
6.700911
5.399594
3.988862
2.728206
2.597077
0.9898388
0.7979739
2.536798
3.295914
4.252408
5.152569
5.906485
6.439983
6.774906
6.991595
7.189035
7.333148
7.410233
7.383787
7.279396
7.185044
7.097291
6.961283
6.799734
6.698015
6.777223
7.073033
8.857849
11.25044
12.27027
12.21146
11.3881
10.03572
8.372253
6.668663
5.171757
3.851801
2.914692
2.227169
0.5320561
2.038958
2.859312
3.528175
4.385765
5.17522
5.818968
6.298827
6.658924
6.981201
7.211454
7.266494
7.186774
7.028062
6.862704
6.726498
6.634
6.603352
6.65053
6.830625
7.151619
8.921599
11.37445
12.28089
12.22024
11.38239
10.03056
8.376295
6.62811
5.060376
3.774563
2.893688
1.765734
1.8635
3.993319
4.353188
4.847813
5.290031
5.684283
6.020718
6.325485
6.628854
6.885426
6.965292
6.868994
6.675618
6.47082
6.319068
6.268556
6.331181
6.501603
6.796964
7.199881
9.072169
11.42267
12.33014
12.25334
11.42771
10.08189
8.422835
6.645707
5.050274
3.738473
3.408223
1.535548
1.657824
3.659471
4.054731
4.572956
4.987329
5.281651
5.482892
5.664192
5.897322
6.1242
6.228642
6.196578
6.074925
5.928621
5.837567
5.86088
6.007685
6.286454
6.684507
7.203153
9.250442
11.46598
12.24233
12.13417
11.32027
9.975713
8.324449
6.553336
4.990285
3.542497
2.966827
1.27784
0.98721
2.855114
3.647977
4.292578
4.922259
5.290172
5.420007
5.394832
5.349851
5.358962
5.349542
5.315357
5.271419
5.244959
5.282207
5.412559
5.648299
6.034715
6.503964
7.177295
9.390508
11.37695
11.98023
11.82416
10.99614
9.62406
7.996448
6.231552
4.822065
3.318577
2.202483
0.7121296
1.980577
4.162734
4.834958
5.363911
5.82592
5.986529
5.911011
5.670195
5.416478
5.19407
5.000246
4.861098
4.800546
4.842701
4.998427
5.294021
5.779682
6.265349
7.161046
9.54919
11.15044
11.5476
11.31633
10.42578
8.964883
7.36498
5.593678
4.565245
3.363341
1.440198
1.05067
2.819481
4.799806
5.214665
5.700883
5.958395
5.970544
5.759124
5.369866
5.013554
4.699584
4.47249
4.368581
4.407063
4.594715
4.974789
5.543754
5.99528
7.219178
9.647262
10.7989
10.95846
10.62874
9.643799
8.04117
6.476062
4.838432
4.319095
2.261344
0.750504
1.237787
3.166406
3.905498
4.616275
5.229051
5.523066
5.516205
5.232618
4.815095
4.448291
4.166549
4.029775
4.064931
4.290665
4.745494
5.318062
5.75529
7.349801
9.547211
10.29935
10.19541
9.769529
8.717988
6.924865
5.436408
4.008019
2.853928
0.9854863
1.351234
3.350832
4.007168
4.55142
4.987745
5.147228
5.015193
4.651175
4.288736
4.002823
3.845385
3.863878
4.098774
4.562776
5.044784
5.621373
7.445854
9.247077
9.580813
9.199608
8.712376
7.668864
5.659283
4.513049
3.394034
1.247698
1.334448
3.202575
3.663526
4.187608
4.490208
4.582115
4.382671
4.058358
3.803122
3.639091
3.649007
3.885364
4.303338
4.70262
5.561855
7.252817
8.654153
8.58222
7.913715
7.400004
6.529532
4.550846
3.674817
1.416641
1.207501
2.757064
4.082128
4.145852
4.12476
3.95189
3.699228
3.438633
3.28091
3.326032
3.591286
3.980115
4.435395
5.427469
6.625302
7.745899
7.327674
6.363919
6.246598
5.675269
3.60556
1.4872
0.9773414
2.220077
3.194715
3.070188
3.076862
3.096233
2.901038
2.798541
2.958862
3.277343
3.677956
4.275158
5.019132
5.535116
6.584358
5.947238
4.993564
5.12242
3.343492
1.413567
0.7388354
1.364363
2.01458
2.561881
2.812514
2.249585
2.294385
2.617359
2.976456
3.45236
4.057146
4.322154
4.374749
5.647499
4.939569
3.681007
2.426743
1.248461
0.6091822
1.032259
1.207015
1.386637
1.816142
2.284375
2.711138
3.33792
3.880697
3.591503
2.943679
2.603918
2.195456
1.249493
0.547712
1.002803
1.272652
1.56176
1.719808
1.154014
0.4396575
0.9425784
1.307069
1.588229
1.735613
1.890966
1.942898
1.835216
1.594005
0.8963077
0.4245223
0.7826037
1.095578
1.690066
2.496985
1.950513
2.699628
3.27878
3.452626
3.740633
3.971461
4.429793
3.445443
2.485916
1.916213
0.9895953
0.6771541
1.523975
1.984815
1.869227
1.934184
2.1854
2.922772
4.702675
5.334297
5.593663
6.188391
6.378446
6.236627
5.323685
4.494075
3.917228
3.425257
1.446948
0.7005992
1.246155
1.793534
2.336391
2.925682
3.407621
3.817178
4.047181
4.116943
5.427142
7.268719
7.903426
8.57253
9.089429
9.020612
8.351733
7.47247
6.309194
5.18794
3.908739
2.340599
1.119923
0.8956472
1.980179
2.001658
2.649693
3.614177
4.525372
4.830883
4.886298
5.064184
5.296919
6.299285
8.637688
9.806619
10.80261
11.42279
11.55869
11.09323
10.25599
9.04861
7.520803
5.630164
4.029415
3.238426
1.224426
0.9985114
2.35258
2.40618
2.811582
3.830825
5.114165
6.092168
6.561338
6.792341
7.05873
7.504305
8.446802
9.905852
11.51535
12.75253
13.27097
13.46757
13.06788
12.2317
11.05157
9.573592
7.809765
5.907014
4.493245
3.36932
1.235957
1.033623
2.576568
2.722304
2.943627
3.711153
5.047472
6.393997
7.237807
7.618806
7.833414
8.134278
8.83851
10.07195
11.31609
12.93182
14.21312
14.69139
14.66711
14.18787
13.28309
12.12571
10.84961
9.484154
7.935757
6.137742
4.584715
3.38225
1.235296
0.9791721
2.621821
2.978237
3.175109
3.582485
4.592718
6.133378
7.366425
7.964879
8.2618
8.499188
8.855839
9.821236
11.50829
12.55901
13.84771
15.14121
15.58874
15.25284
14.65639
13.70985
12.58782
11.47225
10.43691
9.365108
7.99023
6.185145
4.562274
3.29503
1.161444
1.967042
2.853764
3.360619
3.674719
4.182722
5.416718
6.916995
7.787255
8.36667
8.896242
9.481304
10.42142
11.74305
12.67971
13.05758
14.33279
15.52133
15.84502
15.52485
14.77634
13.92081
12.93475
11.96165
11.09091
10.28462
9.342202
7.961948
6.01795
4.139277
2.38747
1.220655
2.830316
3.524148
3.990956
4.203479
4.7801
6.075549
7.260826
8.146857
9.184896
10.2092
11.62176
12.52962
12.19952
12.52944
13.23061
14.49517
15.3882
15.55143
15.30417
14.82553
14.1804
13.41851
12.66017
11.90258
11.17266
10.39815
9.371859
7.799911
5.757366
4.166275
1.503048
0.8233688
2.760011
3.58951
4.353261
4.63401
4.743153
5.330994
6.517047
7.533059
9.181646
10.72971
11.95224
11.69428
11.19008
11.56359
12.31983
13.29705
14.27073
14.72818
14.72062
14.56782
14.38631
14.17663
13.89991
13.48466
12.9144
12.27356
11.5059
10.55812
9.250093
7.38818
5.191183
3.423044
1.009745
1.554875
2.858103
4.024374
4.917288
5.150389
5.210756
5.75023
6.782057
8.349921
11.21727
11.6809
10.39238
10.04502
10.4897
11.30722
12.2452
13.07144
13.54168
13.60459
13.50682
13.44414
13.45111
13.50714
13.58541
13.63012
13.54113
13.2205
12.54675
11.62942
10.37558
8.613928
6.221168
3.979211
1.816683
1.978839
3.164118
4.582408
5.409176
5.587383
5.606548
6.11496
7.263562
10.57978
12.53438
10.46019
9.735427
9.924841
10.58424
11.45743
12.29817
12.89408
13.15488
13.17596
13.19322
13.27968
13.35695
13.34068
13.25679
13.18943
13.14311
13.03826
12.69862
12.03854
10.95201
9.354663
7.069373
4.504991
2.210975
0.7625955
2.757504
3.819256
5.186891
5.910753
6.023909
5.986761
6.399772
7.815812
12.79313
12.45543
10.63922
10.18825
10.43452
11.07777
11.82441
12.38067
12.46618
12.31935
12.28519
12.5038
12.94811
13.45785
13.74577
13.6623
13.36636
13.01589
12.46188
11.87225
11.30742
10.52254
9.133677
7.399636
4.796326
2.974304
0.8622742
1.359763
3.617664
4.681565
5.896769
6.471357
6.508143
6.395892
6.639739
7.572487
11.79125
13.61743
11.55256
10.48534
10.10562
10.09514
10.04948
9.734222
9.543522
9.613025
10.00388
10.71454
11.72549
12.91028
13.77203
13.93157
13.63433
13.45399
12.64311
11.3964
10.15025
9.710633
8.390345
7.057371
4.450185
3.872352
1.490294
1.592623
3.177937
4.808579
6.278129
6.919974
6.988308
6.850824
6.950563
7.404629
9.841604
13.34684
13.0107
11.2127
9.752306
8.937527
8.434157
8.031512
7.841017
8.010842
8.545406
9.433355
10.74407
12.50979
14.03053
14.6248
14.35864
13.74269
12.95313
11.47044
9.531919
9.210923
7.978788
6.553618
4.570462
3.823358
1.763068
1.731133
3.151065
5.087184
6.594241
7.319535
7.47576
7.366481
7.335375
7.529919
8.500408
11.26589
12.81127
12.4685
11.02298
9.723684
8.827436
8.02904
7.419342
7.312568
7.697487
8.519372
9.86348
12.00577
14.04152
14.93952
14.78569
13.97987
12.85994
11.35729
9.621765
9.557095
8.20091
6.266164
4.785775
3.194987
1.938975
1.782912
3.133645
5.106052
6.724281
7.620672
7.942372
7.933897
7.854372
7.934015
8.098923
9.481726
11.09023
11.73044
11.40525
10.89997
9.996458
8.924436
7.868493
7.308414
7.372183
8.001264
9.219676
11.60763
14.07107
15.13033
15.00512
14.07665
12.67762
10.98348
9.303408
8.83299
7.73788
5.833211
4.794758
2.971435
1.968844
1.784697
3.061681
4.965502
6.659823
7.758783
8.312018
8.488498
8.473705
8.516871
8.462243
8.779283
9.632183
10.28121
10.35914
10.07013
9.682384
9.195084
8.467236
7.739521
7.45264
7.821267
8.830799
11.36889
14.22088
15.32799
15.13249
14.07641
12.49956
10.66436
8.867505
7.580824
6.344394
5.196746
4.826495
2.956513
1.921651
1.738847
2.90672
4.642122
6.329945
7.598254
8.410459
8.8489
9.020201
9.115971
9.146097
9.0908
9.232351
9.442187
9.452469
9.24566
9.020922
8.795276
8.414991
7.934693
7.665177
7.890516
8.68973
11.28175
14.50992
15.59169
15.30313
14.14382
12.44192
10.47245
8.517082
6.849046
5.492722
4.739964
4.851001
2.94636
1.806929
1.666002
2.866804
4.08829
5.671705
6.9879
7.980461
8.679528
9.121164
9.426653
9.663795
9.711565
9.647194
9.533181
9.3385
9.067948
8.786955
8.502967
8.173199
7.850572
7.725968
8.017505
8.802997
11.32462
14.88272
15.88784
15.52389
14.31426
12.551
10.4846
8.391112
6.541241
5.145106
4.343285
3.882342
2.901733
1.55466
1.513582
3.846582
4.773972
5.922878
6.854112
7.599884
8.224145
8.736841
9.215381
9.637564
9.883627
9.936
9.802964
9.516535
9.11362
8.65984
8.218888
7.84148
7.604994
7.637016
8.083232
8.982052
11.60295
15.22559
16.13407
15.73463
14.54589
12.79397
10.68804
8.499305
6.50798
4.964174
4.071392
3.740208
3.166948
1.249205
0.9109853
3.134163
4.106556
5.448297
6.494343
7.18903
7.64237
7.992994
8.412948
8.860836
9.219663
9.415742
9.386588
9.124333
8.696029
8.197078
7.72763
7.383497
7.253706
7.455465
8.089765
9.165274
12.01677
15.48381
16.22117
15.86839
14.76726
13.07391
10.97602
8.750271
6.680486
4.981767
3.787399
3.012028
2.355048
0.6784951
2.428028
3.611266
5.213514
6.557728
7.413139
7.833985
7.961917
7.969086
8.057741
8.137581
8.179473
8.131606
7.957171
7.667421
7.31681
6.994904
6.80141
6.83671
7.24253
8.073384
9.362767
12.50152
15.56959
16.23956
15.96323
14.98159
13.39896
11.34944
9.087316
6.899132
5.016486
3.577757
2.531007
1.798262
1.962381
3.366799
4.910432
6.667636
7.867628
8.504702
8.699783
8.578368
8.331083
8.084669
7.784735
7.452104
7.103721
6.761825
6.462892
6.261218
6.221347
6.440985
7.071981
8.073662
9.620042
13.01256
15.53427
16.1216
15.8798
15.02682
13.59166
11.622
9.312268
6.968372
4.901126
3.280352
2.189943
1.385061
1.068494
3.466342
4.84267
6.594765
8.027148
8.957507
9.389077
9.404556
9.099136
8.647747
8.127423
7.522662
6.915627
6.379004
5.976331
5.761063
5.791123
6.171692
7.007699
8.117265
9.999778
13.45655
15.42488
15.86625
15.608
14.8296
13.50819
11.60385
9.228439
6.75023
4.592835
3.058799
2.285899
0.6958927
1.533198
3.525965
5.15772
7.058454
8.528248
9.396857
9.710961
9.581606
9.097977
8.464899
7.691477
6.88011
6.16102
5.643849
5.406037
5.516552
6.071262
7.051949
8.225108
10.55404
13.72071
15.24226
15.51672
15.18771
14.38217
13.067
11.13899
8.653701
6.092787
3.875423
2.417724
0.9780549
2.515099
4.056402
5.746053
7.597755
8.868715
9.488666
9.572311
9.2243
8.523572
7.723369
6.825329
6.010916
5.441183
5.225424
5.442935
6.136902
7.139758
8.450167
11.24121
13.86306
14.99201
15.08734
14.64061
13.68971
12.23747
10.17679
7.584093
5.071268
3.169926
1.701227
1.19517
3.391513
4.667385
6.121226
7.637664
8.577076
8.932021
8.803572
8.261536
7.476595
6.629759
5.847011
5.323022
5.187388
5.508956
6.240546
7.183431
8.867694
11.6825
13.8128
14.59591
14.51742
13.90643
12.66879
10.93285
8.687561
6.09035
4.095302
2.73884
0.8331535
1.244704
3.392105
4.537207
5.800959
7.02266
7.705489
7.875337
7.582508
6.926438
6.209638
5.567286
5.175776
5.160751
5.544841
6.202304
7.197234
9.310257
11.93964
13.46157
13.91619
13.64938
12.81572
11.13397
9.048636
6.777478
4.727969
3.259026
1.074499
1.192622
3.202672
4.191144
5.189984
6.10901
6.553318
6.529895
6.126322
5.547131
5.134625
4.929705
5.026332
5.384056
5.939003
7.199087
9.532388
11.74657
12.63361
12.74027
12.22667
11.16597
8.993386
6.695699
5.148894
3.623496
1.243203
1.100803