/*--------------------------------*- C++ -*----------------------------------*\
  =========                 |
  \\      /  F ield         | OpenFOAM: The Open Source CFD Toolbox
   \\    /   O peration     | Website:  https://openfoam.org
    \\  /    A nd           | Version:  6
     \\/     M anipulation  |
\*---------------------------------------------------------------------------*/
FoamFile
{
    version     2.0;
    format      ascii;
    class       volScalarField;
    location    "49.8";
    object      alphat;
}
// * * * * * * * * * * * * * * * * * * * * * * * * * * * * * * * * * * * * * //

dimensions      [1 -1 -1 0 0 0 0];

internalField   nonuniform List<scalar> 
203709
(
0.7970955
1.327469
1.363509
0.8652849
0.8133808
1.36318
1.891329
2.42781
2.481823
2.021727
1.497969
0.9217445
0.7636061
1.292333
1.836139
2.404668
2.634436
2.781591
2.808839
2.716039
2.539807
1.992288
1.415245
0.8604086
0.7423641
1.624588
2.235618
2.491176
2.662325
2.752131
2.786105
2.772341
2.720506
2.635331
2.492365
2.28898
1.733746
0.7993709
1.195432
2.113044
2.40743
2.532941
2.579529
2.592568
2.593392
2.581904
2.557818
2.52138
2.457419
2.339712
2.098611
1.279408
0.6598301
1.550354
2.141022
2.323286
2.38448
2.427306
2.463525
2.496597
2.523352
2.543076
2.553526
2.540771
2.468948
2.253103
1.574877
0.6426491
1.015349
1.80587
2.021782
2.104405
2.176081
2.247286
2.324366
2.408238
2.479664
2.539503
2.597752
2.643376
2.641049
2.525565
2.184533
1.168139
0.6971574
1.696603
2.134145
2.129355
1.961439
2.062852
2.120369
2.198705
2.319275
2.429062
2.519756
2.612906
2.709139
2.768812
2.727602
2.493098
1.721733
0.6781363
1.108429
2.081962
2.344183
2.371477
2.329568
2.252127
2.167287
2.127887
2.222419
2.355739
2.473445
2.591603
2.729715
2.846966
2.859314
2.703158
2.289462
1.168149
1.103434
2.054499
2.387356
2.490349
2.495758
2.435553
2.329488
2.194677
2.157561
2.278381
2.407963
2.540442
2.714895
2.88228
2.928282
2.78199
2.369713
1.236592
0.6911508
1.641223
2.308045
2.50328
2.549146
2.510129
2.404882
2.258113
2.169927
2.217687
2.334641
2.471245
2.673469
2.882637
2.940379
2.731742
1.950569
0.8075811
1.215445
2.148956
2.444281
2.537853
2.518124
2.419152
2.276236
2.181078
2.19408
2.278245
2.399909
2.61165
2.853643
2.896513
2.583087
1.463633
0.7384853
1.663538
2.298135
2.46684
2.476867
2.393765
2.267597
2.18147
2.179073
2.239573
2.341662
2.533653
2.781299
2.768246
2.038359
0.9067748
1.181941
2.064728
2.309331
2.366092
2.317803
2.229091
2.164512
2.154077
2.19245
2.269637
2.440732
2.636209
2.549197
1.483557
0.6968903
1.487666
1.989477
2.129073
2.168878
2.145734
2.112695
2.094937
2.104688
2.140225
2.254691
2.337622
1.903497
0.9003362
0.6697312
1.097657
1.495319
1.862828
1.944544
1.970565
1.950661
1.912134
1.868112
1.649778
1.3466
0.8935863
0.6380462
1.02501
1.3682
1.661041
1.647209
1.350934
1.058584
0.7376446
0.5472387
0.8745383
0.88031
0.5620525
0.6136772
0.9985952
1.182734
1.485317
1.613678
1.689693
1.719311
1.699879
1.592294
0.9781855
0.5721803
0.9353552
1.243713
1.709773
2.345868
2.854367
3.146624
3.292568
3.318179
3.246193
3.072054
2.431105
1.737399
1.02221
0.6396339
1.372985
1.771637
1.954658
2.516262
3.173677
3.781963
4.240386
4.414166
4.334587
4.13526
3.915373
3.588159
3.185521
2.350022
1.07808
0.6650437
1.508766
2.090209
2.409309
2.791852
3.397487
4.229292
3.633712
4.497506
4.718954
4.89141
5.270021
4.730837
4.296293
3.914731
3.405754
2.437669
1.092557
0.6201168
1.577694
2.291313
2.752476
3.282829
3.91676
2.570005
3.967112
3.981814
4.866124
5.055639
5.15665
5.207681
5.10833
5.293864
4.612439
4.020249
3.43213
2.397808
1.049994
0.537814
1.510628
2.338264
2.83336
3.526354
1.796792
2.886048
3.156645
4.316785
4.682228
5.120987
5.28589
5.358034
5.280673
5.134993
5.016899
4.763515
4.705317
3.870084
3.226617
2.21588
0.9580791
1.083758
2.253968
2.863484
3.467635
1.931369
2.941916
4.106967
4.593494
5.134137
5.431375
5.624636
5.685382
5.672758
5.598458
5.474783
5.247637
4.860864
4.512263
4.099983
3.429406
2.801942
1.555211
0.6284609
1.577212
2.681292
3.509486
4.476837
3.244114
5.129647
5.840888
6.27543
6.591921
6.785533
6.893626
6.944432
6.966738
6.970766
6.952858
6.855086
6.546597
5.700518
4.304118
3.34673
2.818616
2.017994
0.5645405
1.059937
2.000274
2.723111
4.021139
4.080985
4.179322
5.319401
5.503621
5.545275
5.552125
5.562068
5.619763
5.726605
5.869496
6.045013
6.254657
6.470529
6.569216
6.282699
5.4416
3.785018
2.942769
2.229556
1.045586
1.185011
2.204543
2.828698
4.125581
5.012703
5.567464
5.689569
5.213025
4.914024
4.663559
4.458438
4.408449
4.48715
4.637224
4.841378
5.089631
5.369206
5.532354
5.370626
4.548391
4.373764
3.31417
2.492061
1.18054
1.263103
2.375261
3.077836
3.773887
4.675126
5.581927
6.00654
5.880366
5.168283
4.756924
4.30531
4.046225
4.003603
4.083748
4.274549
4.536755
4.884437
5.137301
5.131471
4.191222
3.27126
3.694094
2.72366
1.289725
1.316962
2.50098
3.302237
3.62746
4.186477
4.833685
5.163376
5.175254
5.100271
4.943954
4.565157
4.124717
3.913705
3.854259
3.991462
4.245459
4.656851
4.988371
5.230378
5.164726
4.509641
3.989991
2.884126
1.372678
1.350347
2.570379
3.38626
3.571451
3.89677
4.233095
4.428726
4.431605
4.408257
4.469956
4.502204
4.337427
4.057969
3.823999
3.863257
4.081735
4.552734
4.906113
5.21473
5.267011
4.866578
4.085285
2.964302
1.428039
1.35638
2.569133
3.308483
3.462602
3.648702
3.848842
3.975996
4.008178
4.063147
4.194204
4.31112
4.31394
4.196378
3.922764
3.838735
3.992451
4.528083
4.870306
5.164329
5.186155
4.910067
3.990638
2.967395
1.456005
1.317369
2.480964
3.1326
3.997974
3.957322
4.0064
4.034742
4.034098
4.061327
4.143179
4.229585
4.274228
4.235951
4.010216
3.874733
3.950564
4.556159
4.852477
5.120374
5.157978
4.989681
3.805663
2.894926
1.447704
1.207062
2.298694
2.920755
3.557255
3.680106
3.77466
3.841826
3.878918
3.922599
4.009925
4.111959
4.205017
4.219815
4.030189
3.907454
3.940147
4.610971
4.837264
5.066342
5.147943
4.503677
3.613543
2.739383
1.370854
0.7383434
1.7937
2.63752
3.186218
3.979271
3.94823
3.971819
4.002357
3.994518
4.007321
4.054522
4.131539
4.146208
3.96604
3.898305
3.946944
4.661749
4.828399
4.996487
5.223637
4.119821
3.331113
2.171828
0.8559921
1.292948
2.337176
2.87799
3.433053
3.479396
3.527683
3.593596
3.689995
3.762331
3.868373
3.979995
3.993057
3.804114
3.831233
3.922965
4.715804
4.772922
4.901193
4.596428
3.789665
2.987667
1.57146
0.7832541
1.735606
2.478383
2.92374
3.501996
3.420745
3.43409
3.479044
3.593759
3.729149
3.797183
3.749767
3.52402
3.676996
3.886047
4.756029
4.688947
4.875129
4.043875
3.330794
2.230963
0.940772
0.8429817
1.83921
2.544598
2.89403
3.23529
3.621322
3.449664
3.442204
3.458456
3.42486
3.334092
3.152263
3.557885
3.868589
4.899185
4.555309
4.055263
3.485146
2.411959
1.038786
0.851556
1.817666
2.4309
2.679023
2.826466
3.009353
3.250663
3.039295
2.951067
2.918146
2.899197
3.536069
3.779876
3.992521
3.856189
3.417207
2.467222
1.095351
0.8076041
1.664681
2.138118
2.28931
2.3919
2.438627
2.510035
2.576371
2.622399
2.666591
2.825394
3.288128
3.391964
3.163048
2.370422
1.101094
0.7140925
1.148035
1.517507
1.824579
1.861101
1.881697
1.914274
1.980428
2.103628
2.381953
2.72376
2.35822
1.76194
1.04976
0.5893566
0.920259
0.9573491
0.9703135
0.9937498
1.045279
1.153315
1.369631
1.49424
0.9884134
0.6304179
0.9609846
0.9235205
1.241291
1.496009
1.564223
1.506236
0.9314312
0.7415213
1.288098
1.48219
1.890068
2.232052
2.183607
2.646664
3.149927
3.312603
3.302442
2.738073
2.096341
1.786277
1.01669
0.889964
1.945323
2.66254
3.017894
3.28116
3.339474
3.261826
3.954828
4.547581
4.760756
4.798037
4.636467
4.220009
3.699733
2.722811
1.252178
0.6588758
1.296588
2.213484
3.23951
3.899626
4.140266
4.546236
5.064645
5.354407
5.095543
5.251467
5.361498
5.405462
5.365202
5.277968
5.395854
4.440847
3.127239
1.973528
1.070147
0.6487475
1.586281
2.688662
3.769836
3.871857
3.723834
4.092996
4.987928
6.381058
6.18891
5.825091
5.898727
6.051679
6.152472
6.157267
6.002174
5.736191
5.203857
4.965041
3.845955
2.605114
1.116072
0.6405814
1.527997
2.535138
3.979837
4.172311
4.239445
4.55286
5.329984
6.20474
6.402462
6.394415
6.299357
6.416107
6.556052
6.685103
6.702988
6.583791
6.310658
5.880578
5.524049
5.171171
3.984443
2.606402
1.074091
1.202532
2.29846
3.629841
4.306625
4.690851
4.910192
5.202086
5.426263
5.758949
6.170833
6.390689
6.674378
6.842306
6.950861
7.007531
7.012614
6.915732
6.712826
6.409617
6.008019
5.579336
5.147329
3.821852
1.972939
0.8017149
1.910517
3.006246
3.653104
5.262266
5.532892
4.71753
4.634105
4.871233
5.214298
6.051687
6.485381
6.935507
7.17881
7.280408
7.263777
7.181659
7.048022
6.898966
6.683739
6.369638
5.926631
5.435793
4.878955
3.077631
1.233555
0.7011316
1.734496
2.707248
3.365403
4.757473
6.927096
5.05916
4.106195
3.805438
4.723033
5.397054
6.232569
6.748494
7.154077
7.377159
7.486568
7.503324
7.44594
7.27366
7.037047
6.752187
6.443471
6.086358
5.59414
4.975961
4.247812
2.626321
0.9734263
1.230355
2.379312
3.347465
4.550583
7.468023
7.357045
5.238374
4.502258
5.163678
5.84863
6.413026
6.999156
7.430265
7.71562
7.856151
7.905792
7.894944
7.83443
7.701957
7.494087
7.164133
6.748036
6.285132
5.763062
5.296527
4.931444
3.373052
1.630552
1.462999
2.778868
3.160216
4.094432
6.896029
9.340238
7.420454
6.607218
7.245797
7.688623
8.161534
8.599511
8.912105
9.113962
9.246156
9.351969
9.447448
9.512679
9.471429
9.208197
8.621514
7.848871
7.284857
6.790011
6.345074
5.717705
3.514333
1.740945
0.722975
1.96475
3.159266
3.33078
3.887158
5.531034
9.068766
8.92058
7.712287
7.570418
7.421624
7.418167
7.405524
7.408558
7.483792
7.660553
7.931212
8.28826
8.732363
9.226235
9.611997
9.642584
9.21941
8.504325
7.84482
6.997383
5.127679
3.941189
2.131278
0.6981744
1.205155
2.475222
3.412006
3.531973
3.882779
4.792382
7.230526
9.117054
9.324543
8.561672
7.440697
6.791657
6.330648
5.960268
5.827134
5.944012
6.228199
6.636492
7.169528
7.8319
8.414371
8.644844
8.282166
8.013816
7.537084
6.382764
3.860668
3.947013
2.618166
1.157691
1.317946
2.631926
3.578019
3.727417
3.987727
4.458753
5.79424
7.638883
8.771222
9.140028
8.993465
7.554788
6.669025
5.861872
5.344521
5.244789
5.404059
5.750873
6.268797
7.04861
7.840342
8.298148
8.037286
7.432609
7.196737
5.845145
3.371568
3.86473
2.66679
1.21682
1.359497
2.705708
3.68555
3.904658
4.161057
4.450064
5.031237
6.180353
7.215653
7.768647
7.841628
7.654336
7.16627
6.404019
5.539455
5.147957
5.095451
5.315944
5.742983
6.575289
7.532165
8.219299
8.342149
7.830503
7.083488
5.679775
3.436352
3.93639
2.713958
1.234135
1.364957
2.730189
3.743153
4.040462
4.347973
4.595878
4.872159
5.377922
6.005804
6.414171
6.49551
6.403036
6.365532
6.265026
5.884658
5.40148
5.113108
5.166338
5.455336
6.298494
7.370998
8.147237
8.320501
7.831769
6.928111
5.614052
3.673024
3.992434
2.725905
1.237581
1.332248
2.697329
3.736109
4.093695
4.468277
4.740794
4.956884
5.17167
5.459465
5.671961
5.73515
5.733416
5.793965
5.848517
5.759764
5.550252
5.294177
5.196999
5.323225
6.146823
7.310433
8.090619
8.209127
7.710064
6.774965
5.600197
4.009117
4.00399
2.686671
1.213243
1.226195
2.561384
3.626885
3.992358
4.404252
4.716499
4.965187
5.154172
5.29645
5.415988
5.451302
5.465563
5.514391
5.570487
5.580544
5.541117
5.41373
5.299778
5.293805
6.072395
7.306204
7.999388
8.050337
7.513063
6.617087
5.553747
4.373523
3.940075
2.5598
1.129218
0.760497
2.082132
3.42583
3.722914
4.102145
4.423023
4.698844
4.922152
5.062457
5.180885
5.214335
5.211013
5.232286
5.28564
5.367554
5.451828
5.440287
5.369819
5.318723
6.031589
7.319475
7.948885
7.988321
7.409528
6.513365
5.455144
4.608112
3.761152
2.057277
0.6947144
1.655153
3.180766
3.502551
3.752148
4.039466
4.287587
4.508441
4.6699
4.804786
4.888246
4.930292
4.969602
5.038987
5.169215
5.322031
5.382466
5.365018
5.312759
6.020198
7.340301
7.863983
7.84387
7.272863
6.404132
5.339342
4.61367
3.434113
1.589028
1.494384
2.90621
4.054889
4.081708
4.190456
4.292107
4.395933
4.485443
4.582144
4.654193
4.683396
4.709121
4.793512
4.962761
5.149162
5.243169
5.266933
5.232098
6.012117
7.346005
7.679115
7.590668
7.035018
6.171639
5.109038
4.674136
3.052666
1.379816
0.8976469
2.24721
3.507175
3.683422
3.758712
3.845243
3.894363
3.931711
4.005748
4.110151
4.221664
4.344001
4.518019
4.7346
4.92085
5.01629
5.061271
5.062017
6.041395
7.234445
7.360695
7.237512
6.682105
5.818474
4.836191
3.894992
2.284348
0.8041912
1.119095
2.673667
4.084104
4.158903
4.159741
4.131443
4.048333
3.982168
3.979536
4.034782
4.133374
4.295772
4.476187
4.609594
4.689419
4.742966
4.917227
6.043991
7.005172
6.916235
6.765015
6.182726
5.40207
4.625037
2.793331
1.074452
1.792067
3.322131
4.288476
4.258078
4.186607
4.057358
3.897737
3.803201
3.777626
3.82923
3.951803
4.083645
4.183464
4.292845
4.44933
4.867266
5.950133
6.706276
6.387629
6.18782
5.698252
5.070653
3.661313
1.801769
0.9920735
2.30579
3.358458
4.181228
4.054065
3.905839
3.721948
3.562816
3.480381
3.477718
3.544605
3.639547
3.757447
3.949214
4.2525
4.913787
5.754675
6.366889
5.776168
5.679069
5.299776
3.970338
2.539051
1.009375
0.9874967
2.228549
3.107285
3.795596
3.573849
3.475382
3.315983
3.203951
3.165991
3.190353
3.268232
3.416432
3.7018
4.198622
4.904448
5.415091
5.951742
5.232646
5.202834
4.018384
2.671824
1.108268
0.8970734
1.573216
2.354964
3.132063
3.555757
3.150847
2.940314
2.850986
2.851276
2.935968
3.135428
3.564386
4.21613
4.764887
5.03464
5.601727
4.671901
3.354211
2.134572
1.128642
0.9103805
1.877335
2.363839
2.510416
2.589526
2.585587
2.589647
2.671208
2.923845
3.551797
4.249792
4.58931
4.444122
3.971284
2.943969
1.377456
0.6579542
1.094439
1.211618
1.507406
1.791052
1.868874
1.987813
2.290081
2.796951
3.194388
2.857934
2.316794
2.011861
1.151719
0.5099327
0.8426757
0.9364563
1.04536
1.247796
1.494857
1.606297
1.058803
0.6085547
1.060738
1.22738
1.420704
1.436128
0.9051186
0.6084515
1.103998
1.348715
1.564374
2.060865
2.846813
3.282793
3.541234
3.657906
3.15177
2.470822
2.143043
1.777318
0.9968496
0.5452928
1.111929
1.844012
2.644206
3.127752
3.210216
3.019642
3.941286
5.585656
4.498588
4.495584
4.373697
4.270951
4.888269
4.22735
3.111169
1.987002
1.019049
0.6599061
1.582194
2.600088
3.322035
2.833263
2.784783
3.188226
3.665382
4.849211
6.673944
5.980574
5.852284
6.040309
6.056251
5.997723
5.349226
4.637857
4.38528
2.851481
1.199889
0.7903172
1.798169
2.947098
3.599921
3.982953
4.276062
4.560681
4.941208
5.553424
6.775714
8.039775
7.489543
7.332755
7.719793
7.865698
7.665651
7.051651
6.268095
5.638327
5.024613
3.193264
1.351281
0.8920392
2.024346
2.724791
2.99815
3.807172
4.591723
5.111281
5.504066
5.969368
6.878666
8.459548
9.399629
8.80673
8.77339
9.167982
9.32792
9.089434
8.480449
7.633887
6.59212
5.536416
4.259275
3.460258
1.404546
0.9410151
2.160412
2.514719
3.30934
4.268869
5.187689
5.780228
6.065882
6.325689
6.849261
8.212448
9.721913
9.983576
9.793347
9.940681
10.20322
10.32592
10.06279
9.461627
8.64615
7.684729
6.621246
5.418282
4.435687
3.480419
1.367333
0.9019399
2.153953
2.387874
2.907016
3.968842
5.089755
6.081842
6.618822
6.856415
7.363424
8.494373
9.068548
9.711974
10.06127
10.39537
10.74033
10.86084
10.82761
10.57046
10.04494
9.335227
8.502151
7.58275
6.56588
5.434343
4.298121
3.238284
1.227473
0.8004107
2.060672
3.330561
3.269613
3.917547
4.922601
5.890579
7.161612
7.431319
7.391055
7.884176
7.985365
8.600169
9.376384
10.06461
10.69573
11.10705
11.19434
11.01712
10.71898
10.33265
9.801779
9.155813
8.418127
7.594413
6.657615
5.613339
5.051056
2.896395
1.044892
1.50917
3.098905
3.345719
3.61585
4.37541
5.013602
6.994721
8.449629
7.301875
6.552956
6.630079
7.322042
8.288007
9.202617
10.02829
10.66595
11.01595
11.09074
10.98904
10.75854
10.3951
10.02203
9.607256
9.082458
8.43486
7.625068
6.574575
5.626699
4.361097
1.984937
0.786335
2.295298
2.902032
3.30073
3.726257
4.362896
5.491299
9.138185
8.287221
6.322432
5.894231
6.519103
7.358099
8.328279
9.193777
9.886662
10.32083
10.51856
10.56851
10.54406
10.45427
10.30209
10.08205
9.744419
9.354178
8.926624
8.289847
7.378726
6.184153
4.642896
3.032358
0.9869186
1.377676
3.100666
3.361426
3.654964
3.962295
4.578241
7.034741
10.645
8.148378
6.982469
7.03319
7.4745
8.136336
8.88759
9.535711
9.976969
10.18761
10.24431
10.23441
10.19697
10.12927
10.0265
9.876753
9.676891
9.429806
9.080994
8.439595
7.694584
6.584218
5.082359
3.965061
1.648912
1.66878
3.62616
3.873627
4.104419
4.297537
4.750593
6.873837
11.93948
10.38168
8.998644
8.85432
9.118892
9.625398
10.16796
10.58083
10.84201
11.00507
11.14522
11.29169
11.4165
11.42707
11.20455
10.74628
10.22666
9.824683
9.403415
8.84685
8.032606
6.918518
5.419303
4.403984
1.832931
1.958096
2.979829
3.739289
4.23932
4.499845
4.863917
6.093428
10.46196
12.11271
10.40634
9.39766
8.939802
8.884876
8.876665
8.893789
8.994988
9.234691
9.621818
10.1487
10.80436
11.51823
12.06805
12.20713
11.86935
11.21662
10.42127
9.441596
7.967116
7.19571
5.778856
4.562356
2.090317
0.7925332
2.578637
3.306932
4.05699
4.521113
4.764359
5.003129
5.660339
8.19126
11.22516
11.97217
10.92152
9.372696
8.386697
7.772751
7.300947
7.12212
7.291683
7.726807
8.371552
9.234586
10.31856
11.30031
11.78081
11.64741
11.34661
10.73672
9.386823
7.22272
6.913867
5.787914
3.863884
2.838789
0.8746056
1.301625
3.118599
3.777497
4.490282
4.939505
5.166792
5.308526
5.632363
6.739726
9.006003
10.72193
11.39561
11.38141
9.628046
8.346425
7.27157
6.551826
6.416129
6.686496
7.246753
8.104583
9.425598
10.82395
11.65404
11.67445
11.14771
10.44885
8.905199
6.602678
6.746922
5.788518
3.553306
3.444838
1.408511
1.386285
3.218975
3.98363
4.790993
5.331733
5.624681
5.750021
5.871393
6.244407
7.369823
8.691796
9.56551
9.867683
9.776962
9.096611
8.04605
6.845678
6.274325
6.257042
6.63679
7.347873
8.759839
10.47782
11.57967
11.82682
11.31695
10.36609
8.794173
6.646827
6.535591
5.216424
2.828451
3.162863
1.352688
1.383903
3.206004
4.007929
4.911072
5.590348
6.020314
6.223103
6.311086
6.403743
6.76539
7.382007
7.916244
8.120457
8.042693
7.976828
7.787884
7.240466
6.574541
6.250793
6.410037
6.917416
8.339328
10.3134
11.55607
11.8626
11.33863
10.26234
8.777588
6.86296
6.234462
4.636659
2.49499
2.785428
1.172165
1.296815
3.079302
3.867665
4.817805
5.620959
6.214339
6.56313
6.728415
6.790366
6.905971
7.070549
7.226177
7.27307
7.223199
7.219706
7.194547
6.997011
6.671503
6.41595
6.427415
6.733468
8.114527
10.31102
11.60373
11.90052
11.36304
10.23954
8.767292
7.065083
5.911716
4.282151
2.566507
2.583797
1.02958
0.8106896
2.565645
3.311763
4.260356
5.158644
5.916732
6.45737
6.789494
6.971544
7.110945
7.217252
7.215937
7.13666
7.021856
6.923138
6.832486
6.706796
6.571125
6.480681
6.527189
6.738996
8.031114
10.41504
11.67283
11.90853
11.35791
10.24546
8.782438
7.12482
5.63997
4.103017
2.859511
2.092329
0.6308732
2.074504
2.909291
3.569736
4.412104
5.182548
5.811285
6.276012
6.597025
6.863188
7.072169
7.113057
7.01143
6.829155
6.639888
6.484904
6.391407
6.379027
6.43377
6.58065
6.816214
8.104123
10.54736
11.70885
11.86543
11.29684
10.21555
8.76809
7.086619
5.452887
3.929183
3.062221
1.614301
1.898784
4.070432
4.44572
4.941722
5.364192
5.722696
6.018173
6.266282
6.518729
6.738279
6.797543
6.688698
6.492872
6.283371
6.12503
6.073833
6.142884
6.304924
6.559079
6.866303
8.297023
10.65269
11.73345
11.88538
11.30496
10.20131
8.734767
7.011727
5.362976
3.779554
3.339228
1.424993
1.680368
3.717231
4.140496
4.688108
5.116281
5.400699
5.561654
5.657981
5.805173
5.971993
6.051176
6.020352
5.913147
5.779514
5.692548
5.715479
5.85873
6.113479
6.46414
6.869125
8.535097
10.73794
11.72581
11.80982
11.20075
10.05805
8.572761
6.836499
5.264762
3.627576
2.926937
1.20331
0.9941201
2.883009
3.701942
4.386927
5.062691
5.464489
5.608942
5.572735
5.472089
5.424005
5.362589
5.28322
5.207617
5.161306
5.185865
5.30815
5.531083
5.881198
6.30342
6.840494
8.758993
10.82138
11.56642
11.5632
10.89766
9.681782
8.187813
6.431264
5.049229
3.448063
2.198047
0.6874296
1.985582
4.18141
4.883525
5.453092
5.959343
6.152539
6.094558
5.850265
5.555749
5.29363
5.056554
4.876766
4.782288
4.798596
4.934471
5.202839
5.642311
6.086375
6.825695
9.001767
10.7338
11.23688
11.12581
10.36143
9.009972
7.507621
5.714813
4.700387
3.438106
1.443988
1.045658
2.814247
4.800737
5.257574
5.784575
6.077099
6.116746
5.922039
5.528932
5.144834
4.796464
4.530743
4.389884
4.397015
4.556744
4.899477
5.422463
5.83679
6.895199
9.238807
10.50169
10.73855
10.50278
9.615395
8.078574
6.577888
4.916281
4.403114
2.312586
0.7595332
1.227744
3.150063
3.908077
4.646366
5.290744
5.613924
5.631554
5.363652
4.938046
4.555798
4.245756
4.074687
4.075869
4.267473
4.681949
5.216861
5.612645
7.067398
9.284404
10.10122
10.04674
9.693264
8.71593
6.953331
5.50323
4.071563
2.898491
1.004918
1.338561
3.327064
3.999295
4.563927
5.023507
5.205481
5.092769
4.739244
4.370493
4.067765
3.884055
3.873713
4.078328
4.508738
4.965653
5.490907
7.236353
9.085587
9.45863
9.102512
8.668868
7.679704
5.674161
4.542889
3.41245
1.266876
1.320725
3.175975
3.647385
4.184841
4.504036
4.61144
4.422898
4.099197
3.835896
3.655095
3.646596
3.865294
4.260262
4.647862
5.471171
7.129997
8.56752
8.514091
7.852077
7.376574
6.53871
4.555027
3.679405
1.425881
1.1932
2.729414
4.046699
4.122092
4.109179
3.947353
3.701861
3.437681
3.272751
3.312707
3.571203
3.95197
4.417758
5.391915
6.562399
7.709068
7.296606
6.326716
6.232084
5.665879
3.601869
1.489571
0.9649881
2.195611
3.163435
3.043401
3.060539
3.087357
2.878525
2.775962
2.944348
3.268573
3.681436
4.296423
5.019777
5.507693
6.576429
5.938236
4.976146
5.115241
3.336971
1.411803
0.7296453
1.35048
1.994605
2.538624
2.790062
2.218742
2.275765
2.618522
2.992641
3.490021
4.098113
4.336112
4.368041
5.648206
4.93677
3.676092
2.423921
1.245804
0.6029379
1.024374
1.200472
1.382441
1.81227
2.304574
2.762612
3.394035
3.916332
3.605732
2.948988
2.605959
2.195556
1.248515
0.5529502
1.023182
1.305175
1.590627
1.736257
1.159468
0.4707372
0.8752217
1.21273
1.525284
1.64888
1.826402
1.886525
1.787078
1.556794
0.8761539
0.4400058
0.8250725
1.159078
1.74931
2.444902
1.934822
2.551403
3.132141
3.251981
3.530181
3.771835
4.314424
3.364975
2.44758
1.884373
0.9714028
0.6912215
1.559744
2.160272
2.033984
2.069695
2.254942
2.780957
4.233619
5.184056
5.278926
5.828355
6.072038
6.063213
5.161811
4.342704
3.782595
3.351838
1.416911
0.7200526
1.273637
1.88168
2.478671
3.146987
3.668954
4.052931
4.302026
4.373281
5.194352
7.163436
7.54532
8.138596
8.700039
8.708589
8.0473
7.189844
6.068214
5.006178
3.742084
2.288111
1.093245
0.9033181
2.012475
2.06705
2.809755
3.958277
4.99732
5.305778
5.356138
5.469927
5.598926
6.355061
8.30394
9.567993
10.39461
11.01924
11.18446
10.72322
9.896955
8.710557
7.226899
5.398362
3.886828
3.156685
1.195648
0.9915426
2.357317
2.457293
2.946618
4.150302
5.603984
6.483352
6.864037
7.036905
7.250597
7.695164
8.416559
9.645617
11.4005
12.45574
12.93658
13.13099
12.72352
11.87939
10.69272
9.220026
7.486006
5.657936
4.323382
3.281898
1.20571
1.017532
2.551712
2.737926
3.026105
3.962367
5.496027
6.740268
7.435193
7.740012
7.879364
8.109099
8.753686
9.85091
11.08534
12.87137
14.05969
14.46365
14.4303
13.91526
12.97367
11.78521
10.48611
9.110933
7.586689
5.8654
4.408242
3.29727
1.208803
0.9604903
2.579547
2.953413
3.191261
3.713076
4.968608
6.571383
7.603806
8.148577
8.344117
8.420296
8.678032
9.617608
11.11288
12.27143
13.79386
15.12072
15.49593
15.11392
14.43501
13.39802
12.21053
11.06169
10.01743
8.956805
7.626122
5.91539
4.398546
3.22812
1.145505
1.930603
2.812015
3.326329
3.685999
4.370533
5.850388
7.220187
8.13878
8.706731
8.873316
9.081455
9.880125
10.79539
11.75521
12.70279
14.3047
15.61476
15.89563
15.40997
14.55777
13.53686
12.43158
11.40895
10.55106
9.791246
8.910454
7.610695
5.776141
4.011678
2.363388
1.201332
2.78975
3.466856
3.930385
4.201387
5.003454
6.496533
7.607269
8.933007
9.497609
9.392062
9.79474
10.06344
10.56243
11.5909
12.89691
14.49149
15.57779
15.75869
15.35621
14.61204
13.68407
12.77704
11.91267
11.16215
10.51618
9.862861
8.96176
7.508686
5.585979
4.048119
1.494445
0.8128699
2.722996
3.533587
4.273545
4.545915
4.719976
5.518672
6.72378
8.313508
10.31204
9.940805
8.8321
8.526005
9.135934
10.23364
11.5541
12.97703
14.27858
15.00414
15.104
14.8671
14.45098
13.91596
13.27805
12.6313
12.02023
11.42543
10.8136
10.05972
8.920146
7.191213
5.086534
3.408343
0.9983857
1.538111
2.824928
3.970691
4.835096
5.051395
5.162411
5.852452
6.950559
10.18687
11.20853
8.915307
7.942125
8.226061
9.132635
10.33756
11.61124
12.75215
13.53885
13.87009
13.90612
13.84704
13.76019
13.64578
13.48055
13.23665
12.8565
12.37966
11.81144
11.05793
9.995322
8.379451
6.084437
3.927741
1.80125
1.961936
3.133297
4.532174
5.336278
5.494188
5.532641
6.086512
7.79983
12.55769
10.84768
9.094713
8.698005
9.027656
9.809021
10.78228
11.70526
12.37217
12.68802
12.74043
12.69976
12.69117
12.73145
12.79576
12.87237
12.93526
12.92916
12.77157
12.3913
11.67715
10.66435
9.120347
6.915175
4.412611
2.192391
0.758633
2.739989
3.789864
5.14566
5.857654
5.95209
5.903431
6.281808
7.851298
13.37836
12.70636
10.77695
10.18516
10.34474
10.89819
11.54589
12.06325
12.37169
12.53649
12.68076
12.86803
13.07663
13.20107
13.10989
12.83394
12.57416
12.43664
12.28362
11.99633
11.43026
10.55929
9.168333
7.271107
4.842782
2.930649
0.8350653
1.3543
3.600274
4.657842
5.870551
6.445007
6.469614
6.332828
6.523033
7.374616
11.5264
14.27771
12.43284
10.90906
10.21526
10.11272
10.12883
10.17068
10.30312
10.59959
11.09419
11.78597
12.64612
13.55918
14.22218
14.35222
13.94331
13.20921
12.39355
11.55873
10.56506
9.968384
8.709252
7.069717
4.568626
3.779258
1.432427
1.588741
3.158009
4.786797
6.267221
6.920407
6.985611
6.822765
6.839427
7.197017
9.313778
12.83583
13.94123
12.81451
11.03913
9.787809
9.070366
8.534587
8.326336
8.543379
9.126402
10.01815
11.22315
12.72094
14.05467
14.6605
14.53863
14.08346
13.16225
11.65701
9.771758
9.249594
8.170737
6.488039
4.652051
3.53303
1.72396
1.72958
3.136489
5.071279
6.594383
7.338421
7.501087
7.375443
7.271696
7.391214
8.061893
10.3753
12.34716
13.18949
13.23517
11.44523
9.862136
8.585478
7.69895
7.515607
7.89385
8.696601
9.932475
11.79246
13.7399
14.7899
14.85668
14.24112
13.24079
11.59455
9.466124
9.07313
7.998858
6.014754
4.795298
3.004075
1.912418
1.785964
3.125266
5.09399
6.727253
7.645451
7.981659
7.969979
7.847629
7.859595
7.883674
8.797259
10.15735
11.15023
11.56831
11.5552
10.78857
9.543594
8.097139
7.325254
7.32782
7.90678
8.976388
10.97992
13.39879
14.73387
14.95671
14.3478
13.20975
11.53069
9.474661
8.851425
7.47818
5.365508
4.670962
2.812916
1.92575
1.793586
3.05987
4.955938
6.658222
7.775699
8.347191
8.532524
8.499164
8.453246
8.394409
8.494254
8.967517
9.465507
9.675301
9.559257
9.437027
9.169909
8.494373
7.663951
7.280388
7.583442
8.422985
10.45208
13.27637
14.74952
14.9745
14.31122
13.05616
11.38435
9.460474
8.152231
6.373159
4.455103
4.451378
2.683921
1.829825
1.757121
2.916303
4.642273
6.327151
7.601273
8.425264
8.876196
9.047007
9.073023
9.112683
9.055391
9.026978
9.033963
8.965919
8.79841
8.668791
8.51572
8.180854
7.715492
7.421431
7.576918
8.21493
10.19373
13.38932
14.91748
15.07744
14.34586
13.00699
11.26606
9.325934
7.568514
5.748078
4.175859
3.854747
2.380254
1.620521
1.695612
2.918112
4.142879
5.715288
7.013
7.991354
8.683693
9.119937
9.370847
9.584922
9.672857
9.613387
9.444019
9.18958
8.883852
8.560892
8.232132
7.881144
7.568994
7.442731
7.672392
8.297487
10.19197
13.64986
15.19017
15.26109
14.47766
13.09264
11.2824
9.245654
7.242436
5.392755
4.025306
3.319043
3.055273
1.256214
1.543355
3.923575
4.872505
6.042676
6.964529
7.674367
8.253938
8.730673
9.144687
9.533785
9.781939
9.842445
9.703476
9.382658
8.932588
8.43033
7.948502
7.556784
7.331784
7.355628
7.733005
8.467253
10.47669
13.99637
15.47299
15.45896
14.66234
13.27652
11.42678
9.303701
7.166556
5.218836
3.760723
2.956544
2.81065
1.04434
0.924637
3.18543
4.195187
5.594617
6.678302
7.378332
7.802342
8.08348
8.381217
8.736833
9.015703
9.154381
9.096658
8.838143
8.425211
7.939699
7.479745
7.147468
7.026099
7.199509
7.751545
8.652854
10.91997
14.39571
15.64771
15.56348
14.79666
13.45285
11.59813
9.427161
7.21232
5.213308
3.671887
2.645719
2.239246
0.6112355
2.449803
3.667048
5.336836
6.750009
7.654699
8.100523
8.22781
8.172237
8.190011
8.185131
8.135101
8.009465
7.787963
7.481039
7.132279
6.819046
6.632769
6.65977
7.014426
7.755917
8.859223
11.46959
14.73441
15.68817
15.64292
14.95168
13.67662
11.85766
9.665462
7.370219
5.256972
3.578013
2.366095
1.697961
1.967764
3.385155
4.972567
6.801758
8.065431
8.750679
8.981546
8.880951
8.595742
8.324026
7.973298
7.571968
7.151462
6.748205
6.405572
6.176478
6.116952
6.304096
6.866022
7.783537
9.129956
12.09471
14.89433
15.67125
15.59522
14.96088
13.78459
12.03684
9.824267
7.41555
5.163323
3.376559
2.176024
1.298703
1.0655
3.458591
4.859003
6.660911
8.147485
9.124624
9.597362
9.650244
9.373091
8.90512
8.375357
7.734217
7.070821
6.470484
6.009086
5.746217
5.735086
6.061846
6.821578
7.862064
9.532102
12.74089
14.95604
15.52439
15.37979
14.75463
13.63921
11.93394
9.662302
7.139879
4.807457
3.095756
2.243662
0.6751493
1.519289
3.494056
5.148983
7.095023
8.610728
9.519792
9.871584
9.778172
9.323633
8.687133
7.907729
7.062439
6.291618
5.717403
5.42593
5.484179
5.975243
6.888896
8.009568
10.12736
13.24433
14.91353
15.27589
15.02228
14.32162
13.16377
11.39689
8.993726
6.397062
4.060196
2.532126
0.9679778
2.48426
4.022779
5.731533
7.616925
8.920075
9.569904
9.683602
9.365343
8.687107
7.892929
6.981326
6.1335
5.517885
5.252031
5.415854
6.049414
7.007362
8.274714
10.88893
13.54584
14.76802
14.92445
14.53125
13.65206
12.31487
10.36623
7.811277
5.254382
3.275356
1.726823
1.17486
3.342757
4.625261
6.095498
7.633844
8.595638
8.973265
8.86836
8.349538
7.575158
6.731409
5.930657
5.374027
5.198446
5.474817
6.161264
7.09035
8.735854
11.48816
13.61586
14.44752
14.40844
13.84027
12.64998
10.99122
8.806764
6.203865
4.177098
2.798502
0.8543233
1.224863
3.344488
4.492926
5.765305
6.999271
7.696682
7.882358
7.606494
6.965119
6.255353
5.604772
5.192919
5.150143
5.502081
6.13791
7.15678
9.263125
11.83483
13.34381
13.81726
13.57545
12.77939
11.12252
9.081481
6.833012
4.770998
3.279924
1.097209
1.172585
3.156288
4.145079
5.146103
6.071023
6.523959
6.510466
6.116298
5.54612
5.134784
4.919756
4.998919
5.33896
5.909777
7.225782
9.548136
11.71092
12.56776
12.67504
12.17521
11.14681
8.976697
6.701228
5.16562