/*--------------------------------*- C++ -*----------------------------------*\
  =========                 |
  \\      /  F ield         | OpenFOAM: The Open Source CFD Toolbox
   \\    /   O peration     | Website:  https://openfoam.org
    \\  /    A nd           | Version:  6
     \\/     M anipulation  |
\*---------------------------------------------------------------------------*/
FoamFile
{
    version     2.0;
    format      ascii;
    class       volScalarField;
    location    "49.8";
    object      Co;
}
// * * * * * * * * * * * * * * * * * * * * * * * * * * * * * * * * * * * * * //

dimensions      [0 0 0 0 0 0 0];

internalField   nonuniform List<scalar> 
203709
(
0.07769833
0.07335092
0.0721127
0.07470958
0.09452718
0.07806784
0.07434485
0.0680021
0.06528517
0.06115544
0.06121585
0.07507647
0.1004266
0.07174863
0.08242114
0.07572295
0.0725617
0.06746228
0.06109258
0.05446322
0.05029265
0.05057594
0.04621528
0.06324419
0.09944857
0.08558301
0.07828971
0.07850745
0.07566119
0.07001868
0.06214069
0.05650078
0.05164462
0.04659592
0.04248239
0.03915688
0.03828779
0.04387773
0.09617645
0.07906462
0.07703097
0.07403864
0.06733994
0.06189608
0.05684016
0.05373665
0.0509834
0.04777305
0.04430092
0.0403578
0.03597477
0.03137306
0.07593495
0.0742232
0.06971719
0.06685177
0.06017154
0.05700831
0.05831206
0.06018674
0.05986887
0.05757818
0.0544522
0.05104789
0.04721828
0.04312206
0.04240578
0.05293394
0.05732629
0.05320578
0.05219191
0.04733168
0.04210573
0.05027208
0.0580437
0.06284377
0.06443829
0.06309342
0.06037813
0.05732233
0.05377764
0.04969048
0.04546043
0.04137526
0.0672812
0.04084762
0.03199558
0.02616587
0.01992533
0.02275439
0.03827547
0.05076092
0.06005714
0.06529156
0.06589509
0.06419868
0.06196886
0.0590421
0.05536492
0.05134321
0.05367772
0.06796405
0.07640571
0.06396426
0.05334049
0.04200894
0.02647961
0.02514588
0.03092008
0.0384416
0.0510508
0.0615339
0.06531721
0.06553471
0.06466762
0.06271681
0.05966245
0.05568532
0.05177635
0.047126
0.08639824
0.07517437
0.06612338
0.05762621
0.04428766
0.0436296
0.04816179
0.04901012
0.04908866
0.05438771
0.06147908
0.06445656
0.06546412
0.064873
0.06263365
0.05861991
0.05503107
0.04925061
0.09789863
0.08392901
0.07254202
0.06413428
0.05338252
0.05220658
0.05556974
0.05612427
0.05666887
0.05768203
0.05856494
0.0611124
0.06446531
0.06558616
0.06435425
0.06311768
0.07016343
0.08503789
0.09704996
0.07413197
0.06463989
0.05604339
0.05451485
0.05686711
0.05800975
0.05967777
0.06176553
0.06236359
0.06088922
0.06217807
0.06498402
0.06586968
0.06731172
0.06907143
0.1014812
0.07999772
0.06439621
0.05553185
0.05423003
0.0556628
0.05716806
0.05990106
0.06294084
0.06449892
0.06366226
0.06251638
0.0634333
0.06830455
0.07929231
0.1017751
0.08903688
0.06289263
0.05245941
0.05213621
0.05324373
0.05539256
0.05901672
0.06258869
0.06454789
0.06414442
0.06285437
0.06473933
0.07116188
0.07656487
0.09202386
0.06840565
0.05202625
0.04944637
0.05088174
0.05362391
0.05748413
0.06105883
0.0630299
0.06274718
0.06454845
0.06944317
0.08405192
0.1089168
0.08437575
0.0539015
0.05412736
0.04980211
0.05147846
0.05506872
0.05838022
0.06198809
0.06437523
0.07607688
0.09100439
0.1051255
0.06628374
0.05120448
0.05151743
0.05585145
0.05914696
0.06631431
0.07944424
0.09505468
0.0568765
0.05806395
0.06305116
0.07478808
0.0350485
0.02294085
0.02216098
0.03332444
0.05132211
0.05887326
0.06378446
0.06831579
0.07342072
0.08174187
0.04077635
0.0374328
0.01884534
0.01785813
0.02866554
0.04678818
0.05699605
0.06077726
0.06321766
0.0655685
0.06882749
0.07010744
0.07848446
0.09131412
0.0466415
0.03590761
0.02049057
0.01211062
0.03171778
0.05009758
0.05675912
0.06390333
0.06474851
0.06526479
0.06290422
0.0663549
0.06795553
0.07114125
0.07334341
0.08373389
0.04351689
0.03264275
0.02094084
0.01646561
0.03559266
0.05200863
0.06575431
0.06562719
0.06812716
0.06824598
0.06786505
0.06908619
0.06550839
0.06124413
0.06398873
0.06637073
0.06819337
0.07859207
0.03511295
0.02870888
0.02623941
0.02782206
0.03617241
0.05821794
0.06859175
0.07697723
0.07585245
0.07067603
0.06676275
0.06114714
0.06402705
0.0604886
0.06060763
0.05724647
0.05353901
0.0573956
0.05893544
0.06930383
0.0161702
0.02505388
0.02671765
0.03367783
0.04226534
0.06090304
0.07202668
0.08073351
0.08066072
0.07887081
0.0737716
0.06721531
0.06001027
0.05521686
0.04884099
0.0510207
0.0483686
0.04530733
0.0396457
0.04273447
0.04509323
0.05891125
0.008838096
0.01942914
0.0327141
0.04612167
0.06298697
0.07612584
0.08069878
0.08390143
0.08263709
0.07759083
0.06990889
0.06240062
0.05789732
0.05304199
0.0476144
0.04253792
0.0352945
0.03424214
0.02821258
0.02585751
0.02389601
0.02880866
0.04326348
0.0166808
0.02723942
0.04240487
0.05738481
0.07629748
0.07968781
0.08188627
0.08071918
0.07512375
0.06866379
0.06396418
0.05914866
0.05678272
0.05369215
0.05005005
0.04542905
0.0392095
0.03024439
0.0242828
0.01552327
0.01104135
0.0122535
0.01465386
0.04751982
0.02974607
0.02982702
0.03964175
0.05233448
0.06827829
0.07191066
0.07157267
0.06635035
0.0629982
0.06280327
0.06491027
0.06537981
0.06380842
0.06097772
0.05754424
0.05341091
0.04837579
0.041523
0.03431408
0.02433783
0.02032818
0.01993031
0.02061936
0.05775166
0.04578907
0.0365152
0.0365481
0.04629551
0.05296053
0.05462994
0.05158586
0.04673175
0.05409678
0.06155919
0.06648665
0.06912
0.06898896
0.06690684
0.06397664
0.0603619
0.05591826
0.05057238
0.04424068
0.03668584
0.03011586
0.02853481
0.02767064
0.06672326
0.0587585
0.05482843
0.05029336
0.04070351
0.03576351
0.02931238
0.02495966
0.02597097
0.04145842
0.05322767
0.06212393
0.06841308
0.07090395
0.07038267
0.06844982
0.06552174
0.06173067
0.05750126
0.05332259
0.04745075
0.03871217
0.03679201
0.03547411
0.07316117
0.06759526
0.06704147
0.06693953
0.06110332
0.05672275
0.04720577
0.03287665
0.02700798
0.03468828
0.04105623
0.05094109
0.06231774
0.06891667
0.07105423
0.07076351
0.06882938
0.06555002
0.061397
0.05644203
0.04960478
0.04401462
0.04321037
0.04199626
0.07661819
0.07168885
0.0733947
0.07522215
0.07107978
0.06806213
0.06198917
0.05025711
0.04500504
0.05120936
0.05403085
0.05515892
0.05712264
0.06295429
0.06894672
0.07100396
0.0704125
0.06758804
0.0631195
0.05843147
0.05262662
0.04869301
0.04730477
0.04642042
0.07750852
0.07196466
0.07182241
0.0728977
0.07807534
0.07267862
0.06791683
0.05927178
0.05501924
0.0594977
0.06143798
0.06247301
0.06365475
0.06391857
0.06562878
0.06931813
0.07040469
0.0679836
0.06512951
0.06441243
0.05990454
0.05363497
0.04991151
0.0485113
0.07680486
0.07024446
0.07003293
0.07386346
0.08200051
0.07410188
0.067443
0.06164501
0.05868148
0.06187019
0.06355786
0.06512567
0.06712707
0.06825425
0.06710419
0.06745982
0.06898076
0.06794417
0.06911524
0.07153882
0.06535995
0.05543153
0.05347124
0.04884155
0.07606973
0.06764264
0.06671987
0.06965207
0.07161308
0.07499334
0.0656782
0.06023866
0.05888461
0.06123303
0.06288291
0.06507425
0.06781206
0.06960439
0.06892466
0.06690114
0.0662214
0.07004694
0.07235639
0.07261232
0.06929233
0.06290463
0.06025979
0.05809279
0.08650463
0.07070106
0.06285622
0.06392888
0.06634689
0.07325554
0.0634778
0.05656573
0.05704701
0.05909723
0.06100596
0.06375606
0.06687596
0.06876998
0.06809855
0.06546899
0.06568669
0.07194168
0.078944
0.07550275
0.06650696
0.0669626
0.07287938
0.09122152
0.07643491
0.06043896
0.05854255
0.06079396
0.06799172
0.06226846
0.05400453
0.05377647
0.05628041
0.05850558
0.06150719
0.06443273
0.06580625
0.06456554
0.06357179
0.06891984
0.07386118
0.07771452
0.07622317
0.07137435
0.07099401
0.07430267
0.08490496
0.06609442
0.05797402
0.05624234
0.06002203
0.06006819
0.05612968
0.05071555
0.05261479
0.05413303
0.05729879
0.05985184
0.06187524
0.06170031
0.06817072
0.0742845
0.08310983
0.08125956
0.0716508
0.07438482
0.07953058
0.09759294
0.0825731
0.0643653
0.05814707
0.05296187
0.05507927
0.05258292
0.04942385
0.05175474
0.04899723
0.0533162
0.05581727
0.05900466
0.0636792
0.07078247
0.07684773
0.07284679
0.07297443
0.07669221
0.08083956
0.09455121
0.07705792
0.06125062
0.05533788
0.05100086
0.0460264
0.0480832
0.04849105
0.04801228
0.05038404
0.05287753
0.05195875
0.05428103
0.05911047
0.06554098
0.07380227
0.07733123
0.08211149
0.09516457
0.06995982
0.05657988
0.05020829
0.04570968
0.04319024
0.04059761
0.04378473
0.04580939
0.04864234
0.04867739
0.04954866
0.05757671
0.06843757
0.07705579
0.08336388
0.09565971
0.06402369
0.05111131
0.0441019
0.04118069
0.03956525
0.04043901
0.0426441
0.04493749
0.04631084
0.05034849
0.06306282
0.07516993
0.08566607
0.1069039
0.04597273
0.04045296
0.0390934
0.0401237
0.04264278
0.0455097
0.04815952
0.05822937
0.07632499
0.1015778
0.03954465
0.03271382
0.01977986
0.01342919
0.03306721
0.04758975
0.05737236
0.06644828
0.06208302
0.06134338
0.05708617
0.04096422
0.0307064
0.01521779
0.02112488
0.03559543
0.04882056
0.05793422
0.06185889
0.06995396
0.07564431
0.08245736
0.06824858
0.05808763
0.05749811
0.04804355
0.03872545
0.02408491
0.01593391
0.0283155
0.04254845
0.05331469
0.0608084
0.06693688
0.07115913
0.0714177
0.07533612
0.08139059
0.05582893
0.04886334
0.05651852
0.05767669
0.0578135
0.04429185
0.03143797
0.01944465
0.02478604
0.03979337
0.0507008
0.05865497
0.06479358
0.07030192
0.07610265
0.0817829
0.08007048
0.07389098
0.08416239
0.0967766
0.05143066
0.04395951
0.04994179
0.05660172
0.0552911
0.0547263
0.04126803
0.02417734
0.02145709
0.03577335
0.05119126
0.05693191
0.06157235
0.06584512
0.06984631
0.07170985
0.07988271
0.08327046
0.08676326
0.08039078
0.0816825
0.09198199
0.0617083
0.03940262
0.04066613
0.05006409
0.05656447
0.05434797
0.04279334
0.02179662
0.02071248
0.03775478
0.05358545
0.06121798
0.0633881
0.06449064
0.06624412
0.06812858
0.0706966
0.07370968
0.07554355
0.08522348
0.08624254
0.07924983
0.08123096
0.1004352
0.04498591
0.03236058
0.03771421
0.04958654
0.05131091
0.04009982
0.0230158
0.02291412
0.04560174
0.06018906
0.06783817
0.06800399
0.06742895
0.06646726
0.0660945
0.06535942
0.06614717
0.0674297
0.07036181
0.07202533
0.08148549
0.08241589
0.07665415
0.08194035
0.05755182
0.03981871
0.03000423
0.03689211
0.04315299
0.03511754
0.02713868
0.03352528
0.05216176
0.06615856
0.07375852
0.07710961
0.07496428
0.07045568
0.06594773
0.06390512
0.06221478
0.06132694
0.06014553
0.06020342
0.06268798
0.06431265
0.07348515
0.07467342
0.06534197
0.07731303
0.06991764
0.05177543
0.0413502
0.02676494
0.03064514
0.02827025
0.02741205
0.04023974
0.05542362
0.06934683
0.0791486
0.0831647
0.08285002
0.07876216
0.07304545
0.06716743
0.0623662
0.05780115
0.05557351
0.05319434
0.05159534
0.05043271
0.0498677
0.05190057
0.05952802
0.05937709
0.05932725
0.06790659
0.06191141
0.05097716
0.04731728
0.02636813
0.02189097
0.02431421
0.03923498
0.05746803
0.07196112
0.08135498
0.08691147
0.08754085
0.08387874
0.07703836
0.06909198
0.06550597
0.06151932
0.05721094
0.05306601
0.04817201
0.04388555
0.03975195
0.03944864
0.03829337
0.03812432
0.04063163
0.04035325
0.04701045
0.0578552
0.0524844
0.04833225
0.02914119
0.02544379
0.03138715
0.05253839
0.06893821
0.07951514
0.08540614
0.08648414
0.08247963
0.07546186
0.0713863
0.06595956
0.06401747
0.06100046
0.0570436
0.05197378
0.04538934
0.03766728
0.03009635
0.02596093
0.02235007
0.01955644
0.0203418
0.02405898
0.03133099
0.07192364
0.05800828
0.05678986
0.05236822
0.04233203
0.03818805
0.03748312
0.05094203
0.06617425
0.07416937
0.07672557
0.07353258
0.06947302
0.06816704
0.07047431
0.07138173
0.0702726
0.06752851
0.06374076
0.05897746
0.0531305
0.04622041
0.03852532
0.02943102
0.02050724
0.02121912
0.02316686
0.03045549
0.03659658
0.04228293
0.06532548
0.06168198
0.06029078
0.05900339
0.05176806
0.05150079
0.04629807
0.04447401
0.05163872
0.05811784
0.0576882
0.05235881
0.05832245
0.06589095
0.07098622
0.07408282
0.07459646
0.07278107
0.06953603
0.06517178
0.05983433
0.05378519
0.04723265
0.04009028
0.03178171
0.02677008
0.02455731
0.02747782
0.03165135
0.04246698
0.06495052
0.06232375
0.06349882
0.06482977
0.06140235
0.06010739
0.06014289
0.05808319
0.0494588
0.0382134
0.03098574
0.02850955
0.04461061
0.0563676
0.065217
0.07186315
0.0753592
0.07547922
0.07340252
0.06965794
0.0647234
0.05953097
0.05425073
0.04806634
0.04088013
0.03605214
0.03366772
0.03034494
0.0280061
0.03343435
0.06539666
0.06304412
0.06557454
0.06880156
0.06783676
0.06741586
0.06940527
0.07121172
0.06876561
0.05903795
0.04380895
0.02997289
0.03852192
0.04398664
0.05225215
0.06379943
0.07177456
0.07508308
0.07502376
0.07229961
0.0676684
0.06268769
0.05781407
0.05299423
0.04768309
0.04324262
0.04065782
0.03741273
0.03503929
0.03254643
0.06524617
0.06303711
0.06626563
0.07061322
0.07091267
0.07220979
0.07306936
0.07575575
0.07740675
0.07213386
0.06080653
0.04787354
0.05503674
0.05910485
0.06104676
0.06213897
0.06588828
0.0714614
0.07435952
0.07315927
0.06886194
0.06384438
0.05912668
0.05564862
0.05262985
0.04937772
0.04617453
0.04231521
0.04008724
0.03615166
0.06442808
0.06216561
0.06555816
0.07039216
0.07096872
0.07276713
0.07412654
0.0761631
0.07707502
0.07557556
0.06810246
0.05815375
0.06366296
0.06676053
0.06842731
0.06987192
0.070754
0.07018562
0.07153324
0.07238877
0.06854752
0.06372754
0.06111228
0.05845286
0.0559503
0.05425142
0.04966467
0.04451968
0.04197453
0.03647091
0.06374624
0.06078967
0.06363497
0.06844207
0.06871992
0.07015701
0.07254742
0.07437753
0.07408619
0.07263572
0.06853343
0.06232
0.06652819
0.0690742
0.07101462
0.07319271
0.07479881
0.07424028
0.07196675
0.07023288
0.06710102
0.0656055
0.06468178
0.06293803
0.06038591
0.0579196
0.05337112
0.04882148
0.0429532
0.03285999
0.07581162
0.06396985
0.06151264
0.06510159
0.06525247
0.06600805
0.06870233
0.06986541
0.06943975
0.06748379
0.06541217
0.06312758
0.06638766
0.06864907
0.07100002
0.07383136
0.07594546
0.07570409
0.07269594
0.06889171
0.06719016
0.06972894
0.06956695
0.06784486
0.06552856
0.06368579
0.06066984
0.05833106
0.05733331
0.06032152
0.06815498
0.05797052
0.0673847
0.06359234
0.06169396
0.06312275
0.06455186
0.06445486
0.06250873
0.06089647
0.06243267
0.06503908
0.06719596
0.06984887
0.07291823
0.07495218
0.07450892
0.07119614
0.06693041
0.06940994
0.07247286
0.07322696
0.07191745
0.07032644
0.06718946
0.06691269
0.06621518
0.0656639
0.07131429
0.06167894
0.06909512
0.06416289
0.06001155
0.05926021
0.06012365
0.05932538
0.05885896
0.05836036
0.06090733
0.063183
0.06525467
0.06792017
0.07065096
0.07193904
0.07068964
0.06664366
0.06643338
0.07197507
0.07507498
0.07535899
0.07447074
0.07392409
0.07701679
0.07447114
0.06621986
0.07067211
0.0898009
0.06907798
0.0657767
0.07158343
0.06214996
0.06095668
0.0595489
0.05796979
0.05762135
0.0574794
0.05785197
0.06001714
0.06180689
0.0643767
0.06645709
0.06661037
0.06446864
0.06410312
0.06823169
0.07411621
0.07737424
0.07771275
0.07728164
0.07492035
0.07618325
0.07476092
0.06925617
0.07562988
0.07966919
0.06544485
0.07359928
0.07118375
0.06297509
0.06160492
0.05873863
0.05694449
0.05636292
0.05514847
0.05589154
0.05639293
0.05867863
0.05999763
0.05979957
0.0600581
0.05983953
0.06772045
0.07564875
0.07872779
0.07960946
0.07762351
0.08264866
0.07992468
0.06725845
0.0742433
0.0717209
0.06812113
0.07224142
0.06955331
0.06118074
0.05874273
0.05473538
0.05380573
0.05267733
0.05215336
0.05164316
0.05243854
0.05363323
0.05416596
0.05447166
0.05881459
0.06916466
0.07615846
0.0801478
0.07969106
0.08558681
0.08293903
0.07237012
0.0738694
0.09018573
0.06860182
0.0647169
0.06887356
0.06526878
0.05663608
0.05325806
0.05005033
0.04876217
0.04780629
0.04714021
0.04750337
0.04822146
0.04855052
0.04902094
0.05845883
0.07146542
0.07894209
0.08111682
0.08849699
0.08600601
0.07527198
0.07504631
0.08404343
0.07146103
0.06373599
0.0597286
0.06267459
0.05611765
0.05322698
0.04487565
0.04404426
0.04267035
0.04193435
0.04188112
0.04214815
0.04233629
0.04924234
0.0639691
0.07453705
0.08190842
0.09197987
0.08961031
0.07951508
0.07883576
0.08367571
0.06828863
0.05974028
0.05022356
0.0529185
0.0495279
0.0427554
0.03901058
0.03731005
0.03663157
0.0367591
0.03819328
0.04300339
0.05581638
0.07141784
0.08809351
0.09346183
0.08487703
0.07829707
0.08103047
0.100146
0.04924288
0.04542327
0.04045161
0.03850975
0.03478906
0.03255393
0.03200206
0.03246359
0.03461792
0.04411945
0.05976448
0.0731037
0.07993951
0.08420803
0.08699926
0.09277568
0.043783
0.03954683
0.03478299
0.03052729
0.02969813
0.02868925
0.02871119
0.0352665
0.05001631
0.06670059
0.07586389
0.08506244
0.09686553
0.1125976
0.0299053
0.02807389
0.02774224
0.03225077
0.04410425
0.06069229
0.07870339
0.1042042
0.03357215
0.02449839
0.01349354
0.0294955
0.04210284
0.05093266
0.04106233
0.03594332
0.03969176
0.03825598
0.03145836
0.0231393
0.01436408
0.02896511
0.04219829
0.04780418
0.05481666
0.05739801
0.06277846
0.06530342
0.03984911
0.03236382
0.03389481
0.04079812
0.04355384
0.03718741
0.03257736
0.02231194
0.01642063
0.03111757
0.04426485
0.05408842
0.06206835
0.06842411
0.06674772
0.06253738
0.06432922
0.07329272
0.0445151
0.03283045
0.03205062
0.03730749
0.04844698
0.05147127
0.04274528
0.03467042
0.02125681
0.02462582
0.03524141
0.0459385
0.05619161
0.06168625
0.06942
0.07122223
0.07485194
0.07805106
0.06815907
0.07626333
0.04687144
0.03968785
0.03565502
0.0400565
0.04458965
0.05085957
0.05016524
0.04338787
0.032011
0.02188819
0.03006248
0.03992227
0.04910409
0.05783296
0.06483426
0.07016352
0.07437014
0.07586389
0.08385553
0.08547111
0.07537833
0.07539832
0.05403702
0.0481612
0.04094118
0.03725669
0.04287517
0.05121016
0.05475064
0.05062587
0.04106604
0.02934214
0.02542677
0.03442759
0.04524145
0.05268314
0.05871168
0.06504332
0.07061301
0.07559452
0.0796029
0.08044447
0.08589085
0.08701785
0.08282613
0.08037433
0.05817206
0.05531323
0.051288
0.03803966
0.03750589
0.04888919
0.05717428
0.05707959
0.04882302
0.0343329
0.02816606
0.0321026
0.04439717
0.05221253
0.05635784
0.05902528
0.06382057
0.06887466
0.07378532
0.07847278
0.08250108
0.08484014
0.08416079
0.09193101
0.08450344
0.0808753
0.06436136
0.05620841
0.0581166
0.04524599
0.03515235
0.04206857
0.0551521
0.059478
0.05362727
0.03838822
0.02408692
0.02932746
0.0452116
0.05727094
0.05998346
0.06028057
0.06075541
0.06140641
0.06500415
0.06923048
0.07401927
0.07875326
0.08251309
0.08499075
0.08423706
0.08944133
0.07938913
0.08606562
0.06691852
0.05607787
0.06423938
0.05382729
0.04307964
0.03074852
0.0468184
0.05618553
0.0541342
0.03880221
0.02272686
0.0331433
0.0521294
0.06369011
0.06762609
0.06640698
0.06430069
0.06269591
0.06121551
0.0609191
0.06220492
0.06633776
0.07118564
0.07593436
0.07989153
0.08249141
0.08525255
0.08798937
0.07333037
0.08411548
0.0552062
0.06383945
0.06234719
0.05050588
0.03942921
0.03242422
0.04635742
0.04929111
0.035581
0.0273488
0.04322285
0.06114765
0.07103355
0.07624423
0.07570509
0.07193549
0.0678603
0.06485742
0.06245568
0.06070166
0.05890015
0.05747025
0.05932164
0.06450568
0.06969129
0.0742361
0.07493611
0.0822791
0.07961967
0.07171549
0.06267875
0.05395825
0.06280087
0.05649426
0.0502181
0.0352292
0.03125889
0.0395124
0.03437646
0.03524094
0.0500245
0.06660064
0.07770368
0.08354564
0.0845458
0.08128266
0.07599989
0.07061817
0.0661016
0.06236579
0.05976986
0.05768983
0.05600058
0.05424575
0.05203338
0.05358316
0.05955472
0.06472061
0.06565627
0.06843715
0.06490951
0.07465405
0.05842725
0.05925021
0.06037592
0.05761921
0.04959561
0.03593269
0.03069107
0.02882854
0.03659064
0.05406355
0.0704222
0.08176159
0.08879495
0.09089518
0.08844769
0.08238427
0.0746073
0.07147659
0.06805403
0.06431025
0.06052019
0.05641163
0.052106
0.04898772
0.04867038
0.04778317
0.04604123
0.04584333
0.0506384
0.05294996
0.05576142
0.0556884
0.05431487
0.06401282
0.06096805
0.05839659
0.050635
0.03992849
0.03466136
0.0352129
0.05082461
0.06796358
0.08047451
0.08833368
0.09114519
0.0886734
0.0813995
0.07784247
0.07262022
0.07108133
0.06842743
0.06456517
0.05948464
0.05322026
0.04623704
0.04040096
0.03719249
0.03778949
0.03901335
0.03935871
0.03845717
0.03867082
0.04233559
0.04340005
0.05246178
0.06289874
0.05984647
0.06043524
0.05483989
0.046915
0.04750418
0.04440472
0.05167043
0.06690958
0.07700394
0.08144044
0.08001469
0.0752519
0.07318437
0.07564786
0.07700171
0.0764226
0.07392465
0.06994995
0.06469892
0.05838047
0.05130156
0.04352746
0.03501228
0.03003455
0.02757665
0.03289789
0.03876856
0.04176158
0.04567563
0.0540986
0.05950958
0.05261202
0.06005001
0.06212713
0.06275086
0.05997332
0.05319986
0.05760853
0.05719888
0.05190644
0.05389786
0.06218669
0.06360509
0.05937339
0.06191187
0.06977726
0.07516076
0.07867162
0.07980086
0.07836063
0.07491653
0.06983022
0.06365663
0.05715744
0.05054004
0.04353264
0.03551748
0.02871236
0.03084757
0.03595812
0.04579413
0.05441938
0.05916459
0.06536594
0.05467606
0.05534406
0.05960321
0.06250474
0.0647316
0.06443764
0.06071479
0.06311785
0.06845289
0.06835148
0.06011417
0.0464186
0.03712159
0.03342639
0.04721249
0.05914973
0.0681633
0.07510412
0.07935621
0.08016314
0.07807905
0.07354657
0.06754482
0.0615776
0.05595296
0.05026945
0.04410186
0.03751624
0.03199597
0.02963843
0.03410061
0.04581402
0.05972752
0.07020934
0.05364351
0.05445764
0.05928029
0.0624866
0.06578753
0.06728913
0.06617861
0.06606719
0.07296289
0.07844135
0.07709485
0.06869659
0.05393988
0.03657332
0.042741
0.04892084
0.05566124
0.06536854
0.07417818
0.07858683
0.07889691
0.07548333
0.06973525
0.0641192
0.0592396
0.05485766
0.05035465
0.04541414
0.03968638
0.03321639
0.02876734
0.03208534
0.0462145
0.06230696
0.05317893
0.05360584
0.05847898
0.0617184
0.06556786
0.06813684
0.06859465
0.06854991
0.0725672
0.08019384
0.08330669
0.07970412
0.06961933
0.0553591
0.05963352
0.06442034
0.06701014
0.06859195
0.06980375
0.07339256
0.07719244
0.07557061
0.07027286
0.06501626
0.06077728
0.0576347
0.05483979
0.05154994
0.0465533
0.03899923
0.03361087
0.02827227
0.02697135
0.0455247
0.05298816
0.05258577
0.05699129
0.06007878
0.06399639
0.06698497
0.06813112
0.0690936
0.07143222
0.07655787
0.0813348
0.08106867
0.0750167
0.06450928
0.06861532
0.07240936
0.07461092
0.07636111
0.07762544
0.07713839
0.07592823
0.07393023
0.06935495
0.06461515
0.0610425
0.05904613
0.05780696
0.05595905
0.05259202
0.04717944
0.04059202
0.0306649
0.01568123
0.02408315
0.06434045
0.05554015
0.05501454
0.05788316
0.06135919
0.06419725
0.06539333
0.06661292
0.06841162
0.07185287
0.07523837
0.07667277
0.07362179
0.06743521
0.07178873
0.07493816
0.07726558
0.07964212
0.08156213
0.0814782
0.07863426
0.07338513
0.06732102
0.0635796
0.0619589
0.06046592
0.05943685
0.0584636
0.05626303
0.05239673
0.04659681
0.03491987
0.01839966
0.008714344
0.05788006
0.06157989
0.0569332
0.05853499
0.06043207
0.06135527
0.06228566
0.0641403
0.06681449
0.06834969
0.0702978
0.06920249
0.06821249
0.07201331
0.07474994
0.07733173
0.08026111
0.08260024
0.0827157
0.07980864
0.07240334
0.06474578
0.06465773
0.06470859
0.06383003
0.06251014
0.06131755
0.05996967
0.05870673
0.05481413
0.04999756
0.03962078
0.06163184
0.06862983
0.06097237
0.06001456
0.05955691
0.05876319
0.05774677
0.05894022
0.06112433
0.06207785
0.06394378
0.06584249
0.0683476
0.07124238
0.07364029
0.0763306
0.07937481
0.08154722
0.08138725
0.07817337
0.06978035
0.06440082
0.06769338
0.0690518
0.06915651
0.06889056
0.0688517
0.06824507
0.06690688
0.06680562
0.06339431
0.04962178
0.07472489
0.06939856
0.0679375
0.06631107
0.0642617
0.06154927
0.05854542
0.05722529
0.05869171
0.05948723
0.06180403
0.065149
0.0677312
0.06991522
0.07200258
0.07454076
0.07717162
0.07860475
0.07776549
0.07400668
0.06559979
0.06584769
0.07034163
0.07220292
0.07297573
0.07347685
0.07377653
0.07339795
0.07144079
0.06882188
0.06467986
0.05899875
0.09123271
0.06656938
0.07837235
0.07081313
0.07061599
0.06772882
0.06443467
0.06126632
0.05987861
0.06022135
0.06225661
0.06420884
0.06561643
0.06728969
0.06904986
0.071278
0.07320982
0.07369569
0.07218326
0.06803622
0.06385605
0.06797315
0.07266686
0.07487229
0.07601326
0.07673915
0.07662068
0.07523964
0.07067385
0.0698663
0.05995637
0.06347153
0.06940197
0.08048207
0.08084573
0.07261253
0.07200541
0.06871366
0.06532663
0.06173359
0.06002751
0.06082332
0.06199423
0.06263498
0.0634951
0.06459848
0.06628605
0.06743624
0.06722847
0.06560985
0.06174533
0.06233633
0.07009316
0.074837
0.07729499
0.07861337
0.07890273
0.07775812
0.0726933
0.0743037
0.07031865
0.05767633
0.09164856
0.07042653
0.08348003
0.07442756
0.073302
0.07055401
0.06723217
0.06342802
0.05900407
0.0577022
0.05879818
0.05921246
0.05938372
0.05970681
0.06039245
0.06071291
0.06029271
0.05905543
0.05716632
0.06384875
0.07250751
0.07737697
0.08003593
0.08095191
0.08006981
0.07737186
0.07603817
0.07282393
0.0579201
0.06233555
0.07721244
0.06949342
0.07839754
0.07055722
0.0698251
0.06704027
0.06329692
0.05877969
0.05467132
0.05427166
0.05481463
0.05466588
0.05439555
0.05414275
0.05367864
0.05295305
0.05188031
0.05517764
0.06807736
0.07620236
0.08096059
0.08315473
0.08294999
0.0806075
0.07488221
0.07239184
0.06323894
0.05950397
0.06844765
0.07070249
0.07215941
0.06508349
0.0643597
0.06128784
0.05681616
0.05184808
0.04897237
0.04896768
0.04870331
0.04789082
0.04688595
0.04579371
0.04484105
0.04905241
0.06142596
0.07373932
0.08115589
0.0851292
0.08620863
0.08459409
0.07939405
0.08073268
0.07120468
0.06223606
0.06236232
0.06322038
0.06167866
0.06167324
0.05547644
0.05340181
0.04869274
0.04391128
0.04201553
0.04138467
0.04016188
0.03873334
0.03855607
0.04228978
0.05340386
0.06908521
0.07961419
0.08565456
0.08863527
0.0863196
0.08510166
0.08671287
0.07823052
0.07045741
0.05411408
0.05229156
0.0563616
0.05318858
0.04693452
0.0438835
0.03921812
0.03610102
0.03475931
0.03372998
0.03296886
0.03560623
0.04459247
0.06126978
0.07572768
0.08461437
0.08910615
0.08885235
0.09542992
0.09439791
0.07685712
0.07604878
0.04607122
0.04192836
0.04680499
0.04181265
0.03801455
0.03479695
0.03010616
0.02853275
0.02733573
0.0288052
0.03689194
0.05195037
0.06813524
0.07928668
0.08805308
0.0919432
0.09749171
0.09459405
0.07942196
0.08425605
0.03929371
0.03564072
0.03343359
0.03266577
0.03124899
0.02724709
0.02430891
0.02461844
0.03186293
0.04492994
0.06026864
0.07511571
0.09172712
0.09904702
0.09357835
0.08360684
0.08150281
0.1035411
0.02909467
0.02729209
0.02321323
0.02029844
0.01989431
0.02609268
0.03681703
0.05069776
0.06636855
0.07399745
0.08162054
0.09017307
0.09956966
0.1129073
0.02744233
0.03272695
0.04427244
0.0596296
0.07732987
0.1000482
0.0156489
0.02153443
0.02653121
0.01911503
0.01528663
0.0295612
0.03771993
0.04109366
0.04295299
0.04792904
0.02805271
0.02104061
0.01486175
0.01924822
0.02286533
0.0266339
0.02258034
0.0167135
0.02861345
0.03916946
0.04698873
0.05211622
0.04664456
0.04894949
0.0515993
0.05019473
0.03561271
0.03012849
0.0221809
0.02131362
0.02783524
0.03054608
0.02745292
0.0234035
0.0215927
0.02756206
0.04010378
0.0475431
0.05386505
0.05540589
0.05686314
0.05908798
0.05791754
0.05349704
0.0520312
0.04696638
0.03639505
0.0338854
0.0246536
0.02605762
0.03223257
0.03415628
0.03176014
0.02608135
0.02462946
0.03070532
0.03889055
0.04900066
0.05562874
0.05986379
0.06248683
0.0632011
0.06667325
0.0613689
0.06762085
0.06393015
0.05359133
0.04997419
0.04838259
0.03889876
0.03403
0.02674593
0.03325737
0.03884657
0.03893988
0.03507866
0.02836739
0.0300411
0.03509063
0.03960895
0.04845809
0.05625879
0.06183105
0.06591458
0.06938947
0.07161147
0.071005
0.07628668
0.06967854
0.06570992
0.0576831
0.0558325
0.05523518
0.04504316
0.03996418
0.03323065
0.03139975
0.04013609
0.04395054
0.04197208
0.03546338
0.03122363
0.03503647
0.03878211
0.04301959
0.04800482
0.05615221
0.06244141
0.06762776
0.07211973
0.07590731
0.07781937
0.07681362
0.08226719
0.07447
0.07126707
0.05776396
0.05988922
0.06176394
0.05174925
0.04572387
0.0381119
0.03105212
0.04020621
0.04822145
0.04923057
0.04404986
0.03615585
0.03528618
0.03950382
0.04325292
0.04714902
0.04972467
0.05541021
0.0619485
0.06777133
0.07303308
0.07764626
0.08085223
0.08264339
0.08147668
0.0866145
0.07764262
0.07431111
0.05947944
0.06056246
0.06570712
0.05764645
0.05229305
0.04374656
0.03436685
0.03746816
0.05035653
0.05546258
0.05223522
0.04216563
0.03638266
0.03643088
0.0437255
0.05019277
0.05226781
0.05218866
0.05401188
0.05986731
0.0657573
0.07154605
0.07689028
0.08115759
0.08410366
0.0857712
0.08371694
0.0883651
0.07864244
0.07944012
0.0601654
0.06546697
0.0606906
0.05795066
0.05001343
0.03937567
0.03387329
0.04783903
0.05810985
0.05800796
0.04889501
0.03486881
0.03209923
0.04055525
0.05434607
0.05822352
0.05779398
0.05660067
0.05499754
0.05594819
0.06123088
0.06705759
0.07297758
0.07831176
0.08252641
0.0852685
0.08608733
0.08284675
0.08695034
0.08288023
0.04990819
0.05515279
0.06040693
0.06137728
0.05638392
0.04667312
0.03454812
0.03867467
0.05445163
0.05923128
0.05112332
0.03167696
0.02903578
0.04388407
0.05951927
0.06635295
0.06568218
0.06311536
0.06085994
0.05888642
0.0569172
0.05586866
0.05919249
0.06528809
0.07143997
0.07699633
0.08119387
0.08353341
0.08344112
0.07927185
0.07217248
0.07108129
0.04597665
0.05291366
0.05938178
0.06151467
0.06056517
0.05448228
0.04284484
0.03553343
0.04318139
0.05401655
0.04829714
0.03292611
0.0351776
0.05521817
0.06770546
0.07485917
0.07579454
0.07232266
0.06822115
0.06494936
0.06239323
0.06031261
0.05831804
0.05602944
0.0546554
0.05977569
0.06650085
0.0723916
0.07667368
0.07866963
0.07780329
0.07760454
0.07417213
0.07606926
0.04726349
0.05472247
0.05737702
0.06137866
0.05963882
0.05262
0.03907577
0.03654447
0.04193148
0.04186377
0.03652703
0.04646446
0.06406093
0.07598275
0.08331855
0.08551204
0.08300071
0.07791304
0.07262239
0.0681737
0.06467475
0.06209102
0.06011941
0.05840635
0.0564954
0.05396915
0.05134737
0.05772902
0.06408201
0.06848153
0.07031047
0.06767669
0.06543329
0.06542497
0.04521199
0.0532346
0.05865014
0.0612706
0.05931491
0.05186824
0.04059178
0.03821004
0.03344665
0.03907473
0.05285418
0.07015582
0.08228536
0.09018737
0.09340528
0.09192367
0.08652831
0.07906096
0.07624069
0.07326135
0.06986703
0.06629994
0.06247009
0.05812849
0.05530648
0.05472889
0.05313869
0.05037989
0.04670471
0.05247561
0.05738656
0.06023811
0.05815647
0.06008612
0.04592595
0.04473603
0.05364399
0.05920907
0.06163776
0.05984972
0.05277251
0.04436254
0.04211964
0.04130445
0.05237161
0.06946411
0.0823707
0.09114552
0.09508586
0.09384041
0.08759044
0.08332451
0.07861305
0.07753808
0.07536166