/*--------------------------------*- C++ -*----------------------------------*\
  =========                 |
  \\      /  F ield         | OpenFOAM: The Open Source CFD Toolbox
   \\    /   O peration     | Website:  https://openfoam.org
    \\  /    A nd           | Version:  6
     \\/     M anipulation  |
\*---------------------------------------------------------------------------*/
FoamFile
{
    version     2.0;
    format      ascii;
    class       volScalarField;
    location    "49.8";
    object      Co;
}
// * * * * * * * * * * * * * * * * * * * * * * * * * * * * * * * * * * * * * //

dimensions      [0 0 0 0 0 0 0];

internalField   nonuniform List<scalar> 
203709
(
0.07794632
0.07195403
0.07238907
0.07670804
0.0940471
0.07102549
0.07214823
0.06617151
0.06439971
0.06196719
0.06424049
0.07430199
0.0992831
0.06845963
0.07800016
0.07018336
0.06786404
0.06398273
0.05920641
0.05439993
0.05241843
0.05191649
0.05245138
0.06678279
0.09688234
0.08118678
0.07097712
0.07050731
0.06784442
0.06359335
0.05942233
0.05547259
0.05161699
0.04791259
0.04420511
0.04084942
0.0427106
0.05453045
0.0883622
0.07004943
0.06679243
0.06441256
0.06361632
0.06081817
0.05783998
0.05463405
0.0508741
0.04679718
0.04249209
0.03779286
0.03216683
0.03323092
0.06333724
0.0634299
0.05681459
0.05369905
0.05549529
0.05953809
0.06134652
0.06102384
0.05876923
0.05509277
0.05079144
0.04617513
0.04105535
0.03536002
0.03068029
0.03510982
0.03297675
0.03432827
0.03534524
0.03312039
0.04379349
0.05251801
0.05876461
0.06194206
0.06201097
0.05956514
0.05592714
0.05190228
0.04737262
0.04219238
0.03662828
0.03101218
0.08270782
0.05459056
0.03875532
0.02518113
0.008818299
0.02053309
0.03606034
0.04847666
0.05740394
0.06182431
0.06172641
0.05938612
0.05643174
0.05285125
0.04849007
0.0436135
0.04389598
0.05533449
0.08562481
0.07206264
0.05831809
0.04892621
0.03452912
0.03714809
0.03655891
0.03689088
0.04604055
0.05714968
0.06077959
0.06060822
0.05919758
0.05686329
0.05344151
0.04895926
0.04444312
0.04020231
0.09102947
0.0776857
0.06708031
0.05837668
0.04707259
0.04878977
0.04911881
0.0468376
0.04525331
0.04985308
0.05676889
0.05959094
0.06015775
0.05937823
0.05701245
0.05273677
0.04779962
0.04209343
0.1008504
0.08444091
0.07006113
0.06109742
0.05230011
0.05267609
0.05283888
0.05135116
0.05141922
0.05279774
0.05393361
0.05641698
0.05936832
0.06043425
0.05926917
0.05698445
0.06319193
0.07547639
0.09492542
0.07023516
0.06043697
0.05307485
0.052573
0.05254053
0.05237623
0.0540783
0.05695153
0.05819258
0.05705082
0.05772136
0.06013719
0.06051003
0.0615527
0.06241374
0.09885157
0.07626918
0.06000507
0.05208112
0.05148473
0.0512594
0.05199085
0.05492204
0.058681
0.06091633
0.06056356
0.05925104
0.059585
0.06324468
0.07419592
0.09529852
0.08478367
0.05902906
0.04992284
0.0495467
0.04951013
0.05116789
0.05495746
0.05906515
0.06159917
0.06171692
0.06064293
0.06089878
0.06628851
0.07131649
0.08866503
0.06532622
0.05066581
0.04727677
0.04803555
0.05041314
0.05433683
0.05825834
0.06068756
0.06067719
0.06241967
0.06584712
0.08006867
0.104786
0.08174516
0.05301842
0.05244495
0.04739851
0.04877058
0.05264866
0.05620482
0.05976338
0.06259397
0.0734285
0.08835905
0.102392
0.06487436
0.04925293
0.04925088
0.05343738
0.05685059
0.06380636
0.07726242
0.09150537
0.05444535
0.05567945
0.0606812
0.07167066
0.03190182
0.02474545
0.02606161
0.03951255
0.0552998
0.06183846
0.06635059
0.07075102
0.0758639
0.08440988
0.03742416
0.03288991
0.01346584
0.01990427
0.03452284
0.05096705
0.05974354
0.06324004
0.06566904
0.06817124
0.07169682
0.0731739
0.08195457
0.09529535
0.04171666
0.03065296
0.01581772
0.01691521
0.0380017
0.05371309
0.05864734
0.06543536
0.06663199
0.06755091
0.06574787
0.06989936
0.07207358
0.07585043
0.07838885
0.08919949
0.034891
0.03131875
0.02761656
0.02632548
0.04124944
0.05297531
0.06677211
0.06625428
0.06846625
0.06940237
0.07036623
0.07276068
0.06982967
0.06653022
0.070395
0.07353914
0.07575659
0.08671869
0.02351681
0.02991114
0.03687747
0.03916464
0.04342026
0.05893488
0.06822331
0.07487258
0.07510811
0.07027328
0.0669357
0.06303142
0.06757033
0.06646113
0.0684175
0.0657423
0.06302465
0.06818786
0.06999698
0.08100182
0.02064599
0.02642212
0.03519157
0.04197415
0.05421565
0.06305703
0.07090266
0.07859415
0.077802
0.076148
0.07208555
0.0669109
0.06136978
0.05828974
0.05379275
0.05814891
0.05783207
0.05964316
0.05421267
0.05836356
0.0609058
0.07767861
0.02722617
0.03098745
0.03965124
0.05033448
0.06801368
0.07404
0.07671987
0.078816
0.07754694
0.0736174
0.06831978
0.06269512
0.05748808
0.05368589
0.0493062
0.04494454
0.04155492
0.04588183
0.04133764
0.04217646
0.0450803
0.05101134
0.05222191
0.02311291
0.02804569
0.04090955
0.05415251
0.07068314
0.07347026
0.07453965
0.07320415
0.07159036
0.06890974
0.06489234
0.06024572
0.05545042
0.05150993
0.04719554
0.04201879
0.03581776
0.03159369
0.02822687
0.02577332
0.02436287
0.01952597
0.005482324
0.05704283
0.04141845
0.03172242
0.03192629
0.04285199
0.05812029
0.06008297
0.05940456
0.06125929
0.06391526
0.06553761
0.06544186
0.06379808
0.06067631
0.0565915
0.05192248
0.04645154
0.0397383
0.02971734
0.02042692
0.01444996
0.014458
0.01757686
0.01900267
0.06634125
0.05648659
0.04739231
0.04306084
0.03413314
0.03599617
0.03912974
0.03768359
0.0485627
0.05697526
0.06275687
0.06603753
0.06698486
0.06549133
0.0623219
0.05839642
0.05380155
0.04820379
0.04146567
0.03281321
0.02650211
0.0237519
0.02578564
0.02688645
0.07384443
0.06720592
0.06510536
0.06445666
0.05101965
0.04242803
0.0300926
0.01455036
0.02522156
0.04039948
0.05176728
0.06016778
0.0655085
0.06704839
0.06569169
0.06302954
0.05953684
0.05512784
0.05003998
0.04410313
0.03986614
0.03428044
0.03385769
0.0339611
0.07854834
0.07354895
0.07416699
0.07581589
0.06830867
0.06020572
0.05261304
0.03931506
0.03844453
0.04040034
0.04009065
0.04671153
0.05851623
0.06478094
0.06634755
0.06553035
0.06336158
0.05984649
0.0552866
0.04981533
0.04450938
0.04071524
0.04066776
0.04062666
0.0803172
0.07532866
0.0774247
0.07977689
0.07541114
0.06838221
0.06248022
0.05262858
0.05079909
0.05293492
0.05250713
0.05171382
0.05287701
0.05856049
0.06429784
0.06597226
0.06541471
0.06263449
0.05805471
0.0525054
0.04731968
0.045098
0.04546095
0.04563306
0.07981544
0.0737881
0.07342796
0.07441409
0.0790666
0.07115259
0.06498794
0.0581981
0.05626587
0.0576849
0.05744185
0.05761339
0.05888209
0.05940097
0.06107162
0.0644906
0.06584857
0.06369363
0.05990897
0.05919319
0.05385343
0.0492734
0.04851907
0.04861204
0.07812752
0.0708862
0.06990016
0.07259762
0.08012018
0.07127915
0.06343415
0.05885573
0.05739284
0.05835293
0.05860781
0.0598575
0.06238955
0.06422734
0.06359575
0.06341822
0.06483071
0.06362371
0.06345886
0.06523133
0.06049722
0.05206072
0.05039987
0.0495963
0.07675205
0.06762275
0.06595418
0.06818848
0.07218678
0.07202839
0.06190065
0.05707269
0.05679783
0.05755701
0.05827504
0.06038153
0.06366835
0.06620818
0.0661805
0.06413934
0.06324113
0.06487273
0.06866895
0.06819034
0.06346003
0.05671088
0.05418541
0.05093802
0.08739423
0.07074665
0.06180166
0.06207644
0.06689967
0.06981732
0.06003773
0.05391067
0.05520663
0.05610532
0.05734767
0.06003199
0.0635586
0.06609591
0.06607702
0.06388008
0.06228023
0.06714977
0.07403373
0.07023777
0.06154057
0.06137248
0.0683146
0.08687161
0.0763089
0.06092335
0.05855024
0.05872793
0.06700335
0.0594728
0.0527128
0.05239601
0.0541698
0.05588666
0.05877093
0.06195124
0.06386621
0.06303257
0.06228287
0.06528688
0.07116152
0.07474955
0.07196583
0.06690363
0.06598909
0.06848422
0.08512721
0.06739267
0.0598184
0.05579501
0.06119445
0.05894167
0.05571093
0.04934458
0.05105599
0.05216214
0.05539248
0.05811623
0.06029924
0.06047833
0.06614004
0.07117149
0.07899037
0.07741867
0.06817408
0.07053835
0.07694686
0.09588704
0.08240138
0.0652089
0.05941511
0.05384428
0.05548554
0.05259967
0.04842015
0.05057229
0.04748444
0.05165932
0.05425656
0.05728795
0.06243753
0.0674646
0.07268309
0.06951497
0.07007589
0.07364043
0.07899137
0.09419394
0.076515
0.06163629
0.05604316
0.05146262
0.04611559
0.04755775
0.04750721
0.04662975
0.0488235
0.05113314
0.05055975
0.05370239
0.05682219
0.06272931
0.07104725
0.07480433
0.08072287
0.09514227
0.06918896
0.05663603
0.05053412
0.04576845
0.0428142
0.03989693
0.04265365
0.04438047
0.04732005
0.04777488
0.04912843
0.05572279
0.06582297
0.07473073
0.08231151
0.09588278
0.06325551
0.05125674
0.04381365
0.04083409
0.0388216
0.03938314
0.04148739
0.04396292
0.04578931
0.04907356
0.0606877
0.07406668
0.08504119
0.1050665
0.04499378
0.04001783
0.03836437
0.03916482
0.0416546
0.04473546
0.04783745
0.05713159
0.07436857
0.09989724
0.03875067
0.02918757
0.01610603
0.01306895
0.03312429
0.04777182
0.05769004
0.06717127
0.06351484
0.06159022
0.05549385
0.03782449
0.02750429
0.01709897
0.02326416
0.03657318
0.04950486
0.0585621
0.06246299
0.07041056
0.07622051
0.08302834
0.06853777
0.05852655
0.05660855
0.04538895
0.03450559
0.02372829
0.01966488
0.0303833
0.04471979
0.05474109
0.06199668
0.06803784
0.07216191
0.07239451
0.0762255
0.08194189
0.05373661
0.05488527
0.05614974
0.05719574
0.05470756
0.03932406
0.02553581
0.02086966
0.02807672
0.04302601
0.05345063
0.06069652
0.06660865
0.07208071
0.07803943
0.08372232
0.08176715
0.07534872
0.08552577
0.09780302
0.04865663
0.04358676
0.05079881
0.05600227
0.05140156
0.04802393
0.0325472
0.01818988
0.0245897
0.04134327
0.05405288
0.05905486
0.06386691
0.06815077
0.07232414
0.07434094
0.08266458
0.08624561
0.08968482
0.08281047
0.08389706
0.09386199
0.05465089
0.03441284
0.03911521
0.04916418
0.05137372
0.04705832
0.03201535
0.0151825
0.02596002
0.04508986
0.05698085
0.06320128
0.06505166
0.06620725
0.0690136
0.07137918
0.07446768
0.07791425
0.07991811
0.08991627
0.09069138
0.08291318
0.08449657
0.1039195
0.03855858
0.02729638
0.03640731
0.04401687
0.04214104
0.0304315
0.02391459
0.03286353
0.05178262
0.06303824
0.0694244
0.06893473
0.06839749
0.06786522
0.06800326
0.069295
0.0713079
0.07336734
0.07688625
0.07863258
0.08840415
0.08877263
0.0817158
0.0860212
0.05378448
0.03437024
0.02235294
0.03148298
0.03295484
0.03149934
0.03809436
0.04153967
0.05560644
0.06792412
0.07405673
0.07680353
0.07464233
0.0704407
0.06700108
0.06597277
0.06534016
0.06542346
0.06690426
0.06949592
0.07244172
0.07383084
0.08310624
0.08316802
0.07161079
0.08305625
0.06799998
0.04937292
0.0364137
0.02224177
0.02015416
0.02623887
0.03937759
0.04891655
0.05844754
0.06988365
0.07803928
0.08116277
0.08068729
0.07716789
0.07238498
0.06770135
0.06409301
0.06054506
0.05948934
0.05916575
0.05943587
0.06072791
0.06326582
0.06489628
0.07203493
0.06914774
0.06728097
0.07701967
0.06170246
0.05063081
0.04548727
0.02701719
0.02098578
0.0314943
0.04851705
0.06073505
0.07218192
0.07926105
0.08321939
0.08338465
0.0803726
0.07539058
0.06985145
0.06480079
0.06067691
0.05715129
0.05443978
0.05154774
0.05022152
0.04994876
0.04959541
0.04930063
0.05328123
0.0561034
0.05155419
0.05829385
0.05934656
0.05497915
0.05204821
0.03502327
0.03119176
0.03412124
0.05247829
0.06720825
0.07596581
0.08033873
0.08088646
0.07869105
0.07648824
0.07279575
0.06844251
0.06393185
0.05960923
0.05556514
0.05161698
0.04710984
0.04235823
0.03901513
0.03843182
0.03750398
0.03287791
0.03276782
0.03203192
0.03779518
0.07376322
0.06047525
0.06051929
0.05818221
0.04888819
0.04683186
0.03945061
0.04456073
0.05855069
0.06467816
0.0666668
0.06833524
0.06990778
0.07155976
0.07164938
0.07041245
0.06774491
0.06387515
0.05912026
0.05340337
0.04643813
0.03823742
0.02994413
0.0250934
0.02103564
0.01728519
0.02040699
0.02469061
0.02750272
0.03394357
0.06745882
0.06452511
0.06430184
0.0648896
0.0601173
0.05824421
0.05523211
0.04515347
0.0404303
0.04423413
0.04570593
0.0535762
0.06203624
0.06781414
0.0712091
0.07256922
0.07164638
0.06874101
0.0646373
0.05955901
0.05338118
0.04618533
0.0382563
0.03048446
0.02551765
0.02479854
0.02681993
0.02955979
0.03332095
0.04195174
0.06710376
0.06501894
0.0671934
0.06997802
0.06829112
0.06708211
0.06769186
0.06381511
0.05640771
0.04174879
0.02425422
0.02854047
0.04451711
0.05575829
0.06398999
0.06965091
0.07209734
0.0713055
0.06856181
0.06445696
0.05909783
0.05317702
0.04690099
0.04003158
0.03498771
0.03373498
0.03243579
0.03055967
0.03062589
0.03666545
0.06737243
0.06536211
0.06862006
0.07284337
0.07289984
0.07375577
0.07364415
0.07375457
0.07100262
0.06282153
0.0492911
0.04145353
0.04473804
0.04537857
0.05035373
0.06065154
0.06825546
0.07090044
0.07034569
0.06758974
0.06285431
0.05745934
0.0519777
0.04663457
0.04189367
0.04031467
0.03971927
0.03771404
0.03654595
0.03692873
0.06693235
0.06488039
0.06856297
0.07349391
0.07420928
0.07588539
0.07669721
0.07606427
0.07503306
0.07112522
0.06188506
0.05413836
0.05756483
0.05838459
0.05812496
0.05791432
0.06159806
0.06731909
0.0698617
0.06893399
0.06476794
0.05950268
0.05436261
0.05034863
0.04666711
0.04500142
0.04495782
0.0430636
0.04205079
0.04155656
0.06580858
0.06355539
0.06717034
0.07226817
0.07283095
0.07444208
0.07528613
0.07509125
0.07334504
0.07135357
0.06572215
0.05992607
0.06264534
0.06352915
0.06405229
0.06531257
0.06637405
0.065899
0.06718855
0.06861395
0.06509193
0.05982488
0.05585353
0.05265789
0.05063429
0.04879364
0.04796277
0.04620943
0.04516912
0.04383139
0.06488212
0.06183483
0.06471203
0.06956712
0.06958532
0.07054326
0.07213824
0.07285111
0.06980883
0.06746733
0.06470732
0.06153855
0.06370285
0.06477229
0.06615911
0.06862789
0.07086989
0.07089313
0.06846323
0.06702519
0.06419967
0.06123433
0.05903203
0.05717593
0.05467039
0.05215333
0.04981347
0.04678357
0.04509833
0.04269324
0.0774215
0.06508195
0.06225172
0.06573059
0.06554176
0.06569866
0.06761085
0.06779089
0.06601157
0.06310536
0.06167977
0.06155328
0.06332226
0.06458357
0.06665875
0.069863
0.07266899
0.07312842
0.07078394
0.06712091
0.06321738
0.06436723
0.06393893
0.06190347
0.05923023
0.05694305
0.05279919
0.05010659
0.05304421
0.06389884
0.06999623
0.05956257
0.06907841
0.06377424
0.06110868
0.061814
0.06241145
0.06149321
0.05900617
0.05911099
0.06103329
0.0625511
0.06399226
0.06645278
0.06981249
0.07244767
0.07269369
0.07009466
0.06506192
0.06438524
0.06765664
0.06822461
0.06664199
0.06469454
0.06235041
0.06054608
0.05891087
0.05797699
0.07367953
0.06392945
0.07174914
0.06529347
0.06084616
0.05962028
0.05991996
0.05843628
0.05755887
0.05811687
0.05986078
0.06139961
0.06296615
0.06546585
0.06839664
0.07019272
0.06958026
0.06626426
0.06409078
0.06753063
0.07080877
0.07102178
0.06995779
0.06906706
0.07157933
0.06786999
0.0599952
0.06355953
0.09180662
0.07071587
0.06768306
0.073675
0.0641045
0.06283396
0.06116264
0.05917016
0.05799091
0.05726606
0.0570946
0.05878203
0.06023537
0.06267544
0.06492112
0.06553114
0.06380014
0.0633425
0.06505402
0.07025538
0.07374535
0.07408666
0.07353902
0.07100721
0.07137662
0.07015534
0.06814193
0.07980895
0.08049829
0.0665398
0.0750135
0.07262995
0.06428546
0.06279499
0.05966765
0.05721294
0.05625475
0.05461991
0.05506417
0.0553455
0.05754933
0.05902975
0.0588189
0.05940014
0.05940648
0.06530433
0.07242402
0.07574528
0.07668059
0.07469393
0.07928197
0.07634466
0.06654707
0.07851208
0.07208367
0.06874221
0.07302378
0.07036665
0.06191785
0.05936454
0.05500927
0.05372597
0.05227005
0.05153702
0.05090022
0.05154862
0.05254905
0.05340318
0.05413934
0.05636933
0.06608162
0.07354172
0.0777606
0.07742409
0.08309376
0.08035217
0.06999837
0.07173185
0.08989824
0.06865583
0.06486405
0.06914963
0.06559569
0.05695825
0.05348883
0.04994829
0.04842046
0.04731541
0.04642669
0.04659685
0.04744017
0.04810348
0.04866944
0.0563854
0.0690528
0.07685629
0.07928636
0.08657211
0.08411102
0.07351555
0.074898
0.08622185
0.07093889
0.06337598
0.05956421
0.06263681
0.05618655
0.05321397
0.04482835
0.04371771
0.04214363
0.04125007
0.04117909
0.04163165
0.04216723
0.04816066
0.06193778
0.07276857
0.08020958
0.09054524
0.08814733
0.07824955
0.07869723
0.08551688
0.06733244
0.05918664
0.04993381
0.05266917
0.04938695
0.04258294
0.03861871
0.03676627
0.03599963
0.03610394
0.03773259
0.04250164
0.05469601
0.07000174
0.08679587
0.09226046
0.08375622
0.0781978
0.08146449
0.0992304
0.04866787
0.04503099
0.04013154
0.03810808
0.03430819
0.0319668
0.03138043
0.03197199
0.03446251
0.04397758
0.05916686
0.07221205
0.07900245
0.08342705
0.08626723
0.09201802
0.04341624
0.03916242
0.03429891
0.03004978
0.02917341
0.02822004
0.02860663
0.03565745
0.05034329
0.06655967
0.07543149
0.0844224
0.09631069
0.1122002
0.0296181
0.02769468
0.02745912
0.0327773
0.04528163
0.06151156
0.07896556
0.1042934
0.03494025
0.02669821
0.009252026
0.02647723
0.04080658
0.05106732
0.04847632
0.04213301
0.04476348
0.04191413
0.03408154
0.02392594
0.01064687
0.02632428
0.04081295
0.04704352
0.05404253
0.05724588
0.06269736
0.06561019
0.04351442
0.03704066
0.03966678
0.0461922
0.04776964
0.04009909
0.03461419
0.02245247
0.01491807
0.02942703
0.04342243
0.05369138
0.06217284
0.06852349
0.06665448
0.06231203
0.06380579
0.07290385
0.04213696
0.03355954
0.03735665
0.04258745
0.05250014
0.05399396
0.04387167
0.03523317
0.0237054
0.02530193
0.0340951
0.04572982
0.0562857
0.06196123
0.0695538
0.07146461
0.07507636
0.07805919
0.06798979
0.07561222
0.04387055
0.03591694
0.03471652
0.04423384
0.04929228
0.0541178
0.05121909
0.04283669
0.0309283
0.02523179
0.03092612
0.0401616
0.0495551
0.0586441
0.06569159
0.07103508
0.07517244
0.07651067
0.08431676
0.08582687
0.07552561
0.07511805
0.05058059
0.04358092
0.03487541
0.04000808
0.04639774
0.05509693
0.05597794
0.04930516
0.03783429
0.02852522
0.0271241
0.03526571
0.04676756
0.05387613
0.06027609
0.06661136
0.07222777
0.07718608
0.08109675
0.08171811
0.08692534
0.08782249
0.0835029
0.08061075
0.05481381
0.05090364
0.04535601
0.03136308
0.04027993
0.05293752
0.05812068
0.0547525
0.0441303
0.02928724
0.02710917
0.03322753
0.04661625
0.05379523
0.0579639
0.06083491
0.06616408
0.0713975
0.0764284
0.08113593
0.08502245
0.08709973
0.0860343
0.09354513
0.08580865
0.08166543
0.06127316
0.05278818
0.05301399
0.03878245
0.02950421
0.0456431
0.05574311
0.05589103
0.04659033
0.02844726
0.01992099
0.03294212
0.04980213
0.05934529
0.06137857
0.06129863
0.06240946
0.06444272
0.06867347
0.07324254
0.07820856
0.08293456
0.08642529
0.08842707
0.08705083
0.0919326
0.08103438
0.08744858
0.06437046
0.05368334
0.06047453
0.0489307
0.03576518
0.03195987
0.04693196
0.05164106
0.04386676
0.02912958
0.02423222
0.042164
0.05712355
0.06580424
0.0687167
0.06714775
0.06481869
0.06312378
0.06310364
0.0643116
0.0680787
0.07257859
0.07750909
0.08205332
0.08541741
0.08717018
0.08893417
0.09127181
0.07542108
0.08651983
0.0536955
0.06165475
0.05914425
0.04601435
0.03207764
0.03162893
0.0415645
0.0373514
0.03383153
0.0378711
0.0503387
0.06375067
0.07235528
0.07627185
0.0753919
0.07165022
0.06770105
0.06491898
0.06278115
0.06125994
0.06145907
0.06410962
0.0686412
0.07351548
0.07799465
0.08132992
0.08051466
0.08693713
0.08318404
0.0736683
0.06168079
0.05318799
0.06138187
0.05454222
0.04667035
0.03385656
0.02849577
0.02979797
0.03512629
0.04567672
0.05520181
0.06846851
0.077469
0.08208809
0.08251077
0.07942225
0.07465414
0.07003484
0.06635839
0.06336548
0.06131099
0.05951464
0.05794947
0.05767657
0.06048466
0.06553445
0.06988938
0.07291452
0.07184044
0.07379234
0.06604956
0.0712817
0.05815576
0.05911597
0.06027103
0.0573414
0.04870722
0.03809103
0.02882163
0.03170744
0.04713004
0.059753
0.07214623
0.08079165
0.08589859
0.08715284
0.08487567
0.08014509
0.07450876
0.06928343
0.06559765
0.0623017
0.05908062
0.05698042
0.05559981
0.05474027
0.05358937
0.05143083
0.05285324
0.05680858
0.05925255
0.05993059
0.06018075
0.05877811
0.05464156
0.06465171
0.06206403
0.06006635
0.05333286
0.04434576
0.04064831
0.04045358
0.0535463
0.06849304
0.07878374
0.08482383
0.08677643
0.08493495
0.08282112
0.07948276
0.07538715
0.07106486
0.0673893
0.06352967
0.05914502
0.05524516
0.05117248
0.04759341
0.0476011
0.04707342
0.04512121
0.04356053
0.04089156
0.04397447
0.04468288
0.04052209
0.05322691
0.06410479
0.0616604
0.06332811
0.05935946
0.05154503
0.05447489
0.04726106
0.04852996
0.06184627
0.06964905
0.07319436
0.07449971
0.0759999
0.07742153
0.0777829
0.07699706
0.07486693
0.07134615
0.06666928
0.0608933
0.05402518
0.04644839
0.03914594
0.03592061
0.03282998
0.03321649
0.0331256
0.03268223
0.03133412
0.03510845
0.04304936
0.06045016
0.05363179
0.06159288
0.06439056
0.06611085
0.06492968
0.05980913
0.06272202
0.06416898
0.05608961
0.04859573
0.04998922
0.05299913
0.05799426
0.06668394
0.07265195
0.07625025
0.07799824
0.0776502
0.07511614
0.07093953
0.06541151
0.05872706
0.05138879
0.04366337
0.03570548
0.02994914
0.03129594
0.03229367
0.03646623
0.04245617
0.04860159
0.05231022
0.06024547
0.0556033
0.0564833
0.06119238
0.06477003
0.06797041
0.06899192
0.06696699
0.06663476
0.07214107
0.07289393
0.06588554
0.05122837
0.03302841
0.03183668
0.04816711
0.0595197
0.0677587
0.07368195
0.07683995
0.0766674
0.07395324
0.06923162
0.06297355
0.0563813
0.04991788
0.04354947
0.0381638
0.03533673
0.0330724
0.03373941
0.03703203
0.04317792
0.0541321
0.06514418
0.05456764
0.05553706
0.06075085
0.06449891
0.0685564
0.07100421
0.07097411
0.07012149
0.073546
0.07888026
0.07827141
0.0706995
0.05815469
0.04551187
0.04939784
0.05095159
0.05439923
0.06290714
0.07135703
0.07502579
0.0748408
0.07152134
0.06573429
0.0596395
0.05409962
0.0491629
0.04423062
0.04103152
0.03917033
0.03601421
0.03354925
0.03477416
0.03934455
0.05501957
0.05406011
0.054573
0.05975035
0.06336887
0.06773137
0.07088143
0.07187692
0.07229543
0.07359199
0.07750201
0.08032705
0.07744695
0.06937403
0.05855409
0.06272146
0.06435481
0.06458146
0.06466347
0.06592991
0.0698075
0.07326088
0.07202362
0.06685698
0.06115858
0.05630172
0.0525696
0.04929435
0.04583496
0.04318568
0.04036182
0.03869655
0.03646679
0.0304992
0.03790497
0.05381814
0.05345172
0.05805754
0.06137513
0.06558066
0.06884254
0.07011763
0.07103079
0.07128799
0.073566
0.07625296
0.07611113
0.07155727
0.0645849
0.06812222
0.06977135
0.0706744
0.07202218
0.0733773
0.07307532
0.07201806
0.07076591
0.06648887
0.06129146
0.05709142
0.0544229
0.05260956
0.0504874
0.04727897
0.04298562
0.04094128
0.03876399
0.0317108
0.03108127
0.06579366
0.05661237
0.05595732
0.05892874
0.06249796
0.06537969
0.06643747
0.06731413
0.06799196
0.06931004
0.07001366
0.07118599
0.06910581
0.06647899
0.06944256
0.07115762
0.07279844
0.07527387
0.0777323
0.07822581
0.07609655
0.07135976
0.06495051
0.06062945
0.05751957
0.05571772
0.05458217
0.05324311
0.05114707
0.04769276
0.04337103
0.03758812
0.02869775
0.03033085
0.05964389
0.0634154
0.05796067
0.05993974
0.06119206
0.06181737
0.06226559
0.06290548
0.06426734
0.06449368
0.06563369
0.06555292
0.06701134
0.0694213
0.0711502
0.07333672
0.07649164
0.07944264
0.0802565
0.07818133
0.07225295
0.06375633
0.06067181
0.05957505
0.0582197
0.056685
0.05514012
0.05328337
0.05139916
0.04790513
0.04328402
0.03921461
0.06380395
0.07113632
0.06262527
0.06220101
0.06118781
0.06024054
0.05895321
0.05875887
0.06003914
0.060537
0.06236077
0.06446557
0.06728246
0.0691498
0.0708191
0.07323336
0.07646858
0.07917984
0.07969331
0.0773644
0.07079318
0.06286749
0.06250676
0.06365538
0.063436
0.06280681
0.0623978
0.0614218
0.0600183
0.06073721
0.05735681
0.0471766
0.07659032
0.07133334
0.07003447
0.06855946
0.06664376
0.06400081
0.06099547
0.05861975
0.0593568
0.05986037
0.06230332
0.06500096
0.06685521
0.06836125
0.06995603
0.0722963
0.07507556
0.07696923
0.07673983
0.07390422
0.06661502
0.06257416
0.06584074
0.06755435
0.06809131
0.06832231
0.06831418
0.0678332
0.06593814
0.06357746
0.06118007
0.05760744
0.0927516
0.06777773
0.07992121
0.07242762
0.07241636
0.06962976
0.06633729
0.06309985
0.06083892
0.06093301
0.06235351
0.06391891
0.06489268
0.06614119
0.0675826
0.06968199
0.07175503
0.0726516
0.07167931
0.06848838
0.06259086
0.06410363
0.06888491
0.07104398
0.07206535
0.0726587
0.07239708
0.071044
0.06674159
0.06569715
0.05826762
0.06132337
0.06985659
0.08127072
0.08180038
0.07368363
0.07322517
0.06998019
0.06654524
0.06282628
0.06039766
0.06069216
0.06166027
0.06205222
0.06264722
0.0635435
0.06516238
0.06646284
0.06662367
0.06546222
0.06254919
0.0606716
0.06680479
0.07178223
0.07428498
0.07558687
0.07584038
0.07474331
0.0698137
0.07155142
0.0680578
0.05756516
0.0915823
0.07045939
0.0837265
0.07481065
0.07384837
0.0712
0.06790013
0.06404318
0.05950506
0.05756672
0.05844023
0.05871226
0.05871954
0.05891881
0.05959862
0.06008563
0.05997348
0.05915326
0.05610192
0.0609027
0.06991403
0.07500295
0.07775511
0.07870041
0.07788416
0.07528971
0.07429842
0.07089091
0.05703646
0.06124774
0.07625525
0.06926119
0.07802596
0.07044584
0.06987152
0.06718795
0.06348133
0.05894268
0.05453683
0.05389944
0.0543628
0.05411688
0.05378402
0.05357081
0.05328542
0.05284047
0.05217848
0.05440947
0.06579849
0.07421861
0.0791772
0.08146131
0.08133622
0.07908026
0.07348857
0.07092091
0.06268449
0.0597405
0.06797923
0.06998104
0.07144959
0.06465598
0.0640719
0.06110249
0.05668659
0.05171097
0.04867589
0.04852817
0.04821723
0.04739783
0.04648018
0.04558266
0.04489117
0.04847957
0.05965025
0.07210059
0.07969706
0.08382552
0.08500036
0.08345594
0.07833503
0.0797474
0.07221892
0.06676921
0.06137869
0.06216342
0.06087808
0.06099489
0.05502923
0.05303143
0.04836248
0.04354269
0.04157727
0.0409285
0.03973823
0.03833666
0.03830491
0.04203038
0.05258482
0.06795049
0.07849049
0.08463466
0.08773238
0.08549266
0.08419517
0.08598449
0.07879212
0.07314378
0.05270408
0.05137172
0.05555654
0.05250947
0.04642379
0.04341242
0.03873809
0.03562721
0.03425104
0.03324207
0.03263126
0.03564093
0.04479542
0.06096024
0.07509469
0.08391839
0.0884373
0.08825622
0.09480407
0.09381653
0.0771068
0.07782042
0.0450869
0.04119558
0.0460948
0.04128353
0.03748034
0.03418037
0.02956951
0.02804812
0.02692108
0.02908695
0.03786794
0.05258639
0.06823667
0.07903554
0.08761515
0.09152962
0.09714204
0.09413145
0.07902422
0.0838152
0.03869693
0.03493528
0.03284858
0.03211668
0.03076448
0.02681881
0.02383466
0.02518644
0.03341454
0.0463766
0.06128981
0.07554075
0.09180176
0.09894265
0.09334679
0.0833274
0.08111019
0.1033295
0.02892093
0.0269165
0.02283525
0.02083673
0.02150546
0.02799791
0.03880351
0.05250128
0.06764137
0.07460868
0.08164003
0.09018963
0.09950835
0.1130036
0.02957572
0.03516265
0.04683084
0.06188507
0.07888898
0.1012225
0.02065397
0.0230006
0.02388198
0.01788697
0.009481936
0.02632184
0.03602353
0.04014782
0.04277757
0.04884598
0.02990554
0.02450842
0.0203
0.02373576
0.02655586
0.02499999
0.02123137
0.01256586
0.0250881
0.03731431
0.04637418
0.05164029
0.04610704
0.04798787
0.05096214
0.05049774
0.03598294
0.03111373
0.02518135
0.0263655
0.03259773
0.03491638
0.0304049
0.02473935
0.01717238
0.02465313
0.03818011
0.0466262
0.05302776
0.05492474
0.05642374
0.05885891
0.05745787
0.05273824
0.05126332
0.0463666
0.03561593
0.03395476
0.02657159
0.03080181
0.03613146
0.03692699
0.03402584
0.02760989
0.02392096
0.02820615
0.0373581
0.0483107
0.05532541
0.05966342
0.06226406
0.06288398
0.06599555
0.06084366
0.0664532
0.06286583
0.05207213
0.0482911
0.04655031
0.03718404
0.03296129
0.02929985
0.03796782
0.04216313
0.04092848
0.03619317
0.03093848
0.03047665
0.03293138
0.03892714
0.04826375
0.05640025
0.06208664
0.06613875
0.06946732
0.0715035
0.07067183
0.0756189
0.06900597
0.06460391
0.0552893
0.0533782
0.05246433
0.04212138
0.03694876
0.03112472
0.03677703
0.04496485
0.04683315
0.0430835
0.03629021
0.03478326
0.03511643
0.0375633
0.04275119
0.04850276
0.05690897
0.06329922
0.0684512
0.07279769
0.07637776
0.07804133
0.07679513
0.08194817
0.07413314
0.0705596
0.05500518
0.05700665
0.05842148
0.04814343
0.04145267
0.03347664
0.03389671
0.04629602
0.05208689
0.05054859
0.04320849
0.03701365
0.03750862
0.03975965
0.04322381
0.0474763
0.05073999
0.05691543
0.0635639
0.06940292
0.0745639
0.07895695
0.08187761
0.08337618
0.08192379
0.08678838
0.07774367
0.0741622
0.05663692
0.05774454
0.06231554
0.05393818
0.04769941
0.03813368
0.03047385
0.04411545
0.05477126
0.05668294
0.05049855
0.03804942
0.03597192
0.03660445
0.04397323
0.0511526
0.05303437
0.053228
0.05604042
0.0624443
0.06847279
0.07425758
0.079427
0.08337124
0.08590034
0.08715001
0.08470916
0.08906631
0.07915322
0.08018394
0.05773744
0.06253568
0.05745124
0.05379436
0.04455419
0.0320492
0.03636231
0.05230275
0.05859182
0.05460753
0.04176282
0.02865613
0.03016228
0.04205753
0.0559762
0.05934411
0.05854542
0.05713266
0.05663079
0.05960324
0.06536634
0.07132973
0.07715164
0.08214644
0.08582319
0.0879185
0.08812804
0.08432126
0.08806082
0.08324473
0.04825576
0.05320177
0.05800821
0.0582643
0.05212664
0.0405152
0.03210094
0.0423743
0.05436973
0.05343091
0.04099136
0.02488096
0.03261993
0.04952604
0.06186273
0.06717447
0.06619829
0.0633481
0.06089646
0.05878868
0.05759695
0.05986026
0.06560542
0.07163214
0.07742062
0.08230051
0.08558706
0.08695404
0.08594463
0.08101472
0.0735032
0.07196706
0.04495386
0.05166009
0.05788002
0.05957102
0.0579116
0.05058639
0.03661727
0.03305796
0.04259661
0.04683409
0.03923672
0.03546834
0.04426202
0.05962822
0.06926549
0.07499199
0.07525747
0.07168882
0.06753678
0.06429098
0.06181253
0.05982095
0.05787382
0.05774633
0.06247263
0.06864733
0.07443705
0.07902421
0.08182145
0.08247298
0.08043403
0.07917662
0.0738594
0.07249688
0.04657825
0.05384402
0.05642233
0.06014387
0.05787685
0.04971686
0.03801937
0.0346969
0.03437101
0.03840601
0.04491776
0.05445389
0.06681027
0.07653401
0.08207807
0.08340986
0.08075037
0.07590401
0.07109496
0.06723588
0.06428158
0.06207945
0.06023631
0.05846559
0.05641839
0.05583026
0.06156152
0.06723543
0.07143009
0.07377787
0.07397121
0.0699293
0.06690768
0.06551018
0.04488224
0.05293608
0.05836074
0.06098013
0.05890189
0.0509283
0.04191939
0.03722413
0.03703994
0.04862901
0.06111556
0.07299878
0.08213865
0.08784928
0.08984043
0.08816664
0.0836482
0.07787346
0.07257581
0.06981496
0.0667718
0.06324234
0.0602647
0.05898672
0.05787342
0.05629222
0.05375436
0.0509257
0.05526388
0.05947078
0.06206843
0.06261431
0.05913888
0.05944785
0.04602775
0.0447993
0.05382739
0.0595995
0.06234221
0.06100582
0.0544919
0.04775607
0.047231
0.04781674
0.05749014
0.07167517
0.08208494
0.0887745
0.09155915
0.09050706
0.08808506
0.08509782
0.08124275
0.07723645
0.07468375
0.07109726