/*--------------------------------*- C++ -*----------------------------------*\
  =========                 |
  \\      /  F ield         | OpenFOAM: The Open Source CFD Toolbox
   \\    /   O peration     | Website:  https://openfoam.org
    \\  /    A nd           | Version:  6
     \\/     M anipulation  |
\*---------------------------------------------------------------------------*/
FoamFile
{
    version     2.0;
    format      ascii;
    class       volScalarField;
    location    "49.8";
    object      epsilon;
}
// * * * * * * * * * * * * * * * * * * * * * * * * * * * * * * * * * * * * * //

dimensions      [0 2 -3 0 0 0 0];

internalField   nonuniform List<scalar> 
203709
(
0.0170887
0.01170195
0.01273166
0.02196355
0.01402267
0.008829385
0.007001107
0.006069963
0.00650176
0.008601079
0.01185501
0.02065215
0.01290934
0.007868863
0.005906974
0.004792943
0.004660593
0.004666068
0.004812435
0.00513914
0.005697367
0.007637285
0.01046846
0.01868511
0.01186117
0.005546067
0.004163263
0.003867292
0.003702198
0.003611787
0.00354011
0.003498497
0.003516459
0.003627616
0.003922379
0.004522087
0.006786327
0.01491318
0.006261715
0.003531541
0.003079173
0.00285157
0.002697665
0.002593317
0.002527164
0.002493688
0.00249001
0.002520707
0.0026125
0.002834309
0.003469696
0.007694034
0.007471863
0.003572085
0.002463895
0.002203809
0.0020723
0.002055642
0.0020897
0.002148375
0.002215455
0.002291209
0.002382837
0.002496077
0.002639734
0.002871751
0.003750694
0.006920741
0.003639942
0.002028881
0.001620216
0.001459509
0.001475937
0.001565951
0.001705194
0.00187646
0.002045472
0.002217493
0.002412186
0.002638363
0.002885263
0.003163997
0.0036063
0.005582199
0.01139665
0.005024777
0.002469109
0.001657011
0.001113653
0.00121285
0.001282018
0.00141452
0.001648332
0.001891904
0.002132759
0.002416556
0.002765167
0.003144415
0.003512692
0.003961667
0.005306135
0.01057302
0.006809156
0.00381581
0.002773443
0.00215649
0.001798883
0.001539706
0.001332079
0.001252975
0.001443503
0.001724051
0.001999875
0.002338546
0.002800331
0.003327574
0.003812049
0.004283893
0.005100794
0.007996623
0.006734282
0.003679497
0.002939384
0.002503088
0.002217994
0.001950868
0.001649727
0.001352801
0.001308417
0.001562452
0.001850622
0.002209681
0.002761238
0.00345636
0.004094003
0.00466988
0.00566375
0.009496329
0.01121684
0.004595395
0.003140009
0.002706108
0.002435309
0.002165116
0.001835809
0.001487609
0.001324024
0.001440714
0.001710351
0.002062305
0.002675015
0.003556125
0.004398291
0.005215229
0.007701893
0.01787463
0.006299831
0.003436426
0.002864518
0.002545524
0.002251033
0.001903094
0.001551254
0.001365745
0.001414338
0.001613498
0.001924766
0.002572961
0.003651687
0.004769215
0.00596828
0.01100285
0.01055196
0.004418313
0.003040293
0.002617992
0.002284048
0.00191849
0.001580651
0.001405429
0.001421022
0.001573052
0.00185525
0.002500133
0.00378927
0.005319613
0.008142898
0.0195286
0.006064315
0.003292436
0.002705237
0.002296525
0.001915057
0.001608619
0.001455488
0.001449864
0.001571433
0.001850659
0.002566508
0.004057835
0.006191761
0.01199179
0.009883237
0.004284007
0.002939408
0.002400739
0.001977427
0.001685675
0.001532918
0.001506163
0.001622599
0.001942278
0.002881102
0.004781775
0.008950298
0.02127936
0.008751202
0.004836696
0.003190133
0.002217724
0.001864193
0.001662711
0.001619811
0.001793246
0.002267851
0.004288716
0.008912103
0.02078235
0.00674219
0.003746585
0.0026364
0.001949909
0.001905864
0.002562598
0.004160512
0.0104191
0.005540441
0.003357491
0.003427657
0.006019446
0.006841785
0.00401168
0.00477178
0.008197651
0.01018911
0.0118229
0.01316177
0.01456173
0.01655626
0.02821694
0.004965118
0.002573861
0.001555359
0.001475364
0.002845608
0.004354594
0.005450006
0.006302479
0.007040706
0.00783909
0.008860188
0.01185706
0.01663282
0.02856808
0.005484746
0.002435486
0.001530175
0.001219401
0.001758916
0.002701366
0.003568062
0.004288092
0.0048758
0.005498506
0.006177617
0.006880614
0.007790791
0.008951947
0.01241014
0.02672918
0.005710807
0.002718349
0.001858711
0.001588137
0.001647422
0.001963922
0.00239817
0.00391279
0.003980948
0.00434442
0.00462155
0.004770053
0.005485656
0.006192796
0.006944243
0.008145378
0.0115676
0.02538767
0.005017151
0.00308475
0.00221532
0.001987527
0.001908254
0.001849053
0.003581177
0.003094166
0.003713131
0.003730297
0.003925239
0.004103579
0.00432941
0.004585715
0.004655658
0.005386177
0.006268641
0.007494462
0.01092969
0.02441998
0.004038899
0.00324752
0.002595678
0.002165865
0.001903867
0.00398842
0.003048445
0.003362594
0.003245761
0.003509504
0.003616119
0.003711988
0.003807725
0.003955642
0.004125113
0.004329256
0.004553833
0.004561403
0.005560263
0.006846087
0.01029902
0.02311878
0.003914403
0.003113959
0.002681981
0.002265512
0.004270685
0.003324069
0.003053917
0.003274873
0.003504072
0.003711905
0.003826735
0.003891707
0.003945933
0.004003973
0.0040506
0.004059202
0.003997893
0.003920948
0.003746538
0.004595241
0.006008389
0.0116978
0.007346767
0.00318352
0.003176565
0.003334937
0.002803015
0.004151977
0.00355049
0.003824939
0.004251048
0.004648707
0.00493723
0.00511399
0.005216613
0.005297889
0.00539569
0.005518935
0.005583076
0.005392997
0.004591817
0.002473311
0.00287757
0.00370346
0.006569176
0.005007742
0.004824377
0.002426191
0.002263781
0.003308113
0.004864216
0.003843387
0.003249692
0.003238083
0.003314916
0.00340595
0.003485556
0.003582074
0.003702518
0.003853918
0.004064182
0.00437621
0.004817009
0.005375504
0.005943522
0.005830157
0.002789779
0.002908712
0.003337225
0.004626707
0.004883465
0.002441521
0.001956531
0.002250109
0.005465802
0.004481109
0.003423191
0.002772675
0.00254142
0.002372436
0.002227143
0.002203312
0.002271555
0.002393371
0.002562162
0.002784796
0.003063425
0.003365739
0.003641217
0.003777208
0.002718765
0.003169955
0.003514253
0.004838214
0.0051732
0.002570355
0.001958646
0.00228128
0.004047185
0.004330845
0.003981763
0.003374301
0.002706472
0.002403465
0.002035983
0.001829409
0.001791178
0.001856006
0.002017338
0.002248255
0.00252125
0.002793145
0.003086429
0.003518792
0.004012809
0.003390813
0.003875129
0.005534822
0.005564583
0.002754539
0.002039233
0.002131012
0.002831079
0.003175928
0.003089318
0.002809583
0.002629496
0.002517068
0.002228763
0.001847307
0.001651581
0.001598523
0.001720773
0.001975512
0.002281945
0.002562548
0.002833413
0.003140116
0.003452444
0.0036003
0.004233915
0.006335468
0.005987841
0.002982353
0.002195433
0.002074778
0.002234671
0.002353074
0.002316122
0.002154885
0.002047589
0.002087599
0.002131716
0.001988426
0.001717205
0.0015112
0.001546262
0.001816913
0.002177984
0.002495105
0.00277819
0.003083678
0.003430699
0.003860233
0.00458884
0.007117751
0.006374358
0.00322991
0.002431223
0.002160381
0.002049596
0.001993664
0.001922387
0.001847761
0.00183159
0.00190169
0.001963167
0.001920217
0.001777714
0.001541357
0.001459591
0.001725437
0.002156204
0.002541199
0.002886803
0.00328076
0.003658921
0.004273491
0.005001331
0.007930202
0.006666521
0.003450868
0.00267325
0.0020716
0.001944693
0.001843382
0.001756171
0.001716007
0.001733869
0.001802373
0.001853418
0.001843386
0.001762968
0.001574019
0.001443114
0.0016855
0.002198647
0.002691187
0.003121189
0.003567587
0.004027921
0.004799325
0.005523224
0.008912801
0.007074543
0.003651601
0.002838793
0.002312867
0.002061928
0.001894525
0.001763701
0.001697396
0.001694333
0.001724595
0.00174625
0.001751079
0.001714194
0.00157454
0.001454719
0.00169524
0.002297277
0.002949824
0.003457153
0.00393939
0.004694463
0.005376323
0.006239283
0.01045897
0.01181402
0.004639681
0.003065745
0.002496763
0.001968505
0.001824545
0.001710579
0.001638682
0.001625962
0.001629499
0.001634675
0.001649428
0.001638246
0.00154061
0.001457472
0.001770301
0.002457822
0.003303758
0.003889157
0.004443076
0.005415232
0.006176603
0.008368428
0.0186442
0.006709271
0.003489297
0.002713179
0.002205315
0.001951747
0.0017867
0.001665597
0.001585137
0.001544795
0.00153069
0.001540952
0.001536488
0.001472971
0.001443046
0.001910645
0.002714337
0.003777248
0.004391603
0.005291204
0.006237624
0.007308886
0.01216831
0.01239611
0.00483828
0.003046558
0.002377367
0.001869298
0.001692743
0.001558261
0.0014711
0.00140939
0.001387584
0.001396058
0.001398498
0.001380983
0.001424699
0.002136496
0.003069341
0.004388914
0.005052667
0.006338511
0.007532307
0.01046488
0.02198662
0.01217331
0.004806653
0.002992223
0.002288985
0.001824542
0.001469639
0.001347391
0.001253563
0.001230554
0.001229271
0.001241327
0.001298196
0.001422588
0.002425214
0.003617568
0.005113777
0.006371476
0.007818048
0.01109478
0.02350898
0.01174473
0.004623088
0.002855519
0.002160229
0.001720712
0.001383506
0.001102415
0.001092413
0.001081218
0.001114446
0.001274006
0.001416454
0.002706553
0.004841154
0.006492336
0.008058861
0.01180479
0.02551227
0.0107775
0.004272479
0.00263427
0.001972012
0.00153734
0.001249681
0.001058047
0.0009731409
0.001028319
0.001270659
0.001914778
0.003918554
0.00641188
0.008612506
0.01250423
0.0277826
0.009417208
0.004656556
0.002786107
0.001811741
0.001453243
0.00126981
0.001235007
0.001367277
0.001760969
0.002951194
0.005913614
0.01048644
0.01698516
0.03035
0.005990765
0.003120716
0.002555875
0.002335059
0.002387445
0.002770029
0.003831405
0.007171259
0.01308356
0.02828447
0.00696113
0.00337578
0.002211336
0.005028611
0.0088326
0.01102067
0.01329187
0.02313164
0.009887891
0.005627062
0.004666521
0.003272417
0.002295184
0.001798674
0.003030468
0.005182469
0.00638728
0.007532752
0.01023876
0.01347682
0.01533657
0.02588318
0.008372852
0.004158848
0.003116145
0.002706074
0.00235355
0.002008954
0.001684449
0.002881152
0.004460685
0.005332369
0.006036782
0.006725453
0.007509991
0.008537711
0.01158077
0.02357917
0.005773146
0.004162275
0.003657612
0.002924577
0.002404659
0.002451513
0.002548872
0.002982996
0.004132124
0.004239662
0.004671129
0.005061957
0.005438025
0.005816301
0.006196939
0.006453971
0.007653184
0.01046201
0.01498194
0.02544326
0.004876004
0.002582142
0.002780191
0.002970536
0.003141574
0.002791122
0.002549741
0.002952677
0.004182701
0.004517044
0.004409161
0.004534308
0.004708784
0.004911763
0.005147443
0.005438218
0.005816552
0.006387333
0.006835088
0.008275836
0.01164943
0.0251252
0.005324666
0.002293519
0.002042414
0.00290927
0.004088015
0.003579072
0.003009211
0.00320574
0.003642027
0.003840868
0.004148134
0.004216119
0.004281215
0.004364246
0.004497818
0.004677646
0.004902086
0.005187017
0.005562747
0.005985578
0.006434055
0.007962007
0.01161366
0.02575376
0.003317426
0.001744171
0.002196436
0.005310458
0.004881984
0.003772827
0.002932115
0.00263486
0.00286641
0.003340717
0.003787712
0.003972796
0.004036476
0.004084945
0.004185719
0.004340142
0.004530306
0.004760142
0.005035851
0.005383541
0.00581613
0.006314598
0.008088311
0.01485373
0.005983614
0.002327459
0.001490756
0.004976833
0.006993167
0.004997838
0.003013292
0.002339937
0.002356824
0.002815044
0.003178177
0.003596736
0.003801819
0.003876311
0.003923911
0.004021718
0.004154366
0.00431562
0.004510828
0.004732396
0.00499559
0.005344913
0.005803366
0.006412037
0.009826602
0.02219113
0.008285719
0.00290735
0.001702828
0.004031507
0.006954188
0.008871745
0.004032965
0.002765258
0.002694797
0.002611891
0.002924794
0.003268567
0.003614701
0.003804223
0.003895395
0.003977102
0.004094975
0.004230747
0.004378657
0.004523781
0.0046728
0.004852179
0.00507819
0.005391337
0.005852489
0.006600366
0.01007402
0.02226705
0.004893638
0.002227954
0.00151205
0.005144691
0.01179172
0.009310593
0.003861235
0.003243086
0.002947239
0.003069835
0.00342189
0.003820616
0.00415817
0.004367739
0.004490763
0.004595242
0.004713403
0.004840124
0.004955691
0.00503795
0.005075397
0.005090445
0.005146746
0.005168247
0.005169078
0.004823314
0.006294041
0.01128442
0.004502074
0.002111656
0.001787513
0.003141564
0.009555706
0.01337452
0.005642457
0.004345734
0.004115828
0.004469711
0.005049192
0.005646092
0.006111817
0.006429021
0.00665062
0.006851343
0.007084414
0.007355466
0.007587481
0.007639289
0.007368206
0.006916033
0.006892775
0.006828025
0.00675619
0.006707981
0.004220282
0.007375112
0.01061945
0.003719171
0.002092484
0.00185787
0.00236355
0.005653587
0.01281001
0.009308293
0.005367063
0.004192064
0.00400871
0.004119191
0.004231185
0.004323153
0.004433255
0.004600898
0.004846707
0.005201395
0.005716225
0.006423454
0.007269483
0.008000693
0.008266376
0.007621928
0.008060875
0.008265749
0.007396074
0.004070839
0.004664869
0.009408289
0.006717418
0.003127984
0.00213146
0.001887568
0.002030626
0.003587195
0.008133232
0.0101873
0.008165935
0.005322772
0.003792379
0.003238828
0.002896909
0.002591418
0.00245835
0.002497426
0.002649555
0.002883906
0.003198547
0.003595234
0.004031506
0.004448298
0.004679002
0.004611847
0.004914201
0.005013312
0.004803958
0.003288087
0.003691925
0.005915897
0.006471539
0.003147855
0.00223149
0.001950815
0.001898042
0.002530918
0.004860619
0.00715228
0.007538351
0.006760818
0.005797481
0.003934093
0.003186969
0.002493255
0.002029876
0.001871618
0.001899243
0.002064755
0.002328726
0.002650863
0.002966791
0.0032753
0.003529048
0.003707594
0.003764005
0.003854559
0.003911978
0.002829891
0.003300104
0.005114881
0.006522265
0.003246866
0.002356061
0.002049469
0.001889811
0.002058268
0.003035926
0.004457353
0.005198983
0.005126645
0.004631411
0.004171154
0.003618379
0.00294694
0.002190654
0.001792669
0.001640434
0.001710039
0.001952326
0.002265998
0.002532543
0.002776169
0.002979589
0.003110454
0.003260701
0.003396046
0.003702255
0.002888812
0.003298453
0.004912168
0.006623292
0.003342562
0.002469861
0.002158466
0.001950977
0.001909741
0.002210388
0.002836428
0.003345534
0.003448545
0.003211383
0.002905061
0.002789286
0.002736947
0.002445364
0.001993032
0.001650786
0.00158182
0.001794148
0.002131894
0.002382182
0.002595463
0.002750469
0.002865214
0.002989979
0.003128445
0.003534672
0.003014269
0.003343209
0.004958805
0.006727433
0.003408934
0.002547847
0.002250844
0.002033818
0.001911726
0.001929562
0.002098106
0.002305327
0.00238233
0.002309193
0.002216521
0.002243047
0.002318352
0.002270569
0.002076481
0.001795887
0.001601254
0.001758063
0.002136081
0.002387688
0.002596653
0.002733355
0.00283293
0.002917508
0.003032148
0.003393421
0.003151796
0.003384093
0.005103998
0.007057536
0.003480206
0.002574479
0.002306618
0.002102023
0.001957302
0.00187283
0.001853825
0.001870474
0.001874039
0.001847526
0.001845342
0.001923843
0.002030142
0.002073862
0.002033809
0.001884831
0.001698959
0.001805239
0.002232181
0.002498078
0.002718901
0.00285952
0.00295389
0.003013953
0.00309428
0.003310237
0.003315785
0.003498627
0.005566857
0.01202806
0.004368909
0.002671352
0.002382403
0.00217025
0.002012625
0.001894045
0.001810949
0.001746194
0.001697077
0.001664692
0.001670284
0.00172976
0.001812435
0.001892267
0.001954156
0.001919262
0.001793816
0.001919404
0.002387956
0.002689137
0.002927173
0.003075907
0.003164745
0.003235193
0.003322255
0.003379802
0.003566262
0.004305436
0.009438332
0.006401056
0.003135297
0.002630026
0.002326215
0.002107723
0.001948329
0.001827461
0.001730635
0.00165521
0.001602768
0.001584801
0.001604366
0.001658075
0.001757082
0.001879361
0.001917443
0.001860398
0.002067407
0.002601329
0.002946408
0.003194926
0.003354907
0.003454736
0.00354256
0.003665381
0.003701324
0.004025971
0.00583334
0.008540573
0.003952642
0.002646712
0.002340956
0.00211545
0.001944607
0.001812795
0.001712884
0.001634519
0.001575514
0.001534792
0.001522788
0.00156034
0.001670665
0.001816534
0.001884276
0.00189441
0.002235973
0.002870762
0.00325202
0.003514374
0.003690482
0.003818611
0.003936953
0.004094573
0.004142081
0.004756566
0.006994142
0.01712059
0.006196907
0.003610196
0.002980614
0.002488764
0.002146956
0.001897975
0.001715616
0.001590902
0.001506032
0.001451126
0.00143648
0.00148098
0.001601179
0.001742084
0.001809829
0.001901329
0.002431354
0.003205767
0.003596506
0.003894504
0.004106293
0.004278074
0.00445084
0.004664038
0.005099999
0.006754626
0.01268153
0.01625258
0.006207614
0.003657237
0.003001514
0.00249687
0.002120772
0.001833158
0.00162095
0.00147605
0.001392091
0.001362823
0.00140657
0.00151811
0.001625394
0.001687677
0.001902411
0.00271339
0.0036107
0.003992898
0.004362658
0.004640515
0.004885387
0.005095693
0.005450045
0.007341803
0.01470745
0.01076391
0.005131226
0.00352194
0.002890256
0.002395655
0.002007076
0.001706362
0.001489319
0.001348538
0.001285129
0.001310004
0.001382188
0.001453912
0.001563326
0.001994005
0.003128196
0.004087902
0.004480793
0.004980709
0.005371569
0.005663186
0.00596715
0.006977883
0.01113357
0.01971669
0.007776191
0.004658282
0.003262639
0.002669534
0.002190871
0.001807607
0.001518745
0.001325529
0.001221303
0.001197465
0.001226052
0.001300525
0.001505555
0.002244057
0.003687967
0.004691897
0.005114233
0.005846542
0.006335411
0.006766036
0.007811825
0.0105559
0.02079748
0.01728251
0.007001864
0.004239264
0.002956426
0.002359789
0.001873212
0.001526987
0.001290426
0.001153289
0.00109336
0.001104225
0.001210929
0.001559699
0.002708931
0.004342622
0.005530824
0.005959448
0.007028053
0.007726965
0.009268257
0.01218795
0.02452248
0.01477962
0.007395647
0.004312358
0.002608276
0.001792771
0.001466026
0.001209954
0.001043978
0.0009684978
0.0009963074
0.001167385
0.001759442
0.003317271
0.005176643
0.006703588
0.00705089
0.008701336
0.01250429
0.01852464
0.02941488
0.008828772
0.003648947
0.002170058
0.001549033
0.001150228
0.0009300123
0.0008483136
0.0009024856
0.00115685
0.002060824
0.003934189
0.006238194
0.008480123
0.0102185
0.01424301
0.03073327
0.006904985
0.003443669
0.00255658
0.00167953
0.001194787
0.001134213
0.001279737
0.001878338
0.003554872
0.006440755
0.01118226
0.01759061
0.02121335
0.03671322
0.003732535
0.002311727
0.002329179
0.002883121
0.004747401
0.008910282
0.01531761
0.03278907
0.004358858
0.003263227
0.004088178
0.006304472
0.0082699
0.01483807
0.004491958
0.002934295
0.002714668
0.002451438
0.001936377
0.002302694
0.003138062
0.003961637
0.00499132
0.007113155
0.009871443
0.01104265
0.01228842
0.0196921
0.003112748
0.002116468
0.001848567
0.001672207
0.00158242
0.001761074
0.002076388
0.00368691
0.005719151
0.004336516
0.004887381
0.005776232
0.006487456
0.006144747
0.006859057
0.00898941
0.01222942
0.02054047
0.002956554
0.001575986
0.001398028
0.001868697
0.002286641
0.002304549
0.002112564
0.002203454
0.003604955
0.006833321
0.0049937
0.004826535
0.005143773
0.005432649
0.005601131
0.00603058
0.006626633
0.006797243
0.009326293
0.01825103
0.003317505
0.001514552
0.001237931
0.002017903
0.002169268
0.002200104
0.002152661
0.002159118
0.002434281
0.004026133
0.007608799
0.005577338
0.004824007
0.004851885
0.004970932
0.005116232
0.005340418
0.005624407
0.005890274
0.006250041
0.008703792
0.01738326
0.004213316
0.001604554
0.00169227
0.002209583
0.002501063
0.002715016
0.002686717
0.002580384
0.002567951
0.002996713
0.005062357
0.00836937
0.005838391
0.00481597
0.004671467
0.004699961
0.004790608
0.004930224
0.005132938
0.005455479
0.005966132
0.007018032
0.008370645
0.01735779
0.00558344
0.001929213
0.001581299
0.001744535
0.002398728
0.003184887
0.003524495
0.00341488
0.003184958
0.003187789
0.004164771
0.006451268
0.007712217
0.005679235
0.00472959
0.004502679
0.004488444
0.004550822
0.0046597
0.004821208
0.00506871
0.005460422
0.006100301
0.006961483
0.008481735
0.0180419
0.007469603
0.002530899
0.00180793
0.00163463
0.002086756
0.003222594
0.004454355
0.004648082
0.004254904
0.004140919
0.004768682
0.004889244
0.005964511
0.006422666
0.005246452
0.004547275
0.004321768
0.004297336
0.004359636
0.004466593
0.004613536
0.00481784
0.005104357
0.005522235
0.006146272
0.007135079
0.008982818
0.01951415
0.009759728
0.0033617
0.001753025
0.001603117
0.001735069
0.002569496
0.004694248
0.006317643
0.005789152
0.004736987
0.004016723
0.00375907
0.004248452
0.005057926
0.005341649
0.004777474
0.004340417
0.004172952
0.004155379
0.004222185
0.004339424
0.004487947
0.00466942
0.004891644
0.005166259
0.005520686
0.005991232
0.006312259
0.009554756
0.02210363
0.005204368
0.002326566
0.001796073
0.00161796
0.001935365
0.003471596
0.007147567
0.008621001
0.005225662
0.003310245
0.00285249
0.003204674
0.003805648
0.004423205
0.004654179
0.004431654
0.004207417
0.004125686
0.004140369
0.004211869
0.004317984
0.004457928
0.004622631
0.004803744
0.004998661
0.005206569
0.005476121
0.005815572
0.00660579
0.01192981
0.009414917
0.003514451
0.002393933
0.001837056
0.001661343
0.002252873
0.004639581
0.01171417
0.007888929
0.003824899
0.002886299
0.002825062
0.003203868
0.00372527
0.004193909
0.004395258
0.004346195
0.004272313
0.004277483
0.004345924
0.004450167
0.00455996
0.004665782
0.004763728
0.004875786
0.004999575
0.005111338
0.005212202
0.005414117
0.006036665
0.008108724
0.01847537
0.005620899
0.002641187
0.002159154
0.00178406
0.001646068
0.002299015
0.007420438
0.01479263
0.006071244
0.003719496
0.003243465
0.003370118
0.003776279
0.00427131
0.004692524
0.004922764
0.004993417
0.005026647
0.005091396
0.005173894
0.005246575
0.005304366
0.005356521
0.005411109
0.005461752
0.005454259
0.005383053
0.005315619
0.005216292
0.00528993
0.005544625
0.009572345
0.005090028
0.002436931
0.002060936
0.00176841
0.001640958
0.002017664
0.006293975
0.01711338
0.008510454
0.005213084
0.004684177
0.004961973
0.005572806
0.006258167
0.00681238
0.00718324
0.007429007
0.007649611
0.007902793
0.008189131
0.008419506
0.008438967
0.008204899
0.007889603
0.007726461
0.007467705
0.007104975
0.006641481
0.005909878
0.005240763
0.004312811
0.006626671
0.004816131
0.002976871
0.002258622
0.00187542
0.00169064
0.001856515
0.004241329
0.01346281
0.01299665
0.007118047
0.005059749
0.004610903
0.004699339
0.004824488
0.004927751
0.005043438
0.005232698
0.005536469
0.00598955
0.006635942
0.007488572
0.00845873
0.009326785
0.009843715
0.009864215
0.01014114
0.009798761
0.008627163
0.007049739
0.006346661
0.005889052
0.005801972
0.009820422
0.00382335
0.002860843
0.00231152
0.001975115
0.00176925
0.0017898
0.002953649
0.008065536
0.01188369
0.0106511
0.007030589
0.004743155
0.003827147
0.003358684
0.002952508
0.00275084
0.002781805
0.002980655
0.003305076
0.003746375
0.004294854
0.00486814
0.005383089
0.005767996
0.006026776
0.006424302
0.006787392
0.006765497
0.006309158
0.00618555
0.005819483
0.005036708
0.01295883
0.006087949
0.003049718
0.00260622
0.002280124
0.002040986
0.001858727
0.001795442
0.002280803
0.004724428
0.007754996
0.008953633
0.008481908
0.007640745
0.00503752
0.003891877
0.002949785
0.002292756
0.002052116
0.002073992
0.002280829
0.002631018
0.003082114
0.003510798
0.003857043
0.004092839
0.004257229
0.004391938
0.004444779
0.004421299
0.004504412
0.005077835
0.005221284
0.004009404
0.007514928
0.005736558
0.002919638
0.002531661
0.002281443
0.002105804
0.00195899
0.001860652
0.001999197
0.00300425
0.004691992
0.005908221
0.006203097
0.005879579
0.005442254
0.004608532
0.003618266
0.002575608
0.002014381
0.001807731
0.001870282
0.002153635
0.002579542
0.002948401
0.003207722
0.003364187
0.00344893
0.003544131
0.003573673
0.003578135
0.003540225
0.003670313
0.003790555
0.00269548
0.005185947
0.00573971
0.002899466
0.002531531
0.002311261
0.00217372
0.002061741
0.001962278
0.001947997
0.002266241
0.002993037
0.003706118
0.004024955
0.003902525
0.003556349
0.003369201
0.003240855
0.002853034
0.002287087
0.001877131
0.001766659
0.001972388
0.002407603
0.002759468
0.002969268
0.003064694
0.00309155
0.003102692
0.003082779
0.003066625
0.002985207
0.002846606
0.002901306
0.001889865
0.003416089
0.006001892
0.002940616
0.002568856
0.002357856
0.002238964
0.002152598
0.002067699
0.002001663
0.002037625
0.002253592
0.002534357
0.00269572
0.002667206
0.00254333
0.002531214
0.002590783
0.002537193
0.002321229
0.002044696
0.001847984
0.001958855
0.00241206
0.002768472
0.002943842
0.003001865
0.002991877
0.002945356
0.002865697
0.002771156
0.002619756
0.00236377
0.002415991
0.001738182
0.003010897
0.01014549
0.003672
0.002907892
0.002540007
0.002355867
0.002246214
0.002158038
0.002076189
0.002019375
0.002023709
0.002071884
0.002095813
0.002069399
0.002035381
0.002079765
0.002175268
0.002228409
0.002205637
0.002109638
0.001981995
0.002061698
0.002523077
0.002899766
0.003041547
0.003074569
0.003044262
0.002967734
0.002841806
0.00266793
0.002440305
0.002132435
0.002061646
0.002031649
0.004888676
0.005541005
0.003688536
0.00297521
0.002588518
0.002377735
0.002240524
0.002133447
0.002043313
0.00198094
0.001938822
0.001892663
0.001842333
0.001813109
0.00183694
0.001901797
0.001982533
0.002068432
0.002110204
0.002089002
0.00222481
0.002714642
0.003103828
0.003216425
0.003237612
0.003199424
0.003115224
0.002962499
0.0027395
0.002450489
0.002140347
0.0019391
0.002695362
0.007303385
0.00335551
0.002910587
0.002620198
0.002421582
0.002269274
0.002148711
0.002050245
0.001976981
0.001915724
0.001848209
0.001777239
0.001723881
0.00170587
0.001733006
0.001820058
0.001960953
0.002084394
0.002162257
0.002407399
0.002965269
0.003343984
0.003448197
0.003474011
0.003439506
0.003357281
0.003194615
0.002949918
0.002610664
0.002278028
0.001915349
0.003171568
0.0100259
0.004490355
0.003722144
0.003195865
0.002828294
0.002544393
0.002312049
0.002123907
0.001989328
0.001890228
0.001800351
0.001716763
0.001648137
0.001608818
0.001622086
0.001716278
0.001880081
0.002043852
0.002213138
0.002608129
0.003247511
0.003606322
0.003711731
0.003734823
0.003712517
0.003644051
0.003487529
0.003245517
0.002873232
0.00254159
0.002248762
0.003755741
0.01872545
0.006799629
0.004993029
0.004004202
0.003392484
0.002964714
0.002617245
0.002320857
0.002076558
0.0018926
0.001745988
0.001628851
0.001542255
0.001498656
0.001519176
0.001625671
0.001797278
0.001987105
0.002264341
0.002848221
0.003544441
0.003891716
0.003980392
0.004004021
0.003998768
0.003957012
0.003822979
0.003611041
0.003207467
0.00289884
0.003133325
0.006315383
0.01170197
0.005658786
0.004617922
0.003904485
0.003403801
0.00300286
0.002644919
0.002316729
0.002034002
0.001806229
0.001624272
0.001492903
0.001424131
0.001435123
0.001536087
0.001703078
0.001930285
0.0023586
0.003156919
0.003866978
0.004175937
0.004265733
0.004296102
0.004314136
0.004322447
0.004230612
0.004083938
0.003572321
0.003236956
0.004624122
0.02184733
0.008664702
0.005265611
0.004508413
0.003902063
0.003412151
0.002985285
0.002590272
0.002221766
0.001913067
0.001661727
0.001476331
0.0013711
0.001361186
0.001445144
0.001615601
0.001915903
0.002554057
0.003554744
0.004222945
0.004498143
0.004603998
0.004651688
0.004709938
0.004818574
0.004799713
0.004705614
0.004129079
0.004910835
0.008396375
0.01934901
0.008103666
0.005983953
0.004729577
0.003899041
0.003298616
0.00280864
0.002373548
0.001994083
0.001689651
0.001461775
0.001326671
0.001296403
0.001373024
0.00156951
0.001985232
0.002905062
0.00403658
0.004606997
0.004893357
0.005042634
0.005127675
0.005256081
0.005564489
0.005697512
0.005831471
0.006392484
0.0106151
0.01672671
0.007203909
0.005341003
0.004241532
0.003467626
0.002889369
0.002410984
0.001997768
0.001667747
0.001427386
0.001283513
0.001249909
0.001336263
0.001575106
0.002178885
0.003437971
0.004580654
0.005066916
0.005396621
0.005645471
0.005800213
0.006036837
0.006763942
0.007090663
0.00782579
0.01413338
0.01435567
0.006250367
0.004576938
0.00352304
0.002858173
0.002336136
0.001916959
0.001583902
0.001350777
0.001220726
0.001205701
0.001315167
0.001628082
0.002548112
0.004089728
0.005232112
0.005639144
0.006070281
0.006524004
0.006799808
0.007180046
0.008655439
0.00971418
0.01797718
0.0118557
0.005228533
0.003196781
0.002593111
0.002140725
0.001753716
0.001441566
0.001234549
0.001150173
0.00116645
0.001308286
0.001804717
0.003113777
0.004856519
0.006107173
0.006399149
0.007042358
0.00791601
0.008198426
0.008728049
0.01209504
0.02296256
0.009418341
0.004112163
0.002504571
0.002033918
0.001596842
0.001289247
0.001159599
0.001127295
0.001151684
0.001366233
0.002168466
0.00381258
0.005886912
0.007511749
0.007541676
0.008541792
0.01011146
0.01043665
0.01449619
0.02932022
0.007555214
0.003763853
0.002322118
0.001465009
0.001110649
0.001217299
0.001178361
0.00116239
0.001533689
0.002648261
0.004699009
0.007477018
0.01003436
0.009189031
0.01067909
0.01433169
0.02142369
0.03670654
0.004262881
0.002338478
0.001900332
0.001692342
0.001323589
0.001209166
0.001741037
0.003189197
0.005747015
0.01014
0.01621409
0.0192849
0.0226637
0.03778682
0.003262306
0.002841281
0.004464717
0.008105748
0.01385423
0.02991887
0.002152599
0.001479743
0.002156427
0.003028155
0.00350479
0.00469167
0.005710655
0.006832656
0.008274624
0.01417393
0.001344975
0.0008012801
0.0009337145
0.0009247272
0.000885931
0.001841577
0.002882786
0.003287775
0.003661252
0.004214059
0.004774385
0.004912254
0.006737338
0.008876657
0.009595816
0.01501539
0.001442948
0.000698958
0.0008587745
0.001196224
0.001395879
0.001502468
0.001669092
0.003082718
0.003945274
0.003765718
0.003971096
0.004393996
0.004837219
0.005618805
0.006230697
0.006432688
0.006991667
0.0130179
0.003694418
0.001398948
0.0008745261
0.0008604603
0.001026081
0.001232654
0.001368376
0.00152921
0.001865522
0.003626743
0.005638637
0.004322376
0.004150264
0.004381047
0.004716299
0.005066756
0.005302927
0.005468184
0.005794135
0.006525747
0.008689949
0.01414
0.005658616
0.001601332
0.001120154
0.0009797764
0.001152586
0.001506836
0.001759462
0.001870019
0.001945946
0.002195305
0.003588537
0.006826243
0.005278374
0.004500452
0.004498754
0.004684887
0.004848334
0.004937418
0.005000715
0.005159065
0.005526629
0.006179933
0.006764269
0.01417798
0.007316804
0.002275412
0.001461407
0.001145736
0.001230933
0.001704074
0.00214163
0.002330021
0.002347675
0.002373588
0.002671164
0.003987479
0.007492736
0.006348623
0.004911739
0.004648723
0.004681045
0.004737752
0.004756304
0.004773838
0.004850683
0.005021778
0.005352653
0.005799564
0.006695981
0.01390834
0.00837234
0.002927904
0.001943763
0.0013919
0.001280922
0.001681605
0.002393419
0.002930127
0.00308266
0.002996123
0.002912748
0.003189318
0.004597197
0.008167307
0.007049033
0.00525791
0.00478205
0.004673251
0.004662299
0.004650711
0.004657381
0.00471371
0.004826272
0.005009519
0.005305426
0.00583451
0.006760502