/*--------------------------------*- C++ -*----------------------------------*\
  =========                 |
  \\      /  F ield         | OpenFOAM: The Open Source CFD Toolbox
   \\    /   O peration     | Website:  https://openfoam.org
    \\  /    A nd           | Version:  6
     \\/     M anipulation  |
\*---------------------------------------------------------------------------*/
FoamFile
{
    version     2.0;
    format      ascii;
    class       volScalarField;
    location    "49.8";
    object      epsilon;
}
// * * * * * * * * * * * * * * * * * * * * * * * * * * * * * * * * * * * * * //

dimensions      [0 2 -3 0 0 0 0];

internalField   nonuniform List<scalar> 
203709
(
0.01709963
0.01158037
0.01242501
0.02126572
0.01441377
0.008993072
0.007026572
0.005988879
0.006309403
0.008210063
0.0110733
0.01903789
0.01350021
0.008210709
0.006109161
0.004895032
0.004680887
0.004588712
0.004621556
0.004815433
0.005213885
0.006859172
0.008848341
0.0155541
0.01263739
0.005962195
0.004498857
0.004157244
0.003936822
0.003777491
0.003617561
0.00344167
0.003299565
0.003253187
0.003378564
0.003781738
0.005622346
0.01098479
0.007288138
0.004166792
0.003649641
0.003361474
0.003102372
0.002820294
0.002591518
0.0024815
0.002466105
0.002507943
0.002610784
0.002788394
0.003152044
0.005457852
0.009601078
0.00444487
0.003064446
0.002638903
0.002326959
0.002074067
0.002017693
0.002079516
0.002186271
0.002325976
0.002507972
0.002737247
0.003007073
0.003370322
0.004498331
0.009279947
0.004872672
0.002683227
0.002106377
0.00173311
0.001501699
0.00151543
0.001654966
0.001852789
0.002070897
0.002307154
0.002593384
0.002943461
0.003320674
0.003722897
0.004327229
0.007023549
0.01331453
0.004808847
0.002294521
0.001564742
0.001153866
0.001086306
0.001216976
0.00139012
0.001645854
0.001928099
0.002220702
0.002585908
0.003057729
0.003557103
0.004018773
0.004564659
0.006215826
0.0131902
0.007717553
0.003928536
0.002556948
0.001820198
0.001352747
0.001195485
0.001196778
0.00125304
0.001464871
0.001767766
0.002082557
0.002493668
0.003084536
0.00372567
0.004280139
0.004809407
0.005722061
0.009423839
0.007314514
0.003913379
0.002884293
0.002281491
0.001921242
0.001704208
0.001513585
0.001335612
0.001352666
0.001615712
0.001928826
0.002351997
0.003045955
0.003854183
0.004542033
0.00515911
0.006232593
0.01076051
0.01171646
0.004875429
0.003225835
0.002665423
0.002343364
0.002083237
0.00179968
0.001510373
0.001381046
0.001503677
0.001786213
0.00219236
0.002966346
0.003966312
0.004839081
0.005695247
0.008348788
0.01947155
0.006585408
0.003567906
0.002923007
0.00257218
0.002275637
0.001942638
0.001609798
0.001430845
0.001479325
0.001689274
0.00204332
0.002873434
0.004086157
0.005212832
0.00646449
0.01193088
0.0108306
0.00456285
0.003130467
0.002688729
0.002348527
0.001983223
0.00164597
0.001467071
0.001481474
0.001646062
0.001969085
0.002804381
0.004264646
0.0057834
0.00875664
0.02093083
0.006196773
0.003370713
0.002773263
0.00235888
0.001974029
0.001663978
0.001507442
0.001503669
0.001641288
0.00196589
0.00287839
0.004591701
0.006693573
0.0128604
0.01004301
0.004365681
0.003002086
0.002453968
0.002023613
0.001729078
0.001575845
0.001554925
0.001692349
0.00206609
0.003245163
0.005387094
0.009611348
0.02267795
0.008909516
0.004937075
0.003259446
0.002266845
0.001908816
0.001703407
0.001668874
0.001871025
0.002415446
0.004853232
0.009908622
0.02226699
0.006845144
0.003816838
0.002691053
0.001993286
0.00196155
0.002675594
0.004436079
0.01182665
0.005633064
0.003432142
0.003533127
0.006291151
0.007135627
0.00400925
0.004723997
0.008428043
0.01033088
0.01164182
0.01304094
0.01451043
0.01660187
0.02849261
0.00528197
0.002837222
0.001981605
0.001504207
0.002757586
0.004469194
0.005432913
0.006180301
0.006926536
0.007746286
0.008802274
0.01184899
0.0166826
0.02887124
0.005637806
0.002531283
0.001677305
0.00126578
0.001770421
0.002682304
0.003591195
0.004234565
0.004758922
0.005362567
0.006032059
0.006739539
0.007665329
0.008860884
0.01238539
0.02675871
0.005517783
0.002705844
0.001877308
0.001558656
0.001710109
0.001973709
0.002423933
0.003849508
0.003944887
0.004248318
0.004480543
0.004591043
0.005271523
0.00595928
0.006716555
0.007944222
0.01139486
0.02502288
0.004830421
0.002772469
0.002158386
0.001932011
0.001889847
0.001870615
0.003444904
0.003076361
0.003670871
0.003693114
0.003839336
0.003960897
0.004137776
0.00433316
0.004332769
0.005007424
0.005858548
0.007096552
0.01052043
0.02343331
0.004557371
0.00262717
0.002426428
0.002145927
0.001931636
0.003854842
0.002808458
0.00328762
0.003206732
0.003486072
0.003575275
0.003641224
0.003715893
0.003834701
0.003943991
0.004081298
0.004175811
0.003885087
0.004758607
0.006050949
0.009501472
0.02111805
0.004185743
0.002470779
0.002554086
0.0022138
0.004341109
0.003354244
0.003014922
0.003305804
0.00363228
0.004043744
0.004430588
0.004804064
0.005123095
0.00533644
0.005458726
0.005462941
0.005181918
0.004372087
0.002808412
0.003335742
0.004375155
0.009533161
0.007252908
0.003032964
0.00317127
0.003095249
0.002574018
0.004342184
0.003557664
0.003816905
0.004365131
0.004975786
0.005398097
0.005472323
0.005328829
0.005074268
0.004877266
0.004792729
0.00478623
0.004752605
0.004499589
0.002465346
0.002636096
0.002931918
0.003776294
0.005532792
0.004821605
0.002268518
0.002615463
0.003284202
0.004500672
0.003900413
0.003403082
0.003441305
0.003521592
0.003400651
0.003160936
0.003004307
0.002902659
0.002864013
0.002891901
0.002987752
0.003133137
0.003299281
0.003507517
0.003781894
0.002706827
0.003151285
0.003412313
0.004456507
0.004878373
0.002343679
0.002038905
0.002733982
0.005025203
0.003726533
0.002946167
0.002509675
0.002237449
0.002085793
0.002011641
0.001999686
0.002037025
0.002113227
0.002249436
0.0024402
0.002658548
0.002882535
0.003129848
0.003396814
0.002717656
0.003466116
0.003791443
0.005050886
0.005133559
0.002514651
0.001933553
0.002827979
0.005042028
0.004109417
0.002954801
0.002171756
0.001920301
0.001892434
0.001792093
0.001718637
0.001703753
0.001750414
0.001910313
0.00215635
0.002417936
0.002663743
0.002956141
0.003545532
0.004269525
0.003644913
0.004156244
0.005889278
0.005479749
0.002707138
0.002008924
0.002472608
0.00383549
0.003784179
0.003153077
0.002496247
0.002060089
0.002002602
0.001912314
0.001747263
0.001624222
0.001569771
0.001699491
0.001990094
0.002299902
0.00256676
0.002827349
0.003142196
0.003477866
0.003825741
0.0044798
0.006695598
0.005867478
0.002925159
0.002163928
0.002254698
0.002842351
0.003038392
0.002799756
0.002412647
0.002128604
0.002055118
0.002040493
0.001914436
0.001711801
0.001522348
0.001570633
0.001892736
0.002261299
0.00256973
0.00284786
0.003168618
0.003516102
0.004065628
0.004803683
0.007447458
0.006241966
0.003164048
0.002391556
0.002234715
0.002303544
0.002391841
0.002310786
0.002130032
0.001999293
0.001994283
0.002026285
0.001968466
0.00181184
0.001572756
0.001510858
0.001847146
0.002286797
0.002664218
0.003012579
0.003406858
0.003810706
0.00445869
0.005190878
0.008212859
0.006547511
0.003389497
0.00263089
0.002057645
0.002053278
0.002034808
0.001966376
0.00188689
0.001855772
0.001901425
0.001956613
0.001942637
0.001834777
0.001621079
0.001506821
0.001843129
0.002370847
0.002855227
0.003273554
0.003732293
0.004204545
0.004962779
0.005687961
0.009138387
0.00695883
0.003600028
0.002805736
0.002299023
0.002097844
0.001965006
0.001849745
0.00177713
0.001766406
0.001806281
0.001848949
0.001856635
0.001795477
0.001629171
0.001526936
0.001875414
0.002512012
0.003132373
0.003629301
0.004125519
0.00487381
0.005530996
0.006377534
0.01059578
0.01149866
0.004556596
0.003028777
0.002482047
0.001966503
0.001853404
0.001750041
0.001679551
0.001672221
0.001693858
0.001720833
0.001740301
0.001711626
0.001594625
0.001535253
0.001968358
0.002717236
0.003499152
0.004084918
0.00463201
0.005595932
0.006326799
0.008520975
0.01855039
0.006538666
0.003428252
0.002687746
0.002199135
0.001958571
0.001800449
0.001685004
0.001613305
0.001590731
0.001595913
0.001610733
0.001594759
0.001522733
0.00152643
0.002140025
0.002989595
0.003979527
0.00460295
0.005485662
0.006413338
0.007458092
0.01235858
0.01185259
0.004667859
0.002970609
0.002352187
0.001866317
0.001700542
0.001573467
0.001496132
0.001446977
0.001437016
0.001445271
0.00144125
0.001428476
0.00151466
0.002403902
0.003347106
0.004610359
0.005260292
0.006536623
0.007711392
0.01064671
0.02210967
0.01169141
0.004635318
0.002903295
0.002243043
0.001805111
0.001464573
0.001357454
0.001272554
0.001258972
0.00125878
0.001273305
0.001348123
0.001518278
0.00273491
0.003879431
0.005353169
0.006589142
0.008019048
0.01131534
0.02380936
0.01137513
0.004482634
0.002779856
0.002117089
0.001698424
0.001372337
0.001096665
0.001103181
0.001100593
0.001144876
0.001323839
0.00151682
0.00303935
0.005123707
0.0067349
0.008279413
0.0120555
0.02590405
0.0105309
0.004168968
0.002576669
0.001938067
0.001519581
0.00124298
0.001061392
0.0009874582
0.001056325
0.001321247
0.002052113
0.004276424
0.006683608
0.008866045
0.01277452
0.02826727
0.009271215
0.004573386
0.002741319
0.001793292
0.001449848
0.00127899
0.001256913
0.001404635
0.001827035
0.003175408
0.006241047
0.01078997
0.01738073
0.03085269
0.005967702
0.00311554
0.002566668
0.002362761
0.002434313
0.002838402
0.00395865
0.007573571
0.01354492
0.02883095
0.006992058
0.003495838
0.002429249
0.005238998
0.009126116
0.01142247
0.01377275
0.02401712
0.009012908
0.005295931
0.004539883
0.003283512
0.00233512
0.001787042
0.003216171
0.005296045
0.006589438
0.00778371
0.01058829
0.01392453
0.01593716
0.02706274
0.007237153
0.00375834
0.002989079
0.002721186
0.002471247
0.002080041
0.001779971
0.002950804
0.004499731
0.005447969
0.006183927
0.0069061
0.007738784
0.00884799
0.01207258
0.02467398
0.005322975
0.003527803
0.00312204
0.002711824
0.002425431
0.002629769
0.002790477
0.003365978
0.004863315
0.004542689
0.004696636
0.005108944
0.005509044
0.005921177
0.006343864
0.006650675
0.007926704
0.01089121
0.01566579
0.02672791
0.004939131
0.002421344
0.002256382
0.00252817
0.003065605
0.003023683
0.003004996
0.00326794
0.005148921
0.005715567
0.004679847
0.004555091
0.004722507
0.00494644
0.005214676
0.005542636
0.005965777
0.006577682
0.007064454
0.008584444
0.01214178
0.02622234
0.005704939
0.002346863
0.001834639
0.002234734
0.003732492
0.003918284
0.003962761
0.004471068
0.006067578
0.00533205
0.004960402
0.004418982
0.004303714
0.004369337
0.004521484
0.004734147
0.004995204
0.005314068
0.005714266
0.006159972
0.006614358
0.008205411
0.01201195
0.02659126
0.003509434
0.001813288
0.001815979
0.004103194
0.005042431
0.005323061
0.005643438
0.005584284
0.004361101
0.004244294
0.004258463
0.004127517
0.004079354
0.004112756
0.004229343
0.004416831
0.004645831
0.004910299
0.005208437
0.005559459
0.005975032
0.006426992
0.008235716
0.01513187
0.006439839
0.002471595
0.001565082
0.003698691
0.005532224
0.007439574
0.006172487
0.004077513
0.003381672
0.003493777
0.003657665
0.003879315
0.003959414
0.003992383
0.004047753
0.004174667
0.004347646
0.004550163
0.004786986
0.005036482
0.005293234
0.0055955
0.005966318
0.006441003
0.009917966
0.02226833
0.008728751
0.003095544
0.00180893
0.002841109
0.004501316
0.008963429
0.008298396
0.003946096
0.003132061
0.002946844
0.003224334
0.003535577
0.003853722
0.004048265
0.004187476
0.004366206
0.004604017
0.004851785
0.005077208
0.005266742
0.005416029
0.005570026
0.00570514
0.005855099
0.006049895
0.006505618
0.0100885
0.02188179
0.005110626
0.002345981
0.001576528
0.002672439
0.006013756
0.01217256
0.005584106
0.003572026
0.003101332
0.003213178
0.00364361
0.004215996
0.004855888
0.0054978
0.006131919
0.006729579
0.007232698
0.007679286
0.008046474
0.008241319
0.008163311
0.007846867
0.007450578
0.006963335
0.006186682
0.00446881
0.00594092
0.01027972
0.00464174
0.002194431
0.001901778
0.002833746
0.009327824
0.01154738
0.005137526
0.004155539
0.003981249
0.004415209
0.005175584
0.006064505
0.006769171
0.006969986
0.006856622
0.006598254
0.006449169
0.006504646
0.006742219
0.007064564
0.007269839
0.007348382
0.008216997
0.009002563
0.008878333
0.006945575
0.004374667
0.006414036
0.01067143
0.003768209
0.002137955
0.001958159
0.002440065
0.00624258
0.01228411
0.006969828
0.004707808
0.00411222
0.00410436
0.004232083
0.004142853
0.003787035
0.003528659
0.003356411
0.00329581
0.003341914
0.003484094
0.00370004
0.003939394
0.004129609
0.004301684
0.004522469
0.005428586
0.006078015
0.00575827
0.003719872
0.004487194
0.009572945
0.006710976
0.003135223
0.002147529
0.001950394
0.002174575
0.004107546
0.009383364
0.009355854
0.005826843
0.003988015
0.003133261
0.002719802
0.002440712
0.00225154
0.002137733
0.002119268
0.002182616
0.002330546
0.002549724
0.002805933
0.003062639
0.003313364
0.003497705
0.003636369
0.004053947
0.004267096
0.004212111
0.002867085
0.003318141
0.005430246
0.006428106
0.003129985
0.002224295
0.001975912
0.002008244
0.002937947
0.006150999
0.008237779
0.007143808
0.004997689
0.003137391
0.00257116
0.002373811
0.002105041
0.001864494
0.001748203
0.00174579
0.001882645
0.002130473
0.002402247
0.002641769
0.00287694
0.003108928
0.003328158
0.003454393
0.003614506
0.003775518
0.002760079
0.003119029
0.004643331
0.006450925
0.003211027
0.002331182
0.002045248
0.001947456
0.00231469
0.003915127
0.005774881
0.006070967
0.005199382
0.004063761
0.00323745
0.002761074
0.002425728
0.0020296
0.001760689
0.001617086
0.001678472
0.001937255
0.002232832
0.002461109
0.002662797
0.002829769
0.00295137
0.003103205
0.003232908
0.003533503
0.002817728
0.003084806
0.004355447
0.006532564
0.003295668
0.002434062
0.002136
0.001966979
0.002040382
0.002697247
0.003786841
0.004368612
0.004220881
0.003668407
0.00314116
0.002824504
0.002630918
0.002335288
0.001987028
0.001688941
0.001623257
0.0018697
0.002198154
0.002424185
0.002611796
0.00274171
0.002832692
0.002931354
0.00303207
0.00330321
0.002898216
0.003095368
0.004329373
0.006622067
0.003356865
0.002508353
0.002221194
0.002026943
0.001964776
0.002158115
0.002611512
0.003017103
0.003091224
0.002885438
0.00262388
0.002498772
0.00246742
0.002359385
0.002144761
0.001864593
0.001682068
0.001889562
0.002259856
0.002489237
0.00267981
0.002797978
0.002872302
0.002918213
0.002985544
0.003128835
0.002985067
0.003137409
0.004467023
0.006905438
0.003418395
0.002534353
0.002276872
0.002087809
0.001974451
0.001965717
0.002084827
0.002241628
0.002301299
0.002235987
0.002147718
0.00215203
0.002214132
0.002229796
0.002159786
0.001982033
0.001798939
0.00196991
0.002394946
0.002633916
0.002840974
0.002960503
0.003029426
0.003061609
0.003088114
0.003085597
0.003105095
0.00330278
0.005006992
0.01153082
0.004235682
0.002611615
0.002344165
0.002151169
0.002015643
0.001932208
0.001908248
0.001909321
0.001902451
0.001866452
0.001843208
0.001884053
0.001965371
0.00204492
0.002091306
0.002027689
0.001903191
0.002099366
0.002579218
0.002845413
0.003068154
0.003191304
0.003256878
0.003297929
0.003331902
0.003293334
0.003322045
0.004156041
0.008995586
0.006114352
0.003018793
0.002556842
0.00228626
0.002093543
0.001958479
0.001864897
0.001797247
0.001743182
0.001696406
0.001675552
0.001700541
0.001769943
0.001883086
0.002003139
0.002020168
0.001971796
0.002260177
0.00280238
0.003108811
0.003335624
0.003471693
0.003550342
0.003609987
0.00367697
0.00360825
0.003783733
0.005603816
0.008107552
0.003758245
0.002526153
0.002265528
0.002074782
0.001933581
0.001826007
0.001745393
0.001678454
0.001623491
0.001586191
0.001584492
0.001641171
0.001769999
0.001918558
0.001971446
0.002004237
0.002440612
0.003069711
0.003403439
0.003643968
0.003799699
0.003908177
0.003999079
0.004094064
0.004011062
0.004501353
0.00662603
0.01642897
0.005916914
0.003437171
0.002854447
0.002399661
0.002090539
0.001870018
0.001711442
0.001605334
0.001532846
0.001487108
0.001484168
0.00154559
0.001679855
0.001820526
0.001878098
0.002010657
0.002647888
0.003390183
0.00372984
0.004007565
0.004201685
0.004354956
0.004500251
0.004656079
0.004988353
0.006461336
0.01166748
0.01579644
0.00599793
0.003521139
0.002897618
0.002416065
0.002061664
0.001794994
0.001602862
0.001474872
0.001406298
0.001392703
0.001452472
0.001573179
0.001678777
0.00173879
0.002019004
0.002941379
0.003762511
0.004108097
0.004459262
0.004720951
0.004946499
0.005125072
0.005403838
0.007241663
0.01390667
0.01059262
0.005021824
0.003430658
0.002815902
0.002333609
0.001959057
0.001673881
0.001472085
0.001346331
0.001298179
0.001336185
0.001413001
0.001486209
0.001609449
0.002124881
0.003354145
0.004201582
0.004580877
0.005064915
0.005441123
0.005710712
0.005979876
0.006927175
0.01096456
0.01976999
0.007735454
0.004607336
0.003210686
0.002622163
0.002147856
0.001773409
0.001495614
0.001314688
0.001222922
0.001208992
0.001243483
0.001325482
0.001553567
0.002389247
0.003869529
0.004787748
0.00520368
0.005925903
0.006401348
0.006804753
0.007832214
0.01050463
0.02031874
0.01744742
0.007019289
0.004226829
0.002932294
0.002333007
0.001849116
0.001507341
0.001279203
0.001151516
0.001099625
0.001117659
0.001233037
0.00161148
0.002860768
0.004472229
0.005613988
0.006044909
0.007110275
0.007799554
0.009309601
0.01223054
0.0243437
0.01500893
0.007466353
0.004323874
0.002604265
0.001784347
0.001457091
0.001205935
0.001046498
0.0009772975
0.001011537
0.001187394
0.001811958
0.003427449
0.005282617
0.006779879
0.007132861
0.008796705
0.01261049
0.01857833
0.02949672
0.008971793
0.003690794
0.002186381
0.00155751
0.001158632
0.000941062
0.000862204
0.0009174382
0.001167353
0.00208914
0.004003623
0.006325542
0.008557406
0.01029794
0.01436063
0.03093582
0.007041251
0.003494
0.002587225
0.001705543
0.00121514
0.001151706
0.001288323
0.001862429
0.003543327
0.006462033
0.0112382
0.01766271
0.02130366
0.03691631
0.003803664
0.002344272
0.002345609
0.002843769
0.004630559
0.008763663
0.01522494
0.03271937
0.004361755
0.004140328
0.00480394
0.006930649
0.008906679
0.01590802
0.003710574
0.002512313
0.002419389
0.002288755
0.001921907
0.002871171
0.003499603
0.004331723
0.005378135
0.007590876
0.01032432
0.0115339
0.01286183
0.02079018
0.002761295
0.001784301
0.0015844
0.001504361
0.001471583
0.001804494
0.002252758
0.004210721
0.005361772
0.004566237
0.005120196
0.006003602
0.006707292
0.006447193
0.00722024
0.009505093
0.01294304
0.02187129
0.002816347
0.001425325
0.001191661
0.001696439
0.002178899
0.002265339
0.002127675
0.00225863
0.003890122
0.006715475
0.004995724
0.004948698
0.005266354
0.005574294
0.005800223
0.006276647
0.006942408
0.007211272
0.009943686
0.01950825
0.00330568
0.00146016
0.001100431
0.001717867
0.001897929
0.001999675
0.002048684
0.002145487
0.002465352
0.004243529
0.007493861
0.005473307
0.004883113
0.00492368
0.005069756
0.005252572
0.005517915
0.005860203
0.006203318
0.006652489
0.009305598
0.01861373
0.004333709
0.001609629
0.001489747
0.00177491
0.002054989
0.002324433
0.002444786
0.002500494
0.002600905
0.003100984
0.005392097
0.008392192
0.005790656
0.004842648
0.004714187
0.00477265
0.00489751
0.005074586
0.005322456
0.005702488
0.006281688
0.007438253
0.008950629
0.01853946
0.005880906
0.002006831
0.001558564
0.001538245
0.001918438
0.002533481
0.003038862
0.003263828
0.003329095
0.003395456
0.004370789
0.007225815
0.008112217
0.005706446
0.004747404
0.004531721
0.00454789
0.004646276
0.004792344
0.004990744
0.005275453
0.005708025
0.006408337
0.007355389
0.009015099
0.01906851
0.007941541
0.002688871
0.001892062
0.001593074
0.001761113
0.00243755
0.003471183
0.004261904
0.004645722
0.005018644
0.006305337
0.006770948
0.007086426
0.0068346
0.00532407
0.004578948
0.00436328
0.004365443
0.004465067
0.004611082
0.004793385
0.005026225
0.005333718
0.005771526
0.006425834
0.007466743
0.009415732
0.02023765
0.01031774
0.003573863
0.001869108
0.001653918
0.00162267
0.002073549
0.003266443
0.005040414
0.006326092
0.006858983
0.008404145
0.006478091
0.005717142
0.005881374
0.005697431
0.004904025
0.004424169
0.004274011
0.004291636
0.004393441
0.004545505
0.00472799
0.004932071
0.005162899
0.005429979
0.0057683
0.006235118
0.0065452
0.00982045
0.02244156
0.005479265
0.002464685
0.001909021
0.001661864
0.001751091
0.002564746
0.004594324
0.007903499
0.009169445
0.007618555
0.005003247
0.004554296
0.004687885
0.004993951
0.004998105
0.004660942
0.004424381
0.0043805
0.004456362
0.004591789
0.004745634
0.004899166
0.00505574
0.005219587
0.005372285
0.005518024
0.005721248
0.00599498
0.006728671
0.01196126
0.009745484
0.003664501
0.002519059
0.001944276
0.001704057
0.00189631
0.00304024
0.007406195
0.0121129
0.007664654
0.004198471
0.00367284
0.003880217
0.004281553
0.004676257
0.00483876
0.004809176
0.004830613
0.004969749
0.005167696
0.00537106
0.005539399
0.005673764
0.005770846
0.005796239
0.005734455
0.005675582
0.005599309
0.005655409
0.006151677
0.008102781
0.01888902
0.005785436
0.002731558
0.002243799
0.001865329
0.001696149
0.001973842
0.004128529
0.01324021
0.01079404
0.004813147
0.003732945
0.003760486
0.004212934
0.004871467
0.00559426
0.006271598
0.006895917
0.007496111
0.008020707
0.008488374
0.008852311
0.009006899
0.00889657
0.008536937
0.008032989
0.007441182
0.006848294
0.006325439
0.005863536
0.00571472
0.005565746
0.009604462
0.005197634
0.002498371
0.002116613
0.001827695
0.001701364
0.002008219
0.006043887
0.01582488
0.008234641
0.005087716
0.004625871
0.004988357
0.005785053
0.006777387
0.00763098
0.007893115
0.00778299
0.007525954
0.007428249
0.007601212
0.008011643
0.008553147
0.00911417
0.009750968
0.01048314
0.01029288
0.0092142
0.007953672
0.006796019
0.006136845
0.004352853
0.007003162
0.004879314
0.00301763
0.002293508
0.001913697
0.001744152
0.001943492
0.004599283
0.01414284
0.01059165
0.006009471
0.00484958
0.004654352
0.004760894
0.004716896
0.004311049
0.004007837
0.003811745
0.00377249
0.003885289
0.004129423
0.004467608
0.004816043
0.005119269
0.005489003
0.006173634
0.00752449
0.008433493
0.007876068
0.006782249
0.006347728
0.005827877
0.006456389
0.009851014
0.003845882
0.002871169
0.002317937
0.001985861
0.001799034
0.001875041
0.003323237
0.009447672
0.01229253
0.00800507
0.005101521
0.003728318
0.003139177
0.00276583
0.002514333
0.002348483
0.002313615
0.002402317
0.002609371
0.002924088
0.003301062
0.003645685
0.003931385
0.004159008
0.004451466
0.004944511
0.005457589
0.00597242
0.006160687
0.006068522
0.005741598
0.005342101
0.01411929
0.006086325
0.003054209
0.002600531
0.002267953
0.002029275
0.001861516
0.001849513
0.002552758
0.005830284
0.009328054
0.009069578
0.006870235
0.004128189
0.003160285
0.002819666
0.002430658
0.002078415
0.00190742
0.001900838
0.002064592
0.002387024
0.002783786
0.003106237
0.003344947
0.003521049
0.003698384
0.003888982
0.004042212
0.004205416
0.004762484
0.005649423
0.005722072
0.004409223
0.008224793
0.005707681
0.002910768
0.00251485
0.002258227
0.002079914
0.001940687
0.001878864
0.002163776
0.003701739
0.006080856
0.007125462
0.006593616
0.005302462
0.004358764
0.003515015
0.002928223
0.002350899
0.001977844
0.001800333
0.001850531
0.00215012
0.002575877
0.002886037
0.003079824
0.003182693
0.003237908
0.003300078
0.003325485
0.003364735
0.003487397
0.003709855
0.004219137
0.003089578
0.005977016
0.005677902
0.0028773
0.002505528
0.002281542
0.002141118
0.002031845
0.001953368
0.002022547
0.00264067
0.003882274
0.004857606
0.005028231
0.004545579
0.003945727
0.003497152
0.003158482
0.002732786
0.002279413
0.001941643
0.001837623
0.002081291
0.002542232
0.00284626
0.003007416
0.003057078
0.003042273
0.003007095
0.002941092
0.002869045
0.002822797
0.002679674
0.002817389
0.001935774
0.003871529
0.005890157
0.002901659
0.002533226
0.002323822
0.002205305
0.00212105
0.002047199
0.002024356
0.002210738
0.00271647
0.003267082
0.003516931
0.003394321
0.003106019
0.002907686
0.002818825
0.002672643
0.002422536
0.002147664
0.001964808
0.002129537
0.002627256
0.002927343
0.003061042
0.003076582
0.003021615
0.002924583
0.00278925
0.002620118
0.002452142
0.002233088
0.002271687
0.001765653
0.002595438
0.009707795
0.003559599
0.002834578
0.002487947
0.002316135
0.002215619
0.002137941
0.0020795
0.002088581
0.002231882
0.002439309
0.002563324
0.002534211
0.0024243
0.002383281
0.00241548
0.002426739
0.002369584
0.002248128
0.002122293
0.002263868
0.002789193
0.003092639
0.003198277
0.003193817
0.003120943
0.002994087
0.00281106
0.002577156
0.002328072
0.002081741
0.002072352
0.002441977
0.003007757
0.005275152
0.003534012
0.00287663
0.002523766
0.002336451
0.002217954
0.002131233
0.002075952
0.002073994
0.002103311
0.002111852
0.002075447
0.002023767
0.00202708
0.002083408
0.002159897
0.002233198
0.002256834
0.002240088
0.002445746
0.003000466
0.003309573
0.003391686
0.003387531
0.003309992
0.003175481
0.002968863
0.002700257
0.002405145
0.002167792
0.002237746
0.003487622
0.006903232
0.003171094
0.002776314
0.002520966
0.002352444
0.002228239
0.002134907
0.002066174
0.002022776
0.001991094
0.001946616
0.001885744
0.001832953
0.001818708
0.001856849
0.001956007
0.002100462
0.002219146
0.00231384
0.002639524
0.003245467
0.003546579
0.003635396
0.00363273
0.003564327
0.003436636
0.003222391
0.002932679
0.002592937
0.002306994
0.00202176
0.003934429
0.009611011
0.004279168
0.003558537
0.00306528
0.002723585
0.002465413
0.002261918
0.002107915
0.002005659
0.001932421
0.001858499
0.001781616
0.001715558
0.001681945
0.001707682
0.001817155
0.001990634
0.00215931
0.002360795
0.002845387
0.003500769
0.003800969
0.003877417
0.003879356
0.003831213
0.003724512
0.003520122
0.003228684
0.002843709
0.002548763
0.002327395
0.004465463
0.01829612
0.006590232
0.004843233
0.003880213
0.00328616
0.002871635
0.002538329
0.002260817
0.002043001
0.001883121
0.001756283
0.001654347
0.001579127
0.001546566
0.001580631
0.001700961
0.001882518
0.002084057
0.002409092
0.00308183
0.003755396
0.004040273
0.004112235
0.004121566
0.004097961
0.004023827
0.003847505
0.003576763
0.003133147
0.002847964
0.003138505
0.006982328
0.01158771
0.005571344
0.004545674
0.003832042
0.00333233
0.002932449
0.00257809
0.002258492
0.001992553
0.001781067
0.001615594
0.001500508
0.001447713
0.001474342
0.001588474
0.001766836
0.002012899
0.002503268
0.003371778
0.004032064
0.004286398
0.004361886
0.004383155
0.004388465
0.004368681
0.004240063
0.004021559
0.003431871
0.003030156
0.004574645
0.02211195
0.008694352
0.005251909
0.004487624
0.003871084
0.003372362
0.002940021
0.002543503
0.002179327
0.001880478
0.001640686
0.001468988
0.001378758
0.001383593
0.001479863
0.001663483
0.001988063
0.002699263
0.003734017
0.004335862
0.004576274
0.004669928
0.004713223
0.004763957
0.004847648
0.004795193
0.004621109
0.003905587
0.004593883
0.008086387
0.01979061
0.008215472
0.006047605
0.004756086
0.003902771
0.003287275
0.002787938
0.002348251
0.001970639
0.001670473
0.00145063
0.001326459
0.001307829
0.001395562
0.001604873
0.002049694
0.003043878
0.004162769
0.004680306
0.004946423
0.005087795
0.005172803
0.005299869
0.005583343
0.005684567
0.005748885
0.006116403
0.01000701
0.01718165
0.007348541
0.005427739
0.004288621
0.003490192
0.002896121
0.002407505
0.001988701
0.001658094
0.00142051
0.001282914
0.001257133
0.001351773
0.001599971
0.002237646
0.003555289
0.004652169
0.005115322
0.005433596
0.00567915
0.00583789
0.006079716
0.006779997
0.007070205
0.007707873
0.01352825
0.01478973
0.006400599
0.004670499
0.003580719
0.002892147
0.002353938
0.001924405
0.001586274
0.001351845
0.001223704
0.001212482
0.001324982
0.001641421
0.002597762
0.004158113
0.005267739
0.005669441
0.00609973
0.006553456
0.006836735
0.007228252
0.008679156
0.009684983
0.01764852
0.01227179
0.005382012
0.003276788
0.00264533
0.002173663
0.001773907
0.001454506
0.001242871
0.00115664
0.001173465
0.001311989
0.001800669
0.003132569
0.004880087
0.006113559
0.00641832
0.007069836
0.007946178
0.008239483
0.008775949
0.01213788
0.02286803
0.009773262
0.004245445
0.002575859
0.002078505
0.001627024
0.001310701
0.001172437
0.001136349
0.001158164
0.001353539
0.00213505
0.003785835
0.005871349
0.007491575
0.007552966
0.008569121
0.0101506
0.01048492
0.01458801
0.02944209
0.007835632
0.003877096
0.002389465
0.001503819
0.001136658
0.001229151
0.001188518
0.001160137
0.001491293
0.002566951
0.004616445
0.007418598
0.009989563
0.009188952
0.01070111
0.01439499
0.02150636
0.03695697
0.004393811
0.00239229
0.001931922
0.001709333
0.001334959
0.001184761
0.001653831
0.00303586
0.005588067
0.01001774
0.01612927
0.01924449
0.02266697
0.03788867
0.003191175
0.002694196
0.004152384
0.007666966
0.01344903
0.02948387
0.001761195
0.001855622
0.002674499
0.003425299
0.004071621
0.005198849
0.006230216
0.007391129
0.008876124
0.01517127
0.001203274
0.0006803073
0.000787533
0.0008330467
0.0009458922
0.002284554
0.00317915
0.003506748
0.003933513
0.004504365
0.00507911
0.005309095
0.007223071
0.009303016
0.01009803
0.01589471
0.001363097
0.0006532104
0.0007413741
0.001051527
0.001285
0.001464601
0.001864849
0.003602868
0.003947026
0.003929936
0.004174484
0.004619143
0.005094306
0.00586296
0.006452401
0.006731277
0.007464852
0.01387622
0.003410188
0.001319605
0.0008235445
0.0007617932
0.0008760399
0.001082379
0.001263839
0.001509866
0.00203996
0.004373122
0.005253873
0.004379011
0.00427778
0.004529325
0.00486395
0.005203617
0.005450667
0.005674843
0.006070021
0.006845044
0.009309359
0.01520807
0.005496695
0.001527711
0.00106776
0.0008986349
0.0009840766
0.001243721
0.001534216
0.001722315
0.001878654
0.002209618
0.003993231
0.006819026
0.005084625
0.00454862
0.004579811
0.004769264
0.004935799
0.005046459
0.005154603
0.005366212
0.005806955
0.006579093
0.007305082
0.01523205
0.007445284
0.002257027
0.001432719
0.00108922
0.001082627
0.001371595
0.001745547
0.001992098
0.002112834
0.002254115
0.002649712
0.004293011
0.007637177
0.005947
0.004888982
0.004677167
0.004728875
0.004801261
0.004846639
0.004903144
0.005025762
0.005253735
0.005664442
0.006202037
0.007244582
0.01497678
0.008756531
0.003007339
0.001975994
0.001384932
0.001193331
0.001391591
0.001885897
0.002425483
0.002698257
0.002774738
0.002839116
0.003248185
0.004961218
0.008389062
0.006679169
0.005186121
0.004776304
0.004701049
0.004718583
0.004739964
0.004782546
0.004876608
0.005031408
0.005265695