/*--------------------------------*- C++ -*----------------------------------*\
  =========                 |
  \\      /  F ield         | OpenFOAM: The Open Source CFD Toolbox
   \\    /   O peration     | Website:  https://openfoam.org
    \\  /    A nd           | Version:  6
     \\/     M anipulation  |
\*---------------------------------------------------------------------------*/
FoamFile
{
    version     2.0;
    format      ascii;
    class       volScalarField;
    location    "49.8";
    object      k;
}
// * * * * * * * * * * * * * * * * * * * * * * * * * * * * * * * * * * * * * //

dimensions      [0 2 -2 0 0 0 0];

internalField   nonuniform List<scalar> 
203709
(
0.006752756
0.00715899
0.007498811
0.007805427
0.006290774
0.006423076
0.006670771
0.006958236
0.007201636
0.007394555
0.007365487
0.007559874
0.005916457
0.005999473
0.006159361
0.006296151
0.00642629
0.006515269
0.00654474
0.006542617
0.006558215
0.00664068
0.006288996
0.006487658
0.005662438
0.005761361
0.005875191
0.005956174
0.005980803
0.005939713
0.00582511
0.005629861
0.005416848
0.005253508
0.005172105
0.005217655
0.005522299
0.005142178
0.005536599
0.005578071
0.005575558
0.005482207
0.005292778
0.005011334
0.004757453
0.004623935
0.004586114
0.004596931
0.004635182
0.004662836
0.004633656
0.00456968
0.00479828
0.004978693
0.004857537
0.004666256
0.004392763
0.00411068
0.00405528
0.00414705
0.004289273
0.004462906
0.004671979
0.00490194
0.005096402
0.005179188
0.005020147
0.004690011
0.004268589
0.004216963
0.003942641
0.00359441
0.003317687
0.003358121
0.003571725
0.003857873
0.004155724
0.004459143
0.004807741
0.005198503
0.005547226
0.005764234
0.005798066
0.005443838
0.005719552
0.005184933
0.003998404
0.003304614
0.002767358
0.002686426
0.002912545
0.003190535
0.003575154
0.00397299
0.004358017
0.004810775
0.005356009
0.005861721
0.006194859
0.006319016
0.006144561
0.00567633
0.005463829
0.005257314
0.004418452
0.003693771
0.003095467
0.002874648
0.002890651
0.002987061
0.003310684
0.003750243
0.004181236
0.004702013
0.005396458
0.006072803
0.006525271
0.006724913
0.006749713
0.006237939
0.005269627
0.005241754
0.004786465
0.004294573
0.003911407
0.003643648
0.003384948
0.00312394
0.003143333
0.003531276
0.003970845
0.004519694
0.005349535
0.006210852
0.006788909
0.00704703
0.007143965
0.006813466
0.005243704
0.005226834
0.005015765
0.004715364
0.004444213
0.004157656
0.003793487
0.003386653
0.003189645
0.003365892
0.00376393
0.004302686
0.005243488
0.006301482
0.007011937
0.007322743
0.007482742
0.007358788
0.005214335
0.005098464
0.004908061
0.00468382
0.004388461
0.003980096
0.003523857
0.003257615
0.00332152
0.003617207
0.004092262
0.00510672
0.006367669
0.007215059
0.007575909
0.007748814
0.005196313
0.005067852
0.004931935
0.004733743
0.004433935
0.004008904
0.003558844
0.003296914
0.003310477
0.003539638
0.003968164
0.004971519
0.006429344
0.007422564
0.007823145
0.008062523
0.004969198
0.004845834
0.004649872
0.004342239
0.003933742
0.003543845
0.003324432
0.003312863
0.003495842
0.003903962
0.004943831
0.006499779
0.007655213
0.008084365
0.00485285
0.004677362
0.004487351
0.004197822
0.003848169
0.003539294
0.003353752
0.003319566
0.003477131
0.003887349
0.005049221
0.006623451
0.007917549
0.008354148
0.004482287
0.004273854
0.004053847
0.003773663
0.00353895
0.00336553
0.003317221
0.003485069
0.003927743
0.005285732
0.006801666
0.008253864
0.003833225
0.00363016
0.003522805
0.003341339
0.003304435
0.003503436
0.004007698
0.005519631
0.003220976
0.003181246
0.003242838
0.003465737
0.003853553
0.003657121
0.004310632
0.006506801
0.007486019
0.008093294
0.008649973
0.009081414
0.009411408
0.009674994
0.003214651
0.003030547
0.002992208
0.002935088
0.004630841
0.006562424
0.007559303
0.008226106
0.008747573
0.009156911
0.009504398
0.00981948
0.009855795
0.009957823
0.003490611
0.003433517
0.003204289
0.00288894
0.003863313
0.005330481
0.00674786
0.007735057
0.008351322
0.008784356
0.009102013
0.009366928
0.009570504
0.009705328
0.009869156
0.00983045
0.003484327
0.003694023
0.003630665
0.003534739
0.004021194
0.004739325
0.00586608
0.006990492
0.007703467
0.008163471
0.00852016
0.008942609
0.009077096
0.009199732
0.00933145
0.009479455
0.009621285
0.009546142
0.003146134
0.003758433
0.004051349
0.004199154
0.004549259
0.004961638
0.005694111
0.006505176
0.007121872
0.007774775
0.008037101
0.008214848
0.008416151
0.008526017
0.00865878
0.008687978
0.00878187
0.008950794
0.009134728
0.009017221
0.002912601
0.003515787
0.004310948
0.004507731
0.004788724
0.005105359
0.005540852
0.006056673
0.006931436
0.007490868
0.007892642
0.008069112
0.008190909
0.00824994
0.008227969
0.008233915
0.008086844
0.007616669
0.00765202
0.007923209
0.008287707
0.008112427
0.003924282
0.004153941
0.004911868
0.005053181
0.005285227
0.005699872
0.006479812
0.007219293
0.008110156
0.008902879
0.009614266
0.01021491
0.01067014
0.01091459
0.01097968
0.01079002
0.01011521
0.008572955
0.005913317
0.005865639
0.006080349
0.006816501
0.003896134
0.00396788
0.005327431
0.005951294
0.006121734
0.006433434
0.007462899
0.008422566
0.009458187
0.01048272
0.01110624
0.01116501
0.01091001
0.01051474
0.01020437
0.01003635
0.009926786
0.00965577
0.008910822
0.005946701
0.005347802
0.005046517
0.004595746
0.003252151
0.004133886
0.003851972
0.005000793
0.006629946
0.007321822
0.007076681
0.007691616
0.00796887
0.008107185
0.007852887
0.007408859
0.007132949
0.006976132
0.006940667
0.007021051
0.007203775
0.007416134
0.007442903
0.006912557
0.006251182
0.005827249
0.005645736
0.005062134
0.003923025
0.004396492
0.004127869
0.00442459
0.006344472
0.008241119
0.007684336
0.007116853
0.006413447
0.005889223
0.005550215
0.005349507
0.005296606
0.00537048
0.005534658
0.005821878
0.006214075
0.006659873
0.006999099
0.007086066
0.006633086
0.006309043
0.00629421
0.005694842
0.004498645
0.004651173
0.004452881
0.004452893
0.006269262
0.008826282
0.008448884
0.007348513
0.005986044
0.005426048
0.005263745
0.004971703
0.004774842
0.004736907
0.004837081
0.005170488
0.005672077
0.006249165
0.006716323
0.007024462
0.006826931
0.006616079
0.006794416
0.006227478
0.005094456
0.004900604
0.004744867
0.004699169
0.005655892
0.007559458
0.007957635
0.007437417
0.006496017
0.005729886
0.00554981
0.00526912
0.004881398
0.004618758
0.004504153
0.004774478
0.005348008
0.006043898
0.006603243
0.007068568
0.007348211
0.007271831
0.007220171
0.006637857
0.00559743
0.005130803
0.004998784
0.004939026
0.005278401
0.006260238
0.006815475
0.006682762
0.006161782
0.005708163
0.00558622
0.005538671
0.005261361
0.004843818
0.004443722
0.004546257
0.005154179
0.005973719
0.006605574
0.007141773
0.00750747
0.007589949
0.007520145
0.006955919
0.006010821
0.00530347
0.005196851
0.005130732
0.005128738
0.005397644
0.005722189
0.005749559
0.005530672
0.005355152
0.00539303
0.005481003
0.005384959
0.005085713
0.004582307
0.004458609
0.005058183
0.006016819
0.006726465
0.00733174
0.00777249
0.007942918
0.007771227
0.007224093
0.006362367
0.005355946
0.005288374
0.005237044
0.005240382
0.005231519
0.005272933
0.005229073
0.005125392
0.005093694
0.005203649
0.005336359
0.005342884
0.005155465
0.004704757
0.004475425
0.005036294
0.006158132
0.006958037
0.007631115
0.008106845
0.00843915
0.007994232
0.007459558
0.006680563
0.005286582
0.005249459
0.005226145
0.005225891
0.005099526
0.00501697
0.004923706
0.004852059
0.004865
0.004980968
0.005113697
0.005181721
0.005090156
0.004724649
0.004522164
0.005072247
0.00638216
0.00729217
0.007977643
0.0085015
0.008624016
0.008216561
0.00767401
0.006986193
0.005304477
0.005212954
0.005159243
0.005138942
0.005116299
0.004957823
0.004836964
0.004758926
0.004752079
0.004803747
0.004884985
0.004961969
0.004917823
0.004630378
0.004526373
0.005195241
0.00666941
0.007676909
0.008379347
0.009060704
0.008831257
0.00843117
0.007892758
0.007282473
0.005294292
0.005161351
0.005078995
0.005023814
0.004789149
0.004630518
0.004524882
0.004490443
0.004512614
0.004592396
0.004677282
0.004648375
0.00442514
0.004473261
0.005400629
0.00702535
0.008102228
0.008777557
0.009240749
0.009059805
0.008663628
0.00808188
0.005531061
0.005174127
0.004940543
0.004786739
0.004674151
0.004420219
0.004261848
0.004189481
0.004195436
0.004263313
0.004312441
0.004270126
0.004121303
0.004371143
0.005708251
0.00743115
0.008603535
0.009325415
0.009452967
0.009306855
0.00894035
0.008349759
0.00570443
0.005308652
0.004946364
0.004643928
0.004411946
0.004210053
0.003965452
0.003840142
0.003830584
0.003808585
0.003779723
0.003795788
0.004306688
0.006077924
0.008066939
0.009101112
0.009508376
0.009711148
0.009587456
0.009115992
0.005664118
0.005195354
0.004734102
0.004341678
0.003999136
0.003712549
0.003451085
0.003352604
0.003305181
0.003359349
0.003607945
0.004286893
0.006319999
0.008350342
0.009378086
0.009773245
0.01001101
0.009768327
0.005315699
0.004800386
0.0042784
0.003842277
0.003480913
0.00318208
0.002987393
0.002924984
0.003058444
0.003456422
0.004457627
0.006957227
0.008768106
0.009732693
0.01010145
0.01023444
0.004696116
0.004180098
0.003721564
0.003303632
0.003003905
0.002841406
0.00284596
0.003064805
0.003608627
0.005093305
0.007606671
0.009269411
0.01016048
0.01043843
0.003429276
0.003097063
0.002869773
0.002775394
0.002854452
0.003163597
0.00393018
0.00594364
0.008274417
0.009794682
0.00384481
0.003373511
0.002783693
0.004704012
0.006797235
0.007780037
0.008382455
0.008707271
0.004655728
0.004729537
0.004724068
0.004561062
0.004189765
0.003610379
0.005394077
0.007500517
0.008593111
0.009327268
0.009906475
0.009938292
0.009823854
0.0096678
0.004529886
0.004862713
0.005124952
0.005248143
0.005254079
0.004852774
0.004451309
0.006277024
0.008289402
0.009351944
0.01000667
0.01039918
0.01050818
0.0105306
0.01056279
0.01024674
0.00337818
0.003804552
0.00468249
0.005353283
0.005633959
0.006164236
0.006676228
0.007885918
0.009871096
0.008961018
0.009086038
0.009581321
0.009997762
0.01034045
0.01063239
0.01101593
0.01091953
0.01075005
0.01024963
0.009866201
0.0032823
0.003546609
0.004350944
0.00549653
0.006431237
0.006409139
0.00677052
0.00762998
0.01104656
0.0116243
0.009712353
0.009475003
0.009745555
0.0100602
0.0103497
0.0105597
0.01073046
0.01075454
0.0108968
0.01057844
0.01036262
0.009969995
0.003538819
0.003478595
0.003875399
0.005219391
0.00716767
0.007736648
0.008345987
0.009592174
0.01247159
0.01165726
0.01083663
0.009765439
0.009588428
0.009723881
0.00996572
0.01022337
0.01043704
0.0105773
0.01062974
0.01072009
0.0107519
0.01051629
0.01029717
0.009832432
0.003795058
0.003759615
0.00454929
0.00734889
0.008979245
0.01006584
0.0112521
0.01197002
0.01017315
0.01001432
0.009884744
0.009670341
0.009628404
0.009699593
0.009844603
0.01003222
0.01024097
0.01041829
0.01054227
0.01059471
0.0106048
0.01055744
0.01029856
0.01003049
0.004208884
0.004016475
0.004002066
0.006701278
0.009409193
0.01248483
0.01162468
0.009301091
0.008338431
0.008508554
0.009029863
0.009401582
0.009649651
0.009784231
0.009889169
0.01001431
0.0101528
0.01028613
0.01041326
0.01052317
0.01059137
0.01055592
0.01045344
0.01026822
0.01012735
0.009597824
0.004565526
0.00428422
0.004090171
0.005918679
0.008262724
0.01416602
0.01370779
0.008306144
0.007061659
0.007400473
0.008060815
0.008884387
0.009535384
0.009987817
0.0102864
0.01058024
0.01089153
0.01115698
0.01130779
0.01135518
0.01128301
0.01113283
0.01086433
0.01055135
0.01009103
0.009599412
0.009422956
0.008423281
0.004620687
0.004359737
0.004232045
0.006199393
0.01081577
0.01804712
0.01051873
0.007535416
0.007470266
0.008143112
0.009094669
0.01025587
0.01141586
0.01250675
0.01349332
0.01433885
0.01498329
0.01548443
0.0157845
0.01574957
0.01523637
0.01436543
0.01340828
0.01236601
0.01088316
0.008486798
0.00811807
0.007387917
0.004791276
0.004546385
0.00452962
0.006339087
0.01455278
0.01834236
0.01074537
0.009137961
0.009528787
0.0104844
0.01182549
0.01327682
0.01433581
0.01457139
0.01435897
0.01398903
0.01381266
0.01394041
0.01429241
0.01463738
0.01462693
0.01436578
0.01501349
0.01518166
0.01402139
0.01092555
0.00720299
0.005962137
0.0050849
0.004987885
0.004770911
0.004723639
0.00575598
0.01103843
0.01928199
0.0134589
0.01050959
0.01000256
0.01004426
0.01022787
0.01001091
0.009357727
0.008911506
0.008665255
0.00865749
0.008872229
0.009286546
0.009831607
0.01027055
0.01030349
0.0101545
0.01077911
0.01167989
0.01138107
0.009097446
0.006914314
0.005623303
0.004748594
0.005201037
0.005097355
0.004957354
0.004836162
0.005411487
0.008382156
0.01574667
0.0165334
0.01256631
0.009963179
0.008405733
0.00756163
0.006954916
0.006510407
0.006264886
0.006271917
0.006487289
0.006908429
0.007524536
0.008296438
0.009000465
0.009432175
0.009379477
0.00947514
0.009803599
0.009128811
0.006992406
0.00601119
0.005296745
0.004525859
0.005317949
0.005244782
0.005157098
0.004977777
0.005234678
0.006832533
0.0116143
0.01501745
0.01436332
0.0117592
0.008712786
0.007483778
0.006927025
0.006250609
0.005697072
0.005480138
0.005549825
0.005942191
0.006615895
0.007500043
0.00831356
0.008883769
0.009001814
0.008914424
0.008958488
0.008243432
0.006570522
0.005949286
0.005226553
0.004280869
0.005406884
0.005381374
0.005351716
0.005165375
0.00522933
0.005975298
0.008545445
0.01158916
0.01261145
0.01181312
0.01018552
0.008795186
0.007808441
0.006986013
0.006078178
0.005514613
0.005266385
0.005483531
0.006143053
0.007116317
0.008008088
0.008649404
0.008894726
0.008733066
0.008444645
0.007736427
0.006535023
0.006066789
0.005234293
0.004157718
0.005449404
0.005473767
0.005507556
0.005359667
0.005345823
0.00563645
0.006795401
0.00868001
0.009900968
0.009997544
0.009268849
0.008414359
0.007843945
0.007424776
0.006764833
0.006024021
0.005429808
0.005359839
0.005933502
0.006987198
0.007942186
0.008602493
0.008811798
0.008598743
0.008149304
0.007454621
0.006578374
0.006181396
0.005245624
0.004139276
0.005418624
0.005489916
0.005584917
0.005499666
0.005490204
0.005583284
0.006028211
0.006885454
0.007719361
0.008006994
0.007758393
0.007339692
0.007137373
0.007072799
0.006830641
0.006383002
0.005819123
0.005490301
0.005913407
0.007044779
0.008056525
0.008717789
0.008872285
0.008613548
0.008072229
0.007386807
0.006659622
0.006266375
0.005244178
0.004164234
0.00530262
0.005396018
0.005530991
0.005503965
0.005537016
0.005578374
0.005727959
0.006045782
0.006423191
0.006620888
0.006555625
0.006418438
0.006437219
0.006550155
0.00656752
0.006425353
0.006074812
0.005736217
0.006021142
0.007235941
0.008300394
0.008943365
0.009085678
0.008782279
0.008189354
0.007494648
0.006789602
0.006327868
0.005268362
0.004272803
0.005376595
0.005402598
0.005449711
0.005395571
0.005434914
0.005471496
0.005533944
0.005646615
0.005757547
0.005837889
0.005809375
0.005771961
0.005848113
0.006005395
0.006169479
0.006274076
0.006158331
0.005934189
0.00621952
0.007498382
0.008629706
0.009289325
0.009401432
0.009063401
0.008474514
0.007753108
0.007014688
0.006389001
0.005318688
0.004538365
0.005772758
0.005630257
0.005445001
0.005344649
0.005322897
0.00532032
0.005339725
0.005352421
0.005362389
0.0053413
0.005329752
0.005392909
0.005545812
0.005795294
0.006056183
0.006105865
0.006029283
0.006443951
0.007803827
0.00903385
0.009609294
0.009702103
0.009371035
0.008796399
0.00807455
0.007363045
0.006525154
0.005423353
0.00631242
0.005994028
0.005807609
0.005531239
0.005380548
0.005276083
0.005206022
0.005157
0.005119918
0.005075156
0.005032635
0.005048313
0.005191779
0.005489883
0.005815972
0.005942214
0.006013569
0.006645404
0.008154345
0.009407463
0.009888015
0.009962213
0.009658902
0.009089775
0.008339553
0.007876868
0.006717892
0.005482317
0.006978929
0.006620511
0.006300112
0.005877626
0.005442044
0.005145499
0.004913696
0.004743977
0.004658041
0.004622318
0.004620296
0.004687152
0.004883079
0.005211437
0.00552472
0.005661721
0.005895809
0.006816704
0.00857021
0.009714008
0.0101101
0.0101998
0.009920526
0.009359919
0.008645369
0.008032314
0.006974781
0.005526304
0.007657696
0.007285819
0.006895007
0.00630218
0.005748733
0.005292681
0.004896847
0.00460462
0.004429077
0.004366879
0.004409513
0.004598966
0.004887094
0.005121036
0.005255905
0.005717875
0.007102577
0.008964378
0.00997386
0.01029475
0.01042053
0.01015048
0.009626501
0.009130859
0.008207456
0.007003447
0.007951659
0.007447452
0.00698807
0.006297087
0.005676765
0.00512051
0.004648968
0.004317723
0.004125866
0.004088543
0.004219341
0.004409794
0.004578609
0.004837538
0.00568521
0.007562665
0.009320267
0.01025207
0.01050355
0.01066834
0.01045481
0.01007566
0.009200151
0.008108707
0.008107843
0.007721534
0.007185025
0.006686791
0.005938618
0.005268846
0.004673825
0.004206462
0.003906167
0.003774234
0.003792738
0.003899993
0.004097426
0.004561584
0.005895763
0.0081171
0.009725183
0.0106005
0.01076821
0.01106181
0.01099522
0.01020457
0.009438654
0.008250671
0.007607528
0.007240417
0.006628519
0.006096594
0.005267472
0.004618834
0.004073759
0.003694384
0.003490202
0.003428431
0.003503106
0.003768631
0.004498579
0.00640859
0.008658113
0.01016472
0.01101064
0.01119736
0.01167063
0.01119629
0.01046257
0.009489094
0.006731649
0.006281468
0.005841952
0.005225018
0.004605774
0.003916301
0.003443074
0.003160933
0.003058161
0.003161489
0.003542053
0.004673501
0.006998495
0.009228018
0.01072976
0.0115845
0.01174776
0.01191355
0.01152475
0.01055923
0.00524363
0.004826006
0.004165261
0.003621533
0.003173162
0.002859523
0.002741001
0.002871234
0.003383541
0.004993107
0.007565531
0.009876947
0.01129681
0.01171277
0.01191007
0.01195411
0.003951357
0.00358676
0.003245926
0.002941193
0.00270653
0.002690468
0.002929486
0.003770792
0.005754308
0.008314383
0.0103746
0.01170912
0.01198403
0.01193863
0.0025558
0.00257693
0.002713585
0.003144459
0.004377145
0.006601966
0.009036791
0.01076288
0.002978568
0.003988937
0.004566337
0.00583379
0.006625586
0.00702385
0.002661066
0.002967699
0.003241231
0.003422094
0.00363679
0.005427309
0.006316192
0.007275049
0.008218135
0.009047862
0.009309615
0.009161226
0.008812532
0.008403119
0.002200491
0.002503608
0.003045691
0.003583588
0.003876943
0.004268785
0.004594479
0.007446585
0.009711673
0.008386452
0.008888558
0.009505737
0.009929087
0.01035308
0.01019386
0.01004116
0.009364838
0.00872683
0.002474435
0.00270233
0.003133383
0.004298006
0.004454015
0.004500941
0.004704266
0.005274725
0.007994182
0.01219591
0.01005077
0.009962867
0.01045873
0.0107697
0.01089222
0.01071557
0.01051043
0.01038975
0.009846085
0.008949603
0.002955186
0.002945788
0.003230047
0.004484096
0.004980241
0.005299594
0.005558128
0.005949982
0.006760634
0.009899625
0.01416749
0.01175831
0.01105784
0.0113906
0.01166798
0.01171918
0.01153791
0.01122425
0.01094587
0.01068826
0.01008492
0.009280599
0.003614701
0.003304453
0.003523409
0.004169457
0.004997365
0.005851049
0.00638976
0.00677837
0.007245293
0.008509356
0.01253086
0.01629109
0.01313075
0.01199784
0.01208165
0.01227383
0.01228985
0.0121085
0.01178709
0.01135213
0.01092989
0.01043566
0.01029694
0.009439783
0.004342134
0.003835458
0.003571172
0.003971424
0.005057449
0.006403342
0.007474654
0.008089768
0.008496519
0.008953674
0.01109986
0.01576231
0.01666028
0.01372492
0.01258468
0.01242889
0.01254027
0.01254883
0.0124
0.01213431
0.01178939
0.01139969
0.01093163
0.01058945
0.01035448
0.009430245
0.004947253
0.004448214
0.003898746
0.003860196
0.004638511
0.006190075
0.008030707
0.009513937
0.01051611
0.01158757
0.01411494
0.01532175
0.01583718
0.01536307
0.01362188
0.01278471
0.01253722
0.01251001
0.0125507
0.01249806
0.0123458
0.01210835
0.01180067
0.01142661
0.01096257
0.01048953
0.01018429
0.00917635
0.005306838
0.005016106
0.004614296
0.004257774
0.004497464
0.005686475
0.007662991
0.01042311
0.01268153
0.01412189
0.01707045
0.01488793
0.01377954
0.01409197
0.01400038
0.01323069
0.01272848
0.01253991
0.01250587
0.01250279
0.01251767
0.01252145
0.01242979
0.0122331
0.01192195
0.01148501
0.01092433
0.01058581
0.009804585
0.00888439
0.005306389
0.005105133
0.004668587
0.004484534
0.004958208
0.006485706
0.009590589
0.01442352
0.01667512
0.01563755
0.0121819
0.01161585
0.01204867
0.01275658
0.01307618
0.01287671
0.01264936
0.01257946
0.01263368
0.0127333
0.01282102
0.01284488
0.01279316
0.01271884
0.01247316
0.01201963
0.01133924
0.01071812
0.009943634
0.008921299
0.005093623
0.00534286
0.004989372
0.004675152
0.004618091
0.005247441
0.007271459
0.01350114
0.01977297
0.01480396
0.01028824
0.009797111
0.01040765
0.01137286
0.01229522
0.01282041
0.01294332
0.01301305
0.01318763
0.01341867
0.01362852
0.01376388
0.0138246
0.01379966
0.01361869
0.01315357
0.0126532
0.01188
0.01095899
0.009893295
0.00907036
0.007930208
0.005189571
0.005353868
0.005065855
0.004825808
0.004780543
0.00553943
0.009157795
0.02077313
0.01852842
0.01115298
0.009763189
0.01008074
0.01108603
0.01242399
0.0137899
0.01497535
0.01594441
0.01675895
0.01742249
0.01798212
0.0183467
0.01835645
0.01796102
0.01724738
0.01636798
0.01534394
0.01423754
0.01297261
0.01153095
0.01002189
0.008602362
0.007287564
0.005406293
0.005528841
0.005272114
0.005057553
0.005005314
0.00575223
0.01177482
0.02460452
0.0164174
0.01207255
0.01154017
0.01226739
0.01367574
0.01532331
0.01664209
0.01696725
0.01675583
0.01642109
0.01639023
0.0167859
0.01748931
0.01821295
0.01870671
0.01910913
0.01952877
0.01865777
0.01672237
0.01465432
0.01266618
0.01046773
0.008019696
0.006606781
0.005666426
0.005499648
0.005372514
0.005236495
0.005169417
0.005718588
0.009919316
0.02267161
0.01981302
0.01384248
0.01208014
0.0117212
0.01186278
0.01173299
0.01099595
0.01048241
0.0102291
0.01032827
0.01076939
0.01151832
0.01247475
0.01330333
0.01373196
0.01403338
0.0150071
0.01624251
0.01611666
0.01405616
0.01253919
0.01064439
0.009316371
0.006841833
0.005113852
0.005766129
0.005642729
0.005614016
0.005490029
0.005379378
0.005672862
0.008134752
0.01680353
0.02171984
0.01704481
0.01270609
0.01019123
0.008981356
0.008183405
0.007601842
0.007254413
0.007261823
0.007599146
0.008248936
0.009222855
0.01047455
0.01159614
0.01227787
0.01247372
0.01268568
0.01303314
0.01278149
0.011703
0.01193874
0.01068825
0.008736785
0.007195566
0.006524154
0.005148354
0.005646769
0.005731655
0.005831051
0.005784369
0.005674826
0.005764673
0.007060979
0.01198907
0.01756453
0.01826553
0.01560123
0.01130676
0.009309061
0.00841202
0.007454099
0.00664164
0.006321053
0.006440931
0.006992777
0.007988473
0.009405027
0.01068127
0.01145059
0.01167129
0.0116112
0.01146203
0.010804
0.009630387
0.01058311
0.01064567
0.008611213
0.007243981
0.006323359
0.005140983
0.005596316
0.005783999
0.006004085
0.006073724
0.006027513
0.006014283
0.00659245
0.009042864
0.01289168
0.01511318
0.01489345
0.01311002
0.01158407
0.009935537
0.008587252
0.007250355
0.006444879
0.006159775
0.006442419
0.007345355
0.008891127
0.01028842
0.01108018
0.01126394
0.01100134
0.01051132
0.009700587
0.008651256
0.008635309
0.00791809
0.006574086
0.005858597
0.005332004
0.00511798
0.005548416
0.005789518
0.006109912
0.006308079
0.00637301
0.006358665
0.006545369
0.00761272
0.009668219
0.01149483
0.01212178
0.01155081
0.01059597
0.009791636
0.009081779
0.008120279
0.007116543
0.006443705
0.006366032
0.007079854
0.0087338
0.01023655
0.011015
0.0111158
0.01071574
0.01001717
0.009076136
0.008025899
0.007423473
0.006215662
0.004956268
0.004280975
0.003992981
0.005038771
0.005455102
0.005718267
0.006111423
0.006425438
0.006619892
0.006681242
0.006737053
0.007114426
0.008002736
0.008998013
0.009541289
0.009421631
0.008941106
0.008586911
0.008388344
0.008022738
0.007449566
0.006889637
0.006616935
0.007093858
0.008833153
0.01043184
0.01117221
0.01119973
0.01071738
0.009891241
0.008830741
0.00766544
0.006656763
0.005459931
0.004554309
0.003917462
0.002932225
0.005091718
0.005497347
0.005591674
0.005950421
0.006319804
0.006617924
0.006788126
0.006866585
0.006990745
0.007327918
0.007737281
0.007973103
0.007913538
0.007685119
0.007570282
0.007574565
0.007519101
0.007343308
0.007098935
0.006938063
0.007320456
0.009093124
0.01079094
0.01146027
0.0114248
0.01090632
0.01002805
0.00887495
0.00758402
0.006347854
0.005180301
0.00449612
0.004266355
0.002314248
0.005999725
0.005815332
0.005828097
0.00608635
0.006361396
0.006572172
0.00670278
0.006801746
0.00696111
0.007124803
0.007166448
0.007065332
0.006899343
0.006823274
0.006848436
0.006924907
0.007025149
0.007087411
0.007156036
0.00765099
0.009465105
0.01122434
0.0118068
0.0117704
0.01122897
0.01032469
0.009122855
0.007739396
0.006382219
0.005233014
0.004655228
0.004539803
0.006561463
0.006510004
0.006359863
0.006395377
0.006453547
0.006510712
0.006558783
0.006613633
0.00669889
0.006773622
0.006736271
0.006584118
0.00639928
0.006275825
0.006266492
0.006405877
0.006671285
0.006948849
0.00725494
0.007975083
0.009926676
0.0116439
0.01224813
0.01220544
0.01167557
0.01076831
0.009530769
0.008076303
0.006620079
0.005372544
0.004802181
0.004496579
0.007302364
0.007239333
0.006949067
0.006849254
0.006742394
0.006601451
0.006442478
0.006321282
0.006291666
0.006293399
0.006224258
0.006078449
0.005905857
0.005776868
0.005776026
0.005970175
0.006326434
0.006740158
0.007267307
0.008282124
0.01041053
0.01207709
0.01260413
0.01255147
0.01204776
0.01115106
0.00990299
0.008414991
0.006891519
0.005497043
0.004807186
0.004369997
0.007774885
0.007935454
0.007689594
0.007466148
0.007357602
0.007130323
0.006785527
0.006388978
0.006048042
0.005811511
0.005607449
0.005424869
0.005278153
0.005210328
0.005286067
0.005550833
0.00596538
0.006487732
0.007241448
0.008603882
0.01086381
0.01240304
0.01284048
0.01277103
0.01228043
0.01138436
0.01014724
0.0086368
0.00711077
0.005624098
0.004809804
0.004079335
0.00876404
0.008810063
0.008576403
0.00829403
0.008060574
0.007665006
0.007141502
0.006546633
0.006009981
0.005564213
0.005199619
0.004940786
0.004822766
0.004888242
0.005154855
0.005595008
0.006239829
0.00724496
0.008989332
0.01135159
0.01264742
0.01298353
0.01288416
0.01237429
0.01144873
0.01022308
0.008676721
0.007241145
0.005840199
0.004695692
0.008817719
0.009057595
0.009185021
0.008849753
0.008594034
0.008200521
0.007664642
0.007001709
0.006258246
0.005617158
0.005079865
0.004689144
0.004489767
0.0045174
0.004770344
0.005262671
0.006073328
0.007359308
0.009498209
0.01183176
0.01286043
0.01308698
0.0129482
0.01239989
0.01142181
0.01019455
0.008650379
0.00751362
0.005896346
0.00450675
0.009054453
0.009330593
0.008890775
0.008571965
0.00826433
0.007795031
0.007174167
0.006412708
0.005635282
0.004986847
0.004497553
0.004229577
0.004218051
0.004476583
0.005048597
0.006039916
0.00765697
0.01011902
0.01222884
0.01305751
0.0131758
0.01300497
0.01243513
0.01137529
0.01016985
0.008781454
0.007643272
0.005744962
0.008814697
0.009077925
0.008531747
0.008082431
0.007632845
0.007063253
0.00635678
0.005563855
0.004878418
0.004362295
0.004063295
0.004031922
0.004306144
0.004942883
0.006146483
0.008178401
0.010767
0.01258196
0.01319941
0.01322318
0.01304686
0.01249157
0.01133196
0.01033382
0.009356967
0.007515976
0.008127194
0.008282656
0.007567301
0.007083988
0.006592545
0.006008142
0.005312848
0.004641668
0.004148044
0.003860507
0.003847996
0.004150789
0.004862084
0.006394098
0.008797671
0.01130772
0.01281422
0.01323625
0.01317453
0.01301218
0.01256804
0.01149726
0.01091383
0.009147319
0.007042185
0.007047019
0.006690787
0.00605838
0.005477787
0.004843703
0.004243489
0.003781949
0.003563739
0.003614165
0.003971
0.004897501
0.006819086
0.009415039
0.01164286
0.01289901
0.01316732
0.01300922
0.01312446
0.01291071
0.01210229
0.01066863
0.005653959
0.005616365
0.005247915
0.004621338
0.004093179
0.003685346
0.003373892
0.003262357
0.003386546
0.003853062
0.005126453
0.007359811
0.009930999
0.01178039
0.01290105
0.01305977
0.01302449
0.01340695
0.01277638
0.01180191
0.004401701
0.004207537
0.004013768
0.003590765
0.003270936
0.003042031
0.003020965
0.003187836
0.00385426
0.005445986
0.007917241
0.01035907
0.01209371
0.01317865
0.01330052
0.01331677
0.01321615
0.0124264
0.002992981
0.002874822
0.002793579
0.002816466
0.002848515
0.0030096
0.003873746
0.00582356
0.008519132
0.01097318
0.01260557
0.0129502
0.01290532
0.01258726
0.002418584
0.003006992
0.004205459
0.006330363
0.008798225
0.01067106
0.001609795
0.002419431
0.003420425
0.00426693
0.004863175
0.005735948
0.006364822
0.006737653
0.006881233
0.006746044
0.001307502
0.001334852
0.001699283
0.002170682
0.002811503
0.003861756
0.005359413
0.006203234
0.006741782
0.007509293
0.008216345
0.008871799
0.009126267
0.008797612
0.008047296
0.007255457
0.001757587
0.001825262
0.002219159
0.002564785
0.002884099
0.003272916
0.004270994
0.007530198
0.008394278
0.0085773
0.009298223
0.009929968
0.01031162
0.01022055
0.009851232
0.009393941
0.009250536
0.008197318
0.002827702
0.002345944
0.002223351
0.002440625
0.00292877
0.003513379
0.004018156
0.004522257
0.005301612
0.008912327
0.0113052
0.01076231
0.01107831
0.01173802
0.01211776
0.01206009
0.01167526
0.01094646
0.01026602
0.009462724
0.008539514
0.007549893
0.004059093
0.00318187
0.002674492
0.002822924
0.003450077
0.004340085
0.004980423
0.005307083
0.005642711
0.00625864
0.009175243
0.01404008
0.01291811
0.01282372
0.01323182
0.01358281
0.01353685
0.01316109
0.01249391
0.01162186
0.01046031
0.009419193
0.008897936
0.007900511
0.004988005
0.004215512
0.003396677
0.003201422
0.003725591
0.004845181
0.0059657
0.006613955
0.006930301
0.007297281
0.008157635
0.01101633
0.0159119
0.015139
0.01444499
0.01441294
0.01459934
0.01449072
0.01408554
0.01346664
0.0126896
0.01171825
0.01058211
0.009657327
0.009038316
0.007870829
0.005503725
0.005092391
0.004242978
0.003693731
0.003849857
0.004848444
0.006352649
0.007665002
0.008294588
0.008528964
0.008791456
0.009802111
0.01293185
0.01782438
0.01700203
0.01570637
0.01532453
0.01519075
0.01496836
0.01451599
0.01393134
0.01330686
0.01263729
0.01182583
0.01074954
0.00978074
0.009084522
0.008034144
0.00567375
0.005675378
0.00503046
0.004372223
0.004091904
0.0045786
0.006080931
0.008066821
0.009395118
0.00998867
0.01018561
0.01035409
0.01163813
0.01551571
0.01926851
0.01774635
0.01643935
0.01588357
0.01543814
0.0151215
0.01467036
0.0141348
0.0136203
0.01316321
0.01267246
0.01194606
0.01086886
0.009847506
0.009175383
0.008096535
0.005950048
0.005588291
0.005088708
0.004620847
0.004544285