/*--------------------------------*- C++ -*----------------------------------*\
  =========                 |
  \\      /  F ield         | OpenFOAM: The Open Source CFD Toolbox
   \\    /   O peration     | Website:  https://openfoam.org
    \\  /    A nd           | Version:  6
     \\/     M anipulation  |
\*---------------------------------------------------------------------------*/
FoamFile
{
    version     2.0;
    format      ascii;
    class       volScalarField;
    location    "49.8";
    object      k;
}
// * * * * * * * * * * * * * * * * * * * * * * * * * * * * * * * * * * * * * //

dimensions      [0 2 -2 0 0 0 0];

internalField   nonuniform List<scalar> 
203709
(
0.006751797
0.00721026
0.007622215
0.007975181
0.006178343
0.006346752
0.00665697
0.007022796
0.007348702
0.007628646
0.00770925
0.007981741
0.005743761
0.005833818
0.006024833
0.006210669
0.006410238
0.006590705
0.00672598
0.006834755
0.006959005
0.007136007
0.007041529
0.007335165
0.005428526
0.005491285
0.005581173
0.005678262
0.005743413
0.005767736
0.005745355
0.005697361
0.005658317
0.005656371
0.005719924
0.005885728
0.006275089
0.006316391
0.005005171
0.004997423
0.004980852
0.004916593
0.004825852
0.00474354
0.004683392
0.004641954
0.004616842
0.004612009
0.004635295
0.004711015
0.004936525
0.005739729
0.004062003
0.004305128
0.004201761
0.004139501
0.004066613
0.004086445
0.004150784
0.00423681
0.004325438
0.004415926
0.004512602
0.004607034
0.00467031
0.004653434
0.004446199
0.003858095
0.003516936
0.003501719
0.003311031
0.003206106
0.003278545
0.003431847
0.003642076
0.003888921
0.004120054
0.004341254
0.004579456
0.004831215
0.005049992
0.005171387
0.005134758
0.004671535
0.005156603
0.005341438
0.004199444
0.003436343
0.002703784
0.002893659
0.003016216
0.003226249
0.003576911
0.003921737
0.004240917
0.004596953
0.005007098
0.005397919
0.005662656
0.005749345
0.005529448
0.004898551
0.005025859
0.005156316
0.004664607
0.00413707
0.003744974
0.00340663
0.003108372
0.002987138
0.003276661
0.003686789
0.004068762
0.004503673
0.005057933
0.00563073
0.006039763
0.006225363
0.006251659
0.005591291
0.004986876
0.005029872
0.004846145
0.004567493
0.004304187
0.003987699
0.003586295
0.003152188
0.003073721
0.003451646
0.003861832
0.004334402
0.005008851
0.005774139
0.006334177
0.006593869
0.00670208
0.006269037
0.005093676
0.005024061
0.004924898
0.004761425
0.004558102
0.004264797
0.003843885
0.003352949
0.003100846
0.003270008
0.003655631
0.004129943
0.00489227
0.005857242
0.0065789
0.00690504
0.0070907
0.006950584
0.005062228
0.004971381
0.004840732
0.00464977
0.004355512
0.003925287
0.003437636
0.003157404
0.003222645
0.003507471
0.003931842
0.004742243
0.005905495
0.006799405
0.007182966
0.007341392
0.005106781
0.004959687
0.004835654
0.004649052
0.004351246
0.003920398
0.003463464
0.003203235
0.003219185
0.003433712
0.003813054
0.004604313
0.005938973
0.007020242
0.007453145
0.007698302
0.004897771
0.004769796
0.004572518
0.004264431
0.00385424
0.003464178
0.003247088
0.003232987
0.003395646
0.003749307
0.004578688
0.005983383
0.00726806
0.007716206
0.004801109
0.004618357
0.004423939
0.00413597
0.003788588
0.003479241
0.003292211
0.00324961
0.00338072
0.003729882
0.004662647
0.006116337
0.007551001
0.008007396
0.004428879
0.004215193
0.003995591
0.003718346
0.003483085
0.003311414
0.003251867
0.003387574
0.003765463
0.004866156
0.006337517
0.007883613
0.00379434
0.003585019
0.003474483
0.003292358
0.00324138
0.003403823
0.003839245
0.005071639
0.003185446
0.003134776
0.003177797
0.003364933
0.00374856
0.003661572
0.004346037
0.006383576
0.007417993
0.008176654
0.008702502
0.009101757
0.009392959
0.009611149
0.003083479
0.002838511
0.002544399
0.002905551
0.004726602
0.006449684
0.007575837
0.008333602
0.008842351
0.009228469
0.009544333
0.009822003
0.009834277
0.009885994
0.003426523
0.003345302
0.003012088
0.002824349
0.003848665
0.00535652
0.006720237
0.007800895
0.008487054
0.00893112
0.009246377
0.009495326
0.009672447
0.009769193
0.00987948
0.009820374
0.003565197
0.003704872
0.003605874
0.003578491
0.003923361
0.004725532
0.005826175
0.00689808
0.007740853
0.008283207
0.008698023
0.009172284
0.009319508
0.009436263
0.009538347
0.009635449
0.009714459
0.00963481
0.003226822
0.004035814
0.00412164
0.004278859
0.004578802
0.004923205
0.005549957
0.006409421
0.007034291
0.007794226
0.008149496
0.008415403
0.008686528
0.008854269
0.009082107
0.009118331
0.00918381
0.009278159
0.009365282
0.009263514
0.002696232
0.004051953
0.004506941
0.004531857
0.004740138
0.004897326
0.005426261
0.005960185
0.006847754
0.007415815
0.007872413
0.008103489
0.008263142
0.008361089
0.008419718
0.008525778
0.00852044
0.008475267
0.008486285
0.008598143
0.008739381
0.008609796
0.003767981
0.004846632
0.005069731
0.005127546
0.005254012
0.005720841
0.006478865
0.007095427
0.007759432
0.008214158
0.00848733
0.008605173
0.008655291
0.008661427
0.008614952
0.008443294
0.008064584
0.007694891
0.007169945
0.007262286
0.007506169
0.007802908
0.003930945
0.004099289
0.005339009
0.006258573
0.006480492
0.00671406
0.007807241
0.008646919
0.009448861
0.01012702
0.01058872
0.01086209
0.01101089
0.01111414
0.0112195
0.01133232
0.01131756
0.01087008
0.00935964
0.005968857
0.005677184
0.005910599
0.006660781
0.003075943
0.004136855
0.004030111
0.00454213
0.006672282
0.00815077
0.007331953
0.007606102
0.007722856
0.007843457
0.007955334
0.00805497
0.008207974
0.008423778
0.008700843
0.009067654
0.00957107
0.01021335
0.01087116
0.01117905
0.01030417
0.005944681
0.005352272
0.004990127
0.0040237
0.004400833
0.004244233
0.004303743
0.005573834
0.009575746
0.009137579
0.008073557
0.006955112
0.006464971
0.006085072
0.005764679
0.005701519
0.005840589
0.006094579
0.006443139
0.006887309
0.007419393
0.007894141
0.008089942
0.007582703
0.006308458
0.005929576
0.005413842
0.004372124
0.004676368
0.004520245
0.004491696
0.005367764
0.007957615
0.00899473
0.008946633
0.008148989
0.006842024
0.006185741
0.005416254
0.004977258
0.004898968
0.005036501
0.005372102
0.005842586
0.006419851
0.006929852
0.00728046
0.007025493
0.006628137
0.006474639
0.005943322
0.004887762
0.004952364
0.004801637
0.004747306
0.005086323
0.006298108
0.007167772
0.007306475
0.006975839
0.006699504
0.006453486
0.005835385
0.005049825
0.004651078
0.004540876
0.004794436
0.005297999
0.005963599
0.006540714
0.00704257
0.007367263
0.007218451
0.006933699
0.006392752
0.0053949
0.005201966
0.005065098
0.00498804
0.004979869
0.005398447
0.005773731
0.005859086
0.005653304
0.005496226
0.005588367
0.005667441
0.005372551
0.0048292
0.00439774
0.00447124
0.004981948
0.005760673
0.006400633
0.006963163
0.007372696
0.007475029
0.007264866
0.006747181
0.005832451
0.005379211
0.005269849
0.005188437
0.005003525
0.005002799
0.005067582
0.005057701
0.004978587
0.004990627
0.005166594
0.005322104
0.005265285
0.004996638
0.004498394
0.004330314
0.004801524
0.005716258
0.006435869
0.007063586
0.00754605
0.007754074
0.007554787
0.007047583
0.006216319
0.005421419
0.005352838
0.005293976
0.00526481
0.005074999
0.004971581
0.004869686
0.004813295
0.004854582
0.004999181
0.005122067
0.005135074
0.004999279
0.004596197
0.004325944
0.00472067
0.005790112
0.006610942
0.007313421
0.007847598
0.008201373
0.007818347
0.007315176
0.006571383
0.005345935
0.005300196
0.005267738
0.00524738
0.005039374
0.004892139
0.004762019
0.004694147
0.004716242
0.004810846
0.004902158
0.004964167
0.004920241
0.00460839
0.004361603
0.004728045
0.005954051
0.006910471
0.007656253
0.008238365
0.008411749
0.008063415
0.007563163
0.006927073
0.005403035
0.005277506
0.005202063
0.005159839
0.005120115
0.004910077
0.004768437
0.004685058
0.004662267
0.004674808
0.004709721
0.004775649
0.004767875
0.004522042
0.004360615
0.004835748
0.006192405
0.007306601
0.008064358
0.00881329
0.008640869
0.008298111
0.007799097
0.007308302
0.005388129
0.005224255
0.005112032
0.005033676
0.004767311
0.004592829
0.004475683
0.004424417
0.004410356
0.004451614
0.004530494
0.004531344
0.004330455
0.004301492
0.005008492
0.006545148
0.00776765
0.00848735
0.009021883
0.008894463
0.008548726
0.007999752
0.00570038
0.00530128
0.005026881
0.00482311
0.004680657
0.004402157
0.004231902
0.004138669
0.00411718
0.004161446
0.004212037
0.004189313
0.004035739
0.004187144
0.005271264
0.006989635
0.008299003
0.009079524
0.009261945
0.009163209
0.008839403
0.008320149
0.005860344
0.005439347
0.005047964
0.004708502
0.004444708
0.004220351
0.003944072
0.003800153
0.003773993
0.00375366
0.003721702
0.003700762
0.004115715
0.005603522
0.007701583
0.008829569
0.009299064
0.009549252
0.009463548
0.009040442
0.00578546
0.005303137
0.004819875
0.004400964
0.004034463
0.003732818
0.003463125
0.003333416
0.003267802
0.00329908
0.003515882
0.004094221
0.005851359
0.008042809
0.009153546
0.009600241
0.009872859
0.009670766
0.005397193
0.004878825
0.004341659
0.00388702
0.003508054
0.00319361
0.002981275
0.002896688
0.00300416
0.00336746
0.004255087
0.006566698
0.008531551
0.009548329
0.00995981
0.01011832
0.004744036
0.004229798
0.003761611
0.003326129
0.003008596
0.002827834
0.002812849
0.003010354
0.003521032
0.004850373
0.007342106
0.009097368
0.01000783
0.01032605
0.003437478
0.003100215
0.002861638
0.002753688
0.002817831
0.00311292
0.003845588
0.005733359
0.008088776
0.009672819
0.003832338
0.003294997
0.00261433
0.004570571
0.006649992
0.007595618
0.008185577
0.008491575
0.004953628
0.004925213
0.004811254
0.0045497
0.00414067
0.003625544
0.005181005
0.007391428
0.008414966
0.009124396
0.009686254
0.009723761
0.009575209
0.009384536
0.004993817
0.005203458
0.005269467
0.005227952
0.005083761
0.004738422
0.004288141
0.006175279
0.008239497
0.009217385
0.009845646
0.0102156
0.01029879
0.01028172
0.01027276
0.009940473
0.003567942
0.004249874
0.005205311
0.005630941
0.005602062
0.005828286
0.006227443
0.00711067
0.008605024
0.008502968
0.009060684
0.009530419
0.009918516
0.01021942
0.01046241
0.01079576
0.01066507
0.010464
0.009947533
0.009545919
0.003253716
0.003702456
0.005001671
0.00612193
0.006380328
0.005897857
0.005909876
0.007020657
0.009451146
0.009672616
0.009271267
0.009461159
0.00976567
0.01005665
0.0102991
0.01045183
0.01056706
0.01054708
0.0106572
0.0103209
0.01007802
0.009687474
0.003378649
0.003424697
0.00416277
0.006224928
0.007555344
0.007126059
0.006771395
0.007562002
0.008696471
0.009071892
0.009421857
0.009427884
0.009588022
0.009785556
0.01003147
0.01024372
0.01039293
0.01046661
0.0104632
0.01051941
0.01055228
0.01030397
0.01006503
0.009621671
0.003653917
0.00366288
0.005165505
0.008748714
0.008754547
0.007873945
0.007144781
0.006917337
0.007432767
0.008306183
0.009000611
0.009420268
0.009614177
0.009748147
0.009907801
0.01009257
0.01023983
0.01034123
0.01039351
0.01040422
0.01042121
0.01042974
0.01017128
0.009903399
0.004006835
0.00385768
0.003872802
0.007800407
0.0110977
0.00962004
0.006897436
0.006024135
0.006198587
0.007008905
0.008023003
0.008835513
0.009393869
0.009650398
0.009777935
0.009887733
0.009992508
0.01008939
0.0102054
0.01028869
0.01031954
0.01029637
0.01027498
0.01023225
0.0100605
0.009571472
0.00440935
0.004108138
0.003927888
0.00673848
0.01052255
0.01434134
0.008263445
0.006164493
0.005858347
0.006425363
0.007268349
0.008256994
0.009035441
0.00954376
0.009806862
0.009982387
0.01014057
0.01026781
0.01032421
0.01032181
0.01027592
0.01022911
0.01017051
0.01004673
0.009872303
0.009686711
0.0094099
0.008517117
0.004488909
0.004212001
0.004115767
0.008851622
0.01716727
0.01514084
0.008227561
0.006990433
0.007136693
0.007751653
0.00856987
0.009460176
0.01016864
0.01061997
0.01086612
0.01102647
0.01115967
0.01126527
0.01130218
0.01124077
0.0110313
0.01072201
0.01040479
0.009984079
0.009572202
0.00892215
0.008429192
0.007847234
0.004695027
0.004431546
0.004348031
0.006561143
0.01485048
0.02044691
0.01183748
0.009802811
0.009990366
0.01072442
0.01174374
0.01274737
0.01350159
0.01400347
0.01434569
0.01464364
0.01496645
0.01530264
0.01550837
0.01534347
0.01458083
0.01347851
0.01296335
0.0124564
0.01197785
0.01132965
0.007045339
0.006555208
0.005069002
0.004945228
0.004703639
0.004550827
0.005545085
0.01022998
0.0197178
0.01667022
0.01176982
0.01030584
0.009978414
0.01011263
0.01024044
0.01035325
0.01053736
0.01086078
0.01134235
0.01201161
0.01292499
0.01408336
0.01529214
0.01606831
0.01597051
0.01472862
0.01454763
0.01391293
0.01126603
0.00732766
0.005768322
0.004688641
0.00520514
0.005090366
0.004933478
0.004723562
0.00513684
0.007585128
0.01402898
0.01763058
0.01596344
0.01234974
0.009717898
0.008580084
0.007834318
0.007189709
0.006924032
0.007048486
0.007431516
0.008003308
0.008760549
0.009707488
0.01065502
0.0113445
0.01138828
0.01112159
0.01113366
0.01034848
0.007878445
0.006590459
0.005687674
0.004787583
0.005342718
0.005265673
0.005169262
0.004933121
0.005032981
0.006145474
0.009708535
0.01352218
0.01487572
0.0143808
0.0132097
0.009973399
0.008433926
0.006993768
0.00602558
0.005731685
0.005860842
0.006303922
0.00698974
0.00790779
0.008823089
0.009537309
0.009743011
0.009603431
0.009521439
0.008683497
0.006643912
0.006049983
0.005427101
0.004563948
0.00544751
0.005422285
0.005390812
0.005175138
0.00513004
0.005536608
0.00714978
0.009601849
0.01120487
0.01154513
0.01102477
0.01033693
0.009315653
0.007947338
0.006372798
0.005557471
0.005289083
0.005515729
0.006125685
0.007061498
0.007990023
0.008738765
0.009120672
0.009028516
0.008792022
0.008034559
0.006525168
0.006169052
0.005473517
0.004504303
0.005500551
0.005526444
0.005562432
0.005402538
0.005328183
0.005419774
0.006003503
0.00714501
0.008200266
0.008603951
0.008355307
0.00789006
0.007708566
0.007575378
0.006939721
0.006002377
0.005314931
0.005229734
0.00572334
0.006703643
0.007665849
0.008412447
0.008751607
0.00866599
0.008326283
0.007666766
0.006591681
0.006346284
0.005522641
0.004531949
0.0054768
0.005547355
0.005644249
0.00555316
0.005514876
0.005507418
0.005657746
0.006026134
0.006490095
0.006724767
0.006657517
0.006521574
0.006595031
0.006736314
0.006615755
0.006210549
0.005640901
0.005277353
0.005596473
0.006628937
0.007643108
0.008385086
0.00866575
0.008549814
0.008133346
0.007538528
0.006747656
0.006498831
0.005516175
0.004552384
0.005381658
0.005461973
0.005590122
0.005551525
0.005566274
0.005558383
0.005578618
0.005654882
0.005758084
0.005828246
0.005805707
0.005809859
0.005958588
0.006152044
0.006223546
0.006141345
0.005843785
0.005489464
0.00565537
0.006735261
0.007815533
0.008531684
0.008777348
0.008618176
0.008169798
0.007583724
0.006960733
0.006612339
0.005474716
0.004586735
0.005532943
0.005517602
0.005534241
0.005448272
0.00545846
0.005458216
0.005457583
0.005461857
0.00543922
0.005424535
0.005389843
0.005397168
0.005503619
0.005662259
0.005830276
0.005971183
0.005911365
0.005677779
0.005845162
0.006942864
0.008116263
0.008824436
0.009068263
0.008858788
0.008397741
0.00778806
0.007219661
0.006700031
0.005444584
0.00468447
0.005954627
0.005777167
0.005552416
0.005404738
0.005337998
0.005287463
0.00525106
0.005200752
0.005159092
0.005120608
0.005113678
0.005165617
0.005287902
0.005513381
0.005785668
0.005877079
0.005779605
0.006062932
0.007239568
0.008507718
0.009169832
0.009384586
0.009170011
0.008713616
0.008093067
0.007559821
0.006802246
0.00556973
0.006535582
0.00620036
0.005993115
0.00565493
0.005446804
0.005285193
0.005164277
0.005070799
0.005006555
0.004953851
0.004904727
0.004898908
0.005003182
0.005267639
0.005594996
0.005750146
0.00577864
0.006257213
0.007600148
0.008941532
0.009503625
0.009682583
0.009481892
0.009017581
0.008367267
0.008049515
0.006971016
0.005683129
0.007171695
0.00682683
0.006509592
0.006061614
0.005595271
0.005256337
0.004973627
0.004751279
0.004618206
0.004551512
0.004527976
0.004569877
0.004732147
0.005036993
0.005356294
0.005512134
0.005675029
0.006417939
0.008050897
0.009331527
0.009794791
0.00997308
0.009781163
0.00930969
0.008688453
0.008153574
0.007186071
0.005842185
0.007801971
0.007452907
0.007070248
0.006463523
0.005895774
0.005415114
0.004983653
0.004647873
0.004433804
0.004335643
0.004341919
0.004496877
0.004768869
0.005007493
0.005146522
0.005495243
0.0066823
0.008546088
0.009675273
0.01004894
0.01025008
0.01005424
0.009598236
0.00918475
0.008284614
0.007272299
0.00803474
0.007553159
0.007109715
0.006417778
0.005793659
0.005220515
0.004717931
0.004353898
0.004129056
0.00405825
0.004162398
0.004346275
0.004511769
0.004739222
0.005449042
0.007138373
0.009022425
0.01002831
0.0103187
0.010547
0.01039228
0.01006295
0.009246769
0.008193633
0.008090934
0.007746455
0.0072359
0.006756878
0.006018285
0.005351496
0.004745116
0.004255483
0.003929323
0.003770237
0.00376899
0.003864452
0.00404404
0.004460806
0.005651305
0.007787738
0.009505924
0.01043911
0.01063112
0.01097326
0.01095483
0.01018825
0.009470939
0.008381878
0.007557549
0.007226494
0.006639655
0.006128204
0.005312689
0.004667716
0.004116551
0.003719797
0.003495695
0.00341673
0.003475321
0.003720964
0.004395786
0.006169671
0.008442689
0.01001169
0.01089519
0.01109399
0.01159936
0.01116438
0.01043948
0.009537053
0.006661243
0.006240105
0.005829876
0.005228797
0.004618896
0.003931825
0.003450571
0.003156116
0.003040035
0.003128831
0.003499977
0.004581309
0.006841592
0.009085736
0.0106279
0.01149721
0.01166405
0.01184771
0.01150376
0.01054075
0.005186464
0.004788113
0.004143376
0.003607554
0.003157271
0.002836832
0.002711491
0.002840428
0.003364538
0.004949419
0.007480337
0.009788425
0.01123062
0.01165383
0.01184615
0.01190291
0.00389932
0.003551536
0.003219751
0.002910842
0.002676142
0.002663466
0.002917816
0.003794215
0.005768516
0.008297972
0.01034191
0.01167868
0.01195125
0.01189582
0.002523876
0.002553337
0.002701811
0.003175953
0.004452556
0.006676599
0.009074404
0.01077908
0.002979517
0.003403592
0.004097926
0.005475021
0.006304583
0.006704266
0.003024409
0.003292652
0.003500484
0.003582535
0.003654512
0.004683896
0.005871677
0.00685211
0.007816884
0.008661999
0.009034846
0.00889942
0.008549491
0.008105326
0.002383398
0.002806428
0.003377608
0.003846825
0.004069929
0.004349763
0.004580804
0.006973647
0.01033981
0.008080129
0.008575132
0.009195097
0.009629622
0.01002627
0.009850902
0.009674691
0.009018033
0.008369749
0.002555311
0.002888789
0.003487881
0.004558072
0.00465642
0.004634452
0.004747764
0.005199019
0.007648833
0.01235426
0.009997522
0.009722773
0.01019718
0.01049343
0.01060329
0.01039046
0.0101418
0.009987914
0.009434077
0.008560991
0.002962212
0.003019027
0.00349426
0.004930675
0.005377358
0.005611169
0.005732081
0.005975366
0.006726288
0.009555013
0.01430835
0.01182363
0.01088046
0.01119613
0.01143924
0.01145669
0.01122646
0.01086215
0.01054272
0.01025185
0.009644536
0.008866417
0.003546612
0.003297078
0.003928358
0.004708597
0.005645121
0.006459274
0.00677931
0.006894356
0.007162543
0.008305857
0.01197181
0.016226
0.01311788
0.01189146
0.01197218
0.01211293
0.01207184
0.01182912
0.01145158
0.01097081
0.01051406
0.01000196
0.009845628
0.009032852
0.004193329
0.003734806
0.003648055
0.004395621
0.005854053
0.007436073
0.008257159
0.008326153
0.008211367
0.008548233
0.01069896
0.01448799
0.01605249
0.01364332
0.01254381
0.01239977
0.01245438
0.0123798
0.01214707
0.01181134
0.01141754
0.011
0.01051759
0.01016579
0.009939575
0.00908632
0.0047484
0.00427135
0.003801073
0.00398789
0.005264747
0.007409023
0.009521814
0.01014698
0.009881051
0.01010178
0.01164326
0.01218146
0.01392358
0.01470597
0.01351023
0.01278481
0.01253349
0.01247888
0.01241886
0.01225382
0.01200574
0.01170847
0.01138135
0.01101574
0.01057278
0.01013091
0.009866734
0.008953454
0.005113108
0.004814971
0.004420409
0.004188326
0.004769526
0.006506254
0.009619926
0.01230531
0.01199914
0.01082465
0.01029494
0.01002299
0.01105805
0.01259835
0.01341361
0.01307718
0.01270208
0.01250347
0.01237796
0.01230708
0.01224987
0.0121335
0.01196161
0.01173937
0.01145895
0.01109087
0.0106091
0.01032983
0.009623841
0.008791788
0.005126993
0.004912148
0.004484525
0.004424852
0.005323539
0.007632191
0.01293523
0.01561375
0.0113005
0.008520369
0.00795575
0.008861715
0.01027422
0.01167169
0.01249812
0.01257744
0.01245456
0.0123748
0.01233983
0.0123147
0.01225644
0.01222796
0.01219141
0.01208374
0.01187888
0.01152676
0.01097691
0.01046484
0.009819062
0.008902251
0.00497762
0.005195866
0.004821885
0.004504804
0.004551722
0.005735423
0.009233932
0.0189276
0.01479187
0.008996255
0.007545603
0.007850868
0.00888239
0.01018981
0.01135968
0.01205943
0.01225241
0.01226364
0.01230016
0.01238382
0.01247799
0.01253871
0.01254719
0.01246411
0.01235478
0.01222137
0.01190831
0.01134517
0.01058556
0.009685069
0.009071439
0.007811725
0.005090801
0.005235242
0.004928483
0.004671496
0.004672045
0.005935126
0.01321748
0.02295647
0.0128672
0.009323012
0.008737566
0.009181705
0.01014043
0.01127151
0.01223741
0.01282075
0.01304802
0.01312775
0.01320565
0.01328783
0.01333634
0.01334139
0.01330633
0.01323795
0.01312886
0.01287491
0.01233062
0.01169982
0.01072118
0.009485655
0.008577697
0.007268044
0.005331744
0.005438196
0.005168932
0.00492864
0.004858121
0.005663802
0.01203294
0.02614992
0.0171957
0.01252984
0.01178159
0.01230575
0.01339849
0.01459319
0.0155317
0.01614451
0.01654137
0.01689171
0.01728142
0.01768866
0.01794405
0.017789
0.01717811
0.01643252
0.01593893
0.01533014
0.01450392
0.01336197
0.01169784
0.009749418
0.007972835
0.006375737
0.005617924
0.005448606
0.005316502
0.005158306
0.005045847
0.005497333
0.009300184
0.02171121
0.02295335
0.01574487
0.01261491
0.01174537
0.01182099
0.01197182
0.01211093
0.01232178
0.01271697
0.01335226
0.01426304
0.01549032
0.01699034
0.01848335
0.01952012
0.01977437
0.01924297
0.01880673
0.01759616
0.01516681
0.01302966
0.01107907
0.00948259
0.006370942
0.005103681
0.005744165
0.005626902
0.005602225
0.005466742
0.005311369
0.005474354
0.007480151
0.01486968
0.02112913
0.02065824
0.0160305
0.01219764
0.01036437
0.009347203
0.008493659
0.008097426
0.008239236
0.008779415
0.009622843
0.01076029
0.01217849
0.01356864
0.01456844
0.01499467
0.01512813
0.01519352
0.01460227
0.01278822
0.01208248
0.01094611
0.00867489
0.006917508
0.006158838
0.005149774
0.005641821
0.005740072
0.005853636
0.005808599
0.00566928
0.005647841
0.006556906
0.01032299
0.01528856
0.01792445
0.01798561
0.01705987
0.01274052
0.01042652
0.008472643
0.007090385
0.006638153
0.006812595
0.007437514
0.008447671
0.009860262
0.01127731
0.01226522
0.01264562
0.01260277
0.01239288
0.0115095
0.009884272
0.01008513
0.009918196
0.00787979
0.006798828
0.005951854
0.005158954
0.005608322
0.005809677
0.006048216
0.006129892
0.006072601
0.005983799
0.006267699
0.007923614
0.01075764
0.0131097
0.01409185
0.01393447
0.01334446
0.01184488
0.009870776
0.007681709
0.006503752
0.006152635
0.006445287
0.007277406
0.008696191
0.01016807
0.01114952
0.01153941
0.01142922
0.01108848
0.01025568
0.008921651
0.008799694
0.008004749
0.005990118
0.005341558
0.004845321
0.005155936
0.005577643
0.005827219
0.006163429
0.006377213
0.0064452
0.006392834
0.006414399
0.006969149
0.008232129
0.00956878
0.01032642
0.01029847
0.009783914
0.009483929
0.009190714
0.008314697
0.00709388
0.006266493
0.006156252
0.006757371
0.008197241
0.009759403
0.01071617
0.01103045
0.01083124
0.01032291
0.009516308
0.008392585
0.007892169
0.006646239
0.004921992
0.00419731
0.003660739
0.005103791
0.005504971
0.00576639
0.00616585
0.006489907
0.006690963
0.006739208
0.006713695
0.006804848
0.00721705
0.007744087
0.008074234
0.008057436
0.00784108
0.007820489
0.007898178
0.007708019
0.007199139
0.006626047
0.006304882
0.00664401
0.008093481
0.009774187
0.01069217
0.01093423
0.01066667
0.01004659
0.009169752
0.008094664
0.00719941
0.005820272
0.004555422
0.003876917
0.003220978
0.005246546
0.005615123
0.005677125
0.006017971
0.006377536
0.006669239
0.006829157
0.006868499
0.006864085
0.006939807
0.007074216
0.007114303
0.007030389
0.006916056
0.00694174
0.0070527
0.007072366
0.006964607
0.006764317
0.006579972
0.006818986
0.008234987
0.0100536
0.01090047
0.01106957
0.01075722
0.0100876
0.009139331
0.007975977
0.00678688
0.00541127
0.004441837
0.003771803
0.003212746
0.00620242
0.005992807
0.005961926
0.006182416
0.006421893
0.006601165
0.006694105
0.006716627
0.00674541
0.006774153
0.006712349
0.00657502
0.00643732
0.006389069
0.006424563
0.006512056
0.006645191
0.006740695
0.00678287
0.007124063
0.008580627
0.0104672
0.01122674
0.01133872
0.01099826
0.01032013
0.009323765
0.008060554
0.006687277
0.005305214
0.004457877
0.00381602
0.006812548
0.006760973
0.006580684
0.00658288
0.006593431
0.006592552
0.006578563
0.006557187
0.006567384
0.006572804
0.006484272
0.006307444
0.006120428
0.00598934
0.005960241
0.006082523
0.006349352
0.006631924
0.006889453
0.007437812
0.009074087
0.01091871
0.0116364
0.01175525
0.01140755
0.0107061
0.009663727
0.008320074
0.006845232
0.005367962
0.004626545
0.003889136
0.007508851
0.007474116
0.007181787
0.007081133
0.006959038
0.006781516
0.006560097
0.006341736
0.006216851
0.006146479
0.00603821
0.005881333
0.005711047
0.00557839
0.005559042
0.005729673
0.006071552
0.006466639
0.006919414
0.007743281
0.009631396
0.0113842
0.01206895
0.01214972
0.01179689
0.01107539
0.01000297
0.008617247
0.007115156
0.005554829
0.004693406
0.003889075
0.007893056
0.008099819
0.007865142
0.007667396
0.007581573
0.007363357
0.007009264
0.006579125
0.006166778
0.00586137
0.005597802
0.005366607
0.005184505
0.005087923
0.005134811
0.005374
0.005767962
0.006253929
0.006911443
0.008074959
0.0101932
0.01187194
0.01241287
0.01244792
0.01207646
0.01132325
0.01023516
0.008816052
0.007362127
0.005783749
0.004800992
0.003811743
0.008818264
0.008898826
0.008687598
0.008441371
0.008239312
0.007863293
0.007344919
0.006734962
0.006149739
0.005656827
0.005242838
0.004936185
0.004774222
0.004800775
0.005036605
0.005445618
0.006037385
0.006931324
0.008492096
0.01079343
0.01224795
0.01266571
0.01264774
0.01223113
0.01141659
0.01031009
0.008837924
0.007496383
0.006102921
0.004727223
0.008743869
0.009033741
0.009197887
0.008906647
0.008691457
0.008330518
0.007817408
0.007165031
0.006411792
0.00573932
0.00516476
0.004731363
0.004488184
0.004475561
0.004694536
0.00514697
0.005896506
0.007063371
0.00905706
0.01142682
0.01257349
0.01286323
0.01278695
0.01231121
0.01141396
0.01027923
0.008799058
0.007800389
0.006165047
0.004619862
0.008916472
0.009242939
0.008846782
0.008575857
0.008308966
0.007872431
0.007275651
0.006527382
0.005740621
0.005075636
0.004557508
0.004253421
0.00420523
0.004428271
0.004959125
0.005887352
0.007387052
0.009771163
0.01196453
0.01286175
0.0130212
0.01289748
0.01238219
0.01137939
0.0102438
0.008914138
0.007874637
0.005974987
0.008656336
0.008956212
0.008454985
0.008048971
0.007635357
0.007094824
0.006410381
0.005629072
0.004939012
0.004408171
0.004084628
0.004025433
0.004270677
0.004875196
0.006017486
0.007948457
0.01053254
0.01241247
0.01307028
0.01311416
0.01297218
0.01245623
0.01133341
0.01038291
0.009453812
0.007741047
0.007965767
0.008150815
0.007474601
0.007024379
0.006563793
0.006004503
0.005326839
0.004661474
0.004164232
0.003864277
0.003835953
0.004124691
0.004817991
0.006295722
0.008653605
0.01117359
0.0127158
0.01315174
0.0130936
0.01295643
0.01253486
0.01148682
0.01093708
0.009262155
0.00688066
0.006910896
0.006579859
0.005981073
0.005425849
0.004813293
0.004226072
0.003768745
0.003549342
0.00359612
0.003954289
0.004885636
0.006785072
0.009361464
0.0115814
0.01284907
0.01311382
0.01294649
0.0130765
0.01286477
0.01207473
0.01069918
0.005515157
0.005496959
0.005149391
0.004551515
0.004044265
0.003649817
0.003342324
0.003236199
0.003368767
0.003865905
0.005168858
0.007404107
0.009944792
0.01176698
0.01288364
0.01302905
0.01297667
0.01336667
0.01272368
0.0117701
0.004295255
0.004124489
0.003937135
0.003528004
0.003220365
0.003006504
0.002995799
0.003191639
0.003919275
0.005561656
0.008027953
0.01041656
0.0121115
0.01317953
0.01328307
0.01327858
0.01318306
0.01237104
0.002932902
0.002831429
0.002763125
0.00279819
0.002833334
0.003053853
0.004012117
0.006018781
0.008679019
0.01106179
0.01265006
0.01296887
0.01290468
0.01256542
0.002457056
0.0031192
0.004416122
0.006568866
0.008972384
0.01077486
0.001841537
0.00208191
0.002958415
0.003931644
0.004397797
0.005355149
0.006004599
0.006392581
0.006565978
0.006446813
0.00140733
0.001487469
0.001903151
0.002326751
0.002692405
0.003453227
0.004961414
0.005870585
0.006312458
0.007055998
0.007763272
0.008421928
0.008710534
0.00852713
0.007779185
0.00698679
0.001827022
0.001910126
0.002491744
0.002853578
0.003109472
0.003367286
0.003941368
0.00660895
0.008273383
0.008156547
0.008801119
0.009449455
0.009907384
0.009852188
0.009516081
0.009024037
0.008856081
0.007856906
0.002983766
0.002441931
0.002346761
0.002671681
0.003287366
0.003890465
0.004308212
0.004692235
0.005225328
0.007940243
0.01162673
0.01044744
0.01063218
0.0112943
0.01172423
0.01168153
0.01129607
0.01053809
0.009852743
0.009040273
0.008157496
0.00719272
0.004136044
0.003284095
0.002783711
0.00303534
0.003907504
0.005020087
0.005589515
0.005789735
0.00596851
0.006413712
0.008736315
0.01377345
0.0130008
0.01251244
0.01288047
0.01324241
0.01319072
0.01278823
0.01207393
0.01117046
0.009992424
0.00896601
0.008453485
0.007532143
0.004927494
0.004236905
0.00346676
0.003361351
0.004134917
0.005653305
0.006816818
0.007316096
0.00743566
0.007589257
0.008294093
0.01059806
0.01555231
0.01556365
0.01430909
0.01418686
0.01434266
0.01420363
0.01375123
0.01307036
0.01223425
0.01121666
0.01006754
0.0091605
0.008575894
0.007491501
0.00533958
0.005000391
0.004220289
0.003754531
0.004121434
0.005561553
0.007347806
0.008538843
0.008936003
0.008888636
0.008890936
0.009666163
0.01231103
0.01740699
0.01742557
0.01572911
0.01521443
0.01502301
0.01473518
0.01421022
0.01355343
0.0128617
0.01213101
0.01127805
0.01020513
0.009277791
0.008637268
0.007697439
0.005462394
0.005497757
0.004902721
0.004311187
0.004172255
0.005014557
0.007070287
0.009215835
0.01038113
0.01055461
0.01025769
0.01013545
0.01130508
0.01458953
0.01861099
0.01793924
0.01654939
0.01586617
0.01532982
0.01490687
0.01434148
0.01371184
0.01313214
0.01263201
0.01211378
0.01138238
0.01034274
0.00939449
0.008812668
0.007882781
0.00573381
0.005392547