/*--------------------------------*- C++ -*----------------------------------*\
  =========                 |
  \\      /  F ield         | OpenFOAM: The Open Source CFD Toolbox
   \\    /   O peration     | Website:  https://openfoam.org
    \\  /    A nd           | Version:  6
     \\/     M anipulation  |
\*---------------------------------------------------------------------------*/
FoamFile
{
    version     2.0;
    format      ascii;
    class       volScalarField;
    location    "49.8";
    object      p;
}
// * * * * * * * * * * * * * * * * * * * * * * * * * * * * * * * * * * * * * //

dimensions      [1 -1 -2 0 0 0 0];

internalField   nonuniform List<scalar> 
203709
(
122879.8
122959.2
123026.8
123060.5
122716.9
122802.1
122903.8
123008
123091.1
123157.2
123211.4
123234.5
122782.3
122736.8
122750.6
122828.6
122929.7
123036.9
123135.3
123224.2
123302.1
123363.4
123421.9
123434.4
122934.9
122795.1
122733.2
122752.2
122830
122942.5
123060.9
123172.3
123274.5
123369.3
123455.3
123531.9
123578.8
123587
122876.6
122720.6
122656.3
122675.3
122761
122887.9
123025.6
123157.3
123277.4
123385.5
123482.6
123571
123640.7
123670.2
122897.1
122737.3
122557.7
122479.8
122503.6
122609
122756.8
122920.7
123079.6
123222.6
123346.5
123453.1
123543.9
123616.6
123671.2
123692.4
122768
122542.4
122351.6
122264
122303.5
122431.7
122603.2
122791.7
122974.7
123136
123272.3
123385.5
123477.5
123547
123592.8
123619.6
122823.1
122704.6
122448.2
122253.8
122167.4
122197.5
122323.8
122495.8
122679.8
122869.3
123043.9
123187.8
123303.4
123394
123458.6
123497.2
123517.2
123505.6
122837.5
122704.3
122500.8
122322.4
122233.8
122259.3
122370.3
122508.3
122647.5
122809.1
122974.4
123113.6
123225.5
123309.8
123367.5
123398.6
123409.5
123410.4
122870.4
122771.3
122624.6
122492
122426.3
122442
122507.4
122599.3
122693.6
122809
122942.6
123065.5
123166
123238.8
123286.3
123308.4
123314.9
123316.7
122907.2
122851.2
122751.4
122661.4
122613.1
122619.9
122662
122722.1
122785
122858.4
122955.1
123054.5
123136.1
123191.8
123225.5
123237.1
123235.4
123230.3
122897.5
122856.6
122801.6
122768
122771
122801.2
122840.5
122881.5
122932
123001.5
123077.4
123136.8
123173
123189.7
123187
123177.9
122945.5
122941.6
122910.1
122889.3
122892.9
122917.7
122949.6
122982.6
123021.7
123071.7
123123.9
123162.9
123178
123175.8
123157.2
123143.2
122982.3
122990.1
122982.9
122989
123012.8
123042.5
123074.4
123108.2
123149.4
123186.7
123209.6
123205.6
123186.5
123159.9
123011
123043.8
123051.3
123067.5
123094.7
123127.3
123162.8
123195.9
123230.1
123256.6
123264.8
123239.4
123203.3
123164.8
123052.2
123085
123126.7
123162.6
123202.7
123240.5
123273.2
123302.7
123315.7
123303.3
123245.1
123223
123141.7
123196.4
123261.1
123302.2
123334.4
123354.2
123337.6
123313.5
123276.6
123326.6
123361.5
123374.1
122651
122688
122778.5
122880.3
122936
122940.8
122935.6
122931.4
122936.1
122952.8
122728.5
122599.5
122560.6
122616.7
122726.5
122850.1
122930.2
122960.2
122971.3
122975.2
122982.1
122993.7
123034.3
123079.8
122891.7
122718
122563.8
122510.8
122563.6
122690.7
122828.6
122922.4
122976.1
123010.3
123030.7
123048.7
123072.3
123096.6
123123.4
123188.7
123136.2
122959.5
122749.6
122586.8
122532.5
122590
122703.7
122854.1
122947
123013.9
123068.1
123094.8
123133.6
123164.3
123190.5
123218.8
123247.4
123304
123342.7
123228.6
123030.8
122821.9
122671.9
122605.3
122666.5
122762.8
122868.3
122970.4
123053.1
123134.2
123187.3
123240.6
123266.6
123310.2
123338
123361.6
123378
123413
123432.9
123404.8
123277.3
123089.3
122899.5
122742.7
122685.8
122706
122787.3
122892.4
123001.4
123098.6
123185.9
123263.6
123342.1
123397.7
123449.6
123469.7
123491.9
123505
123504.1
123514.6
123458.2
123411.9
123290.7
123103.4
122920.6
122772.2
122695
122707.9
122793.2
122910.6
123035
123151.9
123256.8
123350
123434
123506.8
123571.8
123618.4
123620.2
123633.6
123634
123606
123336.4
123424.1
123400
123265.4
123078.8
122882.5
122704
122629.4
122645.6
122734.7
122862.7
123003.8
123141.4
123267.7
123380.1
123479.5
123567.4
123642.5
123707.5
123735.6
123749.3
123744.7
123713.5
123699.4
123288.2
123328.3
123304.3
123175.5
122965.8
122775.5
122562
122470.5
122488.3
122591
122736.2
122896.6
123056
123202.7
123331.7
123443.4
123539.1
123619.5
123690.4
123725.9
123744.8
123750.8
123740.5
123724.1
123224.2
123224.2
123172.1
123042.4
122847.1
122578.9
122363.4
122264.8
122295.5
122414.3
122576
122754.5
122934.6
123101
123243.6
123362.2
123459.6
123536.3
123592.1
123628.1
123646.6
123655.3
123654.8
123646
123177
123150.7
123074.3
122917.9
122749.2
122462.4
122251.8
122162.6
122185.4
122301.3
122465.7
122640.2
122821.1
122996.9
123147
123268.1
123363.1
123433.4
123481.9
123519.1
123519.6
123531.5
123523.8
123514.5
123151.9
123111.1
123033.6
122905.2
122719.6
122496.2
122306.5
122209.2
122226.7
122336.5
122474.2
122606.7
122754.2
122918.8
123064.6
123180.9
123268.9
123330.7
123369.2
123389.7
123396.5
123391.6
123376.6
123360.9
123144
123099.5
123026.1
122921.8
122772.5
122607.6
122463.5
122388.2
122397.6
122467.4
122562.2
122654.9
122760.3
122887.9
123014.7
123117.2
123192.3
123241.7
123267.8
123278.6
123285.4
123260.4
123231.6
123207.5
123146.1
123105.7
123038.6
122954.1
122859.3
122727.7
122625.8
122571.3
122574.4
122620.7
122685.6
122748.5
122815.9
122905.9
123006
123087.1
123143.1
123175.9
123188.9
123193.5
123189.8
123145.3
123102.9
123069.8
123153.9
123120.1
123060.6
122996.2
122921.6
122832.8
122763.8
122726.7
122729.2
122761.9
122806.8
122850.6
122897.9
122960.9
123033.2
123090.9
123124.4
123137.5
123136.1
123131.1
123092.3
123054.3
123000.3
122959.6
123161
123136.7
123087.2
123032
122978.5
122934.4
122874.1
122849.2
122854.4
122881.5
122917.5
122953.3
122991.7
123038.2
123087.1
123121.3
123131.7
123125.7
123115.1
123096.4
123041.1
122988.6
122932.4
122887.5
123148.9
123142
123108.5
123065.9
123024.4
122995.3
122960.7
122946.5
122955.1
122981.5
123015.6
123051.1
123087.5
123125
123156.3
123169.6
123159.6
123136.1
123110.6
123062
123016.6
122960.5
122900.3
122852.5
123123.7
123117.6
123090.9
123060.9
123040.9
123033.4
123021
123035.9
123065.6
123103.3
123143.4
123181.1
123211.9
123229.7
123227.2
123201.8
123168.1
123126.9
123065.8
123009.6
122955.5
122912.9
123120.1
123112.5
123100.6
123081.6
123070.1
123076
123084.6
123113.6
123138.8
123181.4
123225.3
123264
123289.8
123299
123295.2
123257.8
123204.9
123136.9
123081.2
123027.3
122979.5
122944.6
123083.3
123090.5
123089.3
123088.1
123096.3
123121.3
123162.4
123202.2
123254.3
123292.4
123330.8
123361.3
123368.5
123354.1
123292.8
123223.9
123163.8
123108.3
123062.2
123032.4
123068.4
123086.9
123100.3
123116
123146.8
123185.5
123237.4
123295.6
123344.2
123385.8
123415.2
123414.9
123380.7
123320.4
123252.2
123194
123146.5
123125.1
123070.2
123099.8
123127.1
123165.3
123209.9
123265.8
123322.1
123378
123420.9
123448.2
123448.3
123410.8
123342.8
123280.7
123226.3
123206.7
123088.3
123121.3
123174
123226.4
123283.3
123343.6
123400.7
123444.9
123471.2
123468.2
123421.4
123353.5
123305.1
123290
123166.5
123222.7
123283.2
123343.5
123397.5
123436.6
123456.2
123444.1
123410.4
123387.6
122884.1
122930.5
122984.5
122969.1
122892
122829.8
122799.9
122800.5
122893.4
122861.9
122839
122863.9
122913.7
122988
122999.3
122933
122866.9
122829.7
122816
122832.4
122865.2
122921.6
122926.8
122878.1
122808.9
122776
122799.3
122865.9
122957.3
122992.5
122941.3
122891.4
122860.8
122850.9
122858.8
122876.1
122914.3
123009
123050.4
123016.4
122939
122837.3
122744.3
122683.7
122710.9
122796.2
122899.7
122954.7
122937.6
122914.3
122896.9
122891.3
122901.2
122907.5
122947.8
123001.8
123104.3
123209.3
123115.5
123098.2
123042.6
122942.1
122784.2
122641.7
122584.6
122611.3
122712.8
122829.6
122901.6
122919.6
122921.6
122920.2
122923.8
122942.1
122964.4
123003.3
123041.8
123105.5
123178.5
123324.4
123184.6
123180
123167.1
123099.1
122951.9
122761.9
122580.2
122507.8
122532.4
122635.2
122773.9
122870
122918.4
122944.9
122962.1
122978.4
122999
123023.4
123062.2
123108.7
123149.9
123209.9
123288.2
123439.9
123230.2
123256.7
123250.3
123173.8
122998.1
122779.2
122598.3
122500.8
122525.2
122631.3
122768.1
122873
122941
122987.9
123020.3
123052
123081.2
123109.8
123142.6
123184.6
123231.3
123267.8
123327.2
123411.5
123265
123284.1
123335.9
123353.4
123259.6
123067.1
122843.5
122663.3
122572.1
122585.8
122675.5
122795.7
122903.8
122985.1
123049.9
123099.2
123144.8
123181.6
123219.1
123252.3
123284.2
123320.8
123360.9
123384.7
123415.3
123508.8
123288
123285.2
123344.7
123427.5
123418.8
123318.1
123125.9
122912.4
122730.5
122636.8
122642.7
122722.6
122834.4
122946
123041.6
123122.5
123190.9
123252.7
123302.9
123349.2
123383.9
123412.1
123435.8
123461
123489.8
123483.6
123489.2
123531.1
123285.5
123297.5
123350
123450.7
123440.1
123348.8
123150.2
122932.7
122756.5
122664.5
122666.4
122744.8
122861.6
122986.5
123103.2
123206.7
123296.1
123372.9
123436
123488.9
123530.1
123553.2
123570
123579.9
123592.2
123578.7
123556.9
123539.5
123276.4
123285.4
123327.2
123397.4
123412.2
123331.1
123130.3
122904.1
122716.5
122620.1
122621.7
122701.6
122823.9
122961.7
123098.5
123226
123340.7
123442.1
123529.8
123603.4
123662.4
123694.3
123708.1
123705.1
123700.4
123704.6
123635.8
123577.4
123301.7
123259.2
123255.7
123273
123286.8
123292.9
123221
123028.2
122787.8
122581.3
122469.8
122470.1
122560
122697.9
122853.1
123010.6
123159.6
123293
123409.7
123510
123593.3
123659.6
123704.8
123734.9
123745.4
123741.2
123731.8
123669.8
123600.8
123526.4
123281.5
123246.5
123226.4
123218.6
123189.7
123151.6
123054
122869.7
122616.1
122380.3
122256.6
122272.6
122375.3
122528.1
122700.7
122878.7
123048.8
123197.9
123323
123425.2
123504.7
123563.4
123603.3
123630.5
123647.7
123654.5
123652
123618.7
123564.1
123495.2
123278.8
123238.7
123203.9
123175.3
123120
123050.8
122929.9
122744
122481.8
122252.5
122145.4
122148.1
122246.7
122406.2
122577.8
122756.3
122935.2
123093
123221.8
123322.2
123395.2
123444.7
123476.9
123491.5
123502.5
123503.6
123503.7
123477
123435.2
123381.6
123281
123235.3
123191.5
123150.1
123081.6
123002.1
122882.5
122709.6
122493.9
122295.4
122179.2
122173.4
122272.6
122407.3
122540
122684.8
122849.6
123003
123127.5
123221
123284.5
123322.7
123342.4
123348.2
123348.3
123340.3
123332.6
123295.9
123251.6
123204.4
123283.3
123237.5
123189.3
123141.7
123069
122990.5
122887
122747.8
122586.8
122438.3
122347.8
122342.8
122406.2
122498.3
122591
122694.7
122819.4
122949.9
123059.6
123139
123188.8
123213
123219.1
123215.3
123202.1
123182
123164.2
123113.1
123057.4
123004.1
123289.8
123245.6
123195.2
123145.4
123073.5
123000.7
122915.2
122811.9
122694.5
122591.1
122528.1
122522.7
122564.8
122628
122691.5
122758.5
122843.9
122943.9
123029.2
123087
123118.4
123126.8
123119.7
123102.4
123076
123043.4
123014.7
122948.5
122879.2
122814.5
123300.6
123257.4
123207.2
123157.7
123088
123022.4
122951.8
122875.4
122791.9
122722.1
122682
122680.2
122710.2
122755.3
122801
122848.5
122908.1
122977.2
123035.9
123067.7
123077.3
123068.7
123047.4
123014
122978.6
122935.9
122898.9
122821.5
122742
122668.6
123307.1
123261.7
123219.2
123173
123108
123048.2
122989.4
122931.2
122874.6
122826.2
122802.9
122807
122833.1
122870.5
122909.2
122948.5
122992.7
123038.2
123070.3
123075.7
123063.4
123038.4
123003.7
122960.7
122915.2
122867.2
122827.1
122745.8
122657.9
122579.8
123251.7
123225.6
123180.5
123132
123069.8
123021.4
122976.5
122938.6
122907.9
122897.5
122908.5
122936.2
122973
123011.9
123049.9
123085.1
123112.1
123120.1
123102.4
123070.1
123030.2
122983.3
122937.2
122888.4
122843
122800.2
122724.7
122658.1
123267.4
123224
123174.1
123135.4
123083.2
123044.1
123010.9
122985.4
122970.1
122969.3
122988.8
123021.9
123063.4
123106.9
123146.2
123174.7
123186.8
123175.1
123140.1
123092.1
123040.8
122988.2
122938.1
122891.3
122852.2
122795.9
122746.6
122701.1
123284.2
123214.6
123166.2
123130.4
123093.2
123054.4
123030.3
123015.7
123014.7
123025.4
123054
123092
123140.1
123188.7
123229.6
123252.6
123255
123232.1
123184
123121.4
123061.2
123008.5
122961.5
122925.5
122888.8
122840.1
122798.9
122765.6
123222.9
123159.1
123117.4
123089.8
123066.5
123043.1
123037.3
123044.8
123066.6
123104.1
123149.7
123204.1
123254.6
123296.3
123318.2
123317.7
123284.8
123220.3
123151
123091.5
123041.3
123005.2
122968.8
122929.4
122900.8
122876.4
123154.1
123112.2
123079.9
123066.7
123060
123055
123068.6
123098.8
123141.4
123194.6
123254.1
123308.2
123350.3
123371
123364.8
123323.3
123251.4
123181.8
123127
123088.9
123052.8
123012.6
122987.5
122979.3
123170.4
123105.9
123076
123061
123066
123076
123089.3
123124.5
123172.3
123230.8
123292.3
123348.4
123389.9
123410.2
123402.4
123352.3
123278.2
123215.7
123173.6
123138.7
123100.3
123073.3
123056.5
123054
123112.2
123074.9
123061.5
123065
123088.6
123111.9
123153.5
123199.8
123259.9
123322.9
123379.6
123422.2
123444.4
123431.3
123375.5
123315.6
123266.2
123227.9
123190.4
123170.4
123149.5
123153
123080.7
123061.5
123067.1
123086.9
123120.2
123172.5
123225.8
123288.2
123352.4
123410.7
123456.8
123479.4
123459.2
123408.3
123357.3
123306.7
123280.9
123268.7
123261.2
123267.3
123067.8
123088.7
123125.7
123173.1
123234.5
123298.4
123362.9
123422.7
123468.4
123481
123456.2
123418.7
123394.2
123373
123360.1
123398.2
123092
123124.2
123172.5
123240.3
123307
123371.9
123432
123471.5
123479
123462.6
123436.3
123438
123459.4
123502.7
123242.2
123303.7
123366.5
123418.2
123448
123461.5
123478
123524.8
122872.9
122891.1
122851.8
122780
122746.8
122746.3
122863.3
122849.3
122847.5
122862.6
122899.6
122935.2
122903.2
122822
122769.5
122748.1
122759.6
122786.4
122824.3
122872.3
122962.6
122912.7
122872.3
122844.8
122840.3
122870.1
122917.7
122971.7
122954
122870.2
122804.2
122772.7
122768.6
122774.6
122805.6
122849.6
122915.8
123001
123016.9
122970.5
122926.1
122887.9
122848.9
122828.8
122846.2
122896.9
122971.4
122979.8
122900.7
122821.2
122778.5
122770.4
122778.9
122805.2
122846.8
122899
122977.2
123109.7
123068.2
123028.3
122988.9
122944.4
122879.1
122806.3
122775
122792.3
122852.6
122940.1
122967.4
122907.3
122833.9
122791
122774.5
122778
122801.2
122847.5
122901.9
122971.1
123078.8
123240.9
123126.9
123083.8
123058.6
123016.8
122951.3
122850.1
122760.4
122708.3
122718.7
122784.8
122880.8
122928.8
122894.2
122844.5
122812.9
122798.8
122800.3
122817.9
122857.1
122918.6
122988
123075.6
123195.8
123382.7
123188
123137.1
123114.7
123086.4
123033.8
122950.2
122823
122690.9
122611.4
122610.2
122686.7
122795.2
122865.8
122870.2
122854.2
122841
122836.7
122843.4
122860.7
122891.5
122937.9
123003.3
123088.7
123184.2
123315.7
123507.4
123243.9
123186.1
123166.7
123151.7
123132.8
123081.9
122969.2
122798.5
122621
122516.2
122514.3
122589.1
122715.8
122817.9
122861.7
122876.5
122883.8
122891.8
122904.9
122924.4
122952.1
122987.7
123039.4
123111.5
123199.1
123298.5
123413.6
123588.5
123280.4
123226.8
123200.1
123199.4
123200.2
123197.1
123144.6
123007.7
122803.9
122614.3
122491.5
122472.3
122562.5
122697.8
122812.3
122879.7
122917.6
122943.1
122964.9
122985.9
123008.7
123034.8
123065.5
123103.2
123155.4
123224.1
123307.4
123386.5
123477.4
123608.3
123265.8
123232.9
123224.9
123233
123254.7
123270.3
123222.9
123077.5
122859.6
122652.5
122536.6
122520.8
122602
122726.7
122841.3
122922.5
122978.7
123020.6
123055.8
123086.4
123114.7
123141.1
123167
123195.4
123230.1
123275.7
123334.9
123392.2
123444.8
123517.1
123305.6
123256.8
123241.2
123238.3
123258.3
123305.7
123336.4
123302.8
123136.5
122910.3
122711.9
122594.2
122581.2
122652.9
122766.6
122881
122975.4
123051.1
123113.1
123165.1
123207.2
123242.6
123270.5
123292.8
123312.4
123333.1
123359.1
123386.8
123417.9
123447
123449.7
123507
123292.9
123256.3
123239.9
123234.1
123259.5
123320.6
123384.8
123344.5
123153.3
122926.4
122734.7
122624
122610.6
122679
122792.8
122916.7
123030.9
123130
123214.1
123285.4
123342.8
123386.4
123416.8
123436.1
123449.1
123456.8
123465.9
123471.5
123473.5
123474.4
123444.1
123451.2
123292.8
123254.4
123233
123219.5
123234.3
123279.5
123348.4
123314.7
123134
122901
122703.6
122589
122573.7
122640.9
122755.6
122887.9
123020.4
123145.7
123259.1
123359
123444.3
123512
123559.8
123585.1
123592.9
123589.1
123583.3
123576.8
123553.3
123524.1
123470.5
123434.1
123293.6
123254.5
123223.6
123196.5
123190
123198.6
123219.4
123188.2
123024
122778.1
122572.3
122446.3
122427.7
122500.1
122627.3
122775
122928
123076.5
123212.6
123332
123433
123514.1
123575
123620.2
123652.3
123663.9
123658.2
123642.4
123614.6
123571.8
123526.1
123435.4
123344.6
123287.7
123249.7
123206.2
123171.4
123144.7
123118.8
123087.5
123013.2
122845.2
122609.3
122374.6
122230.1
122228.9
122311.6
122452.1
122616.5
122790
122961.1
123115.9
123247
123352.6
123432
123488.5
123528.1
123558.4
123581.9
123594.3
123596.4
123584.4
123544.8
123489.7
123389.4
123303.7
123336.2
123290
123248.8
123197.5
123152.5
123110.5
123061.3
122997.9
122894.1
122718.9
122474.1
122237.5
122113.4
122093.6
122171
122322.2
122488.6
122663.1
122842.1
123007
123144.1
123250.2
123324.7
123372.6
123401.9
123418.9
123432.7
123440.8
123445.6
123439.9
123415.8
123367.8
123284.1
123213.1
123346.9
123301.3
123254.2
123195.3
123142.8
123091.7
123030.6
122954.9
122846.7
122688
122479.9
122274.2
122139.3
122106.8
122191.4
122320
122451.6
122592.5
122753.8
122913.7
123047.3
123147.2
123212.9
123249.7
123266.9
123271.9
123272.4
123266.9
123260
123247.2
123220.6
123176.4
123108
123044.2
123362.8
123315.8
123264.1
123199.5
123142
123086.3
123021.7
122946.2
122848.9
122720
122562.7
122407.2
122299.9
122276.9
122329.2
122416.1
122508.5
122609
122730.2
122862.4
122979.1
123064.4
123116
123138.3
123141.2
123132.7
123118
123097.5
123076.3
123046.6
123005.8
122959.4
122882.9
122823.8
123384.1
123334.5
123280.2
123210.4
123148.6
123090.1
123025.8
122956.3
122874.4
122775.6
122662.6
122554
122478.9
122460.8
122494.4
122553.6
122617.2
122683.7
122765.6
122863.1
122953
123014.3
123046
123050.9
123038.3
123014.5
122984.9
122949.5
122913.5
122866.7
122810
122752.5
122659.4
122600.1
123407.9
123350.5
123301.3
123228.4
123161.2
123099.8
123036.7
122974.2
122906.9
122832.7
122753.4
122681.2
122633
122622.1
122645.8
122688.5
122735.3
122783.5
122840.6
122906.9
122966.6
122999.5
123007.6
122993.2
122965
122926.9
122884.2
122836.9
122788.7
122728.9
122662.2
122598
122477.2
122425.7
123361
123317.2
123252.2
123172.4
123109.5
123049.4
122993.2
122938.2
122883
122828.9
122782.9
122755
122752.2
122773.7
122810
122850.5
122891.3
122934.3
122977.3
123009
123013.7
122997.4
122965
122922.7
122874.4
122822.4
122767.6
122713
122649.8
122585
122525.3
122424.4
123386.7
123325.4
123255.9
123175.2
123112.2
123057
123006.2
122962.4
122922.5
122887
122859.9
122847.9
122854.8
122879.9
122917.1
122958.3
122998.1
123033.2
123058.6
123066
123045.6
123007.9
122960.7
122908.5
122854.7
122799.6
122743.7
122688.9
122634
122585.8
122515.6
122450.6
123434
123331.7
123254.7
123172.5
123106.6
123055.8
123010.7
122975.7
122948
122926.8
122915.3
122917.5
122935.5
122967.7
123010
123055.6
123096.8
123126.2
123137.5
123124.8
123083.9
123030.1
122972.6
122916
122861.4
122809.2
122758.9
122710.7
122673.4
122642.4
122591.1
122550.9
123494.4
123346.2
123257.2
123180.8
123103.9
123048.5
123008
122978.9
122960.2
122951.1
122953.4
122968.5
122997.7
123038.3
123087.7
123138.2
123180.4
123204.7
123205
123176.9
123120.6
123056.1
122993.2
122937
122886.3
122840.6
122799.8
122769.8
122752.8
122728.8
122703.6
122676.6
123378.5
123273.4
123182
123113.9
123044.8
123005.6
122982.1
122969.6
122969
122980.9
123006
123044.2
123093.1
123149.2
123203.2
123245.1
123265
123257.6
123217.8
123149.5
123080.2
123018.4
122966
122920.9
122881.9
122855.4
122851
122832.2
122823.5
122817.1
123441.1
123290.4
123187.9
123113.5
123047.4
123006.9
122986.2
122979.5
122984.2
123002.5
123035.2
123080.5
123135.8
123196.1
123251.8
123292
123307.9
123294.7
123245.1
123170.5
123102.5
123046.6
123000.4
122961.1
122934.1
122922.3
122922.7
122916.5
122922.3
122925.8
123349.3
123205.1
123116.3
123059.8
123016.4
122993.9
122990.7
123000.8
123022.6
123060.2
123110.8
123170.7
123233
123287.8
123325.3
123338.6
123319.9
123261
123186.9
123127.1
123079.9
123041.2
123014
123002.1
123003.6
123000.5
123006.7
123010.6
123236.3
123132
123067.9
123034.1
123008.8
123005.9
123019.4
123045.3
123086.2
123139
123201.2
123263.9
123317.4
123353.4
123364.6
123336.6
123273.9
123209
123159.8
123123.9
123099.9
123086.9
123088.4
123085.7
123095.3
123101.2
123149
123080.2
123045.8
123028.7
123031.1
123039.6
123067.9
123112.7
123168.1
123231.5
123294.3
123347.9
123385
123390.1
123353.5
123294.6
123241
123205.7
123190.7
123194
123187.5
123186
123200.6
123215
123092.8
123052.7
123037.5
123045.5
123064
123091.9
123136.8
123194.3
123258
123320.7
123375.1
123408
123404.8
123369.8
123325.9
123291.7
123277.4
123287.7
123292.6
123301
123319.6
123352
123061.6
123047.8
123052.3
123080.9
123116.4
123164.7
123222.8
123284.8
123347.8
123400.6
123427.6
123423.7
123401
123387.7
123376.4
123379.7
123396.8
123427.6
123447.4
123514.1
123055.7
123061.7
123085
123124.1
123175.3
123242.6
123310.1
123374
123425.4
123453.5
123457.1
123451.5
123462.1
123477
123503.4
123536.9
123584.1
123654.6
123094.3
123127.7
123179.7
123241.2
123313.9
123375.5
123424.9
123457.5
123476.6
123492
123545.7
123609.9
123688.8
123778.6
123311.4
123366.4
123418
123465.4
123527.1
123619.5
122844
122844.1
122845.7
122828.5
122772.1
122729.5
122728.1
122746.9
122778.6
122813.8
122942
122885.6
122849
122838.5
122846.4
122867.9
122872.8
122814.3
122749.9
122722.3
122722.4
122743.4
122777.5
122818.1
122859.7
122916.2
122984.2
122929.3
122875.7
122844.3
122837.1
122850.9
122875.5
122898.2
122853.1
122766.8
122717.5
122708.3
122720.9
122749.9
122783.2
122820.1
122877.1
122957.6
123127.3
123043.6
122971.6
122916.6
122868
122826.9
122814.8
122832.5
122869.1
122910
122885.9
122793.5
122724.9
122693.9
122691.4
122710.4
122744.6
122795.1
122849.5
122924.8
123031.3
123144.9
123171.4
123087.9
123020.4
122965.2
122907.2
122858
122815.6
122796.5
122809.6
122850.5
122906.9
122907.4
122820.9
122737.7
122694.4
122682.2
122693.4
122721.7
122762.9
122820.5
122905
122991.4
123108.6
123273.9
123222.4
123131.6
123064.7
123014.3
122959.2
122907.7
122849.9
122794.6
122763.7
122771.3
122816.2
122883.6
122902.9
122834.7
122751.5
122705.1
122686.5
122690.7
122713.4
122752.3
122805.9
122884.4
122984.5
123090.5
123235.8
123435.3
123258.8
123173.4
123106.6
123059.1
123011.7
122967.2
122914.1
122842
122765.9
122714.5
122712
122759.6
122837.9
122874.8
122830.6
122763.4
122724.7
122706.6
122706.4
122723.7
122759.2
122812.6
122885.7
122977.6
123091.1
123210.8
123370.5
123577.9
123285.1
123208.4
123146.4
123101.2
123058.3
123025
122988.8
122928.5
122830.8
122717.2
122632
122614
122666.3
122760.6
122822.9
122810.6
122775.3
122753.4
122742.8
122743.8
122757.9
122786.6
122832.8
122899.6
122986.3
123085.7
123205.2
123325.5
123480.3
123676.1
123241.6
123183.8
123140.7
123101.3
123076.9
123060
123029
122949.9
122812.9
122652.8
122534.6
122502.7
122562.4
122673.9
122765.9
122797.4
122797.9
122795.6
122796.4
122802.6
122816.3
122839.5
122874.9
122928.3
123003.7
123095.5
123194.2
123303.4
123413.8
123564.2
123282.7
123222.4
123179.7
123138.9
123116.3
123109.6
123109.1
123081.2
122982.6
122807.6
122613.7
122484.4
122443.2
122501.6
122633.8
122747.8
122810
122838.3
122854.6
122867.5
122881.1
122897
122917.2
122944.5
122983.2
123039.9
123114.9
123196.7
123282.4
123374.2
123460.3
123604.5
123297
123252.6
123213
123174.2
123147.2
123138
123148.3
123165.5
123148.5
123039.7
122846
122640.6
122493.5
122459.2
122526.8
122651.3
122768.1
122847
122896.2
122930.2
122956.4
122978.5
122998.5
123018.2
123039.9
123066.8
123104.4
123156.3
123216.3
123276.2
123340.6
123403.2
123468.4
123542.3
123284.4
123245.9
123212.1
123176.9
123157.6
123158.1
123184.8
123223.5
123225.2
123100.3
122884.6
122680.6
122545
122512.9
122574.1
122686.4
122801.3
122892.9
122962.6
123017.6
123061.1
123095
123121.4
123141.8
123158.3
123175.4
123197.2
123226.2
123261.7
123298.8
123335.1
123367.4
123399.4
123432.1
123285.3
123247.2
123206.2
123176
123158.9
123163.3
123201.1
123274.6
123273.1
123114.9
122892.2
122694.9
122570.2
122541.6
122599.2
122708.3
122829.5
122939.1
123031.5
123108.2
123172.5
123223.6
123260
123282.1
123294.7
123303.7
123311.2
123320.9
123333.2
123345.8
123354.3
123356.2
123367.2
123363
123325.2
123284.2
123249.1
123204.3
123171.4
123149.4
123146
123171.6
123238.8
123237.7
123091.6
122865.1
122665
122538.3
122507.6
122562
122668.7
122793.9
122920.2
123040.2
123149
123244.5
123324.6
123385.2
123423.6
123439.3
123439.4
123434.3
123428.9
123422.8
123412.6
123393.8
123372.5
123358.4
123317.7
123315.2
123326
123287
123248.2
123202.5
123165.2
123132.7
123112.2
123106.8
123120.4
123108.3
122972.5
122738.9
122536.2
122401.3
122366.4
122421.3
122537.1
122676
122822
122967.3
123103.4
123222.5
123321
123396.4
123450.7
123489.9
123514.5
123519.1
123509.9
123494.3
123473.4
123436.9
123401.9
123361.6
123305.4
123272.2
123336.3
123293.8
123252.4
123203.4
123157.2
123114
123076.3
123041.2
123004.8
122940.6
122789.2
122568.9
122341.7
122185.7
122168.4
122231.9
122359.2
122514
122680.9
122850
123007.5
123142.4
123249.2
123325.6
123376.2
123410.1
123436.4
123456.9
123468.4
123469.1
123458.1
123428.6
123389.7
123349.2
123302.5
123228.2
123349.8
123305.7
123253.6
123203.3
123150.8
123099.3
123049.2
122994.1
122928.1
122831.2
122667.3
122436.1
122200.5
122064.4
122024.9
122082.8
122223.7
122383.1
122552.3
122728.7
122897.5
123041
123151.2
123224.8
123267.7
123290.6
123303.1
123314.6
123323.1
123329
123331.1
123317.5
123283.6
123241.9
123202
123151
123370.4
123323
123263.8
123207.6
123149.1
123091.5
123034.1
122969.6
122892
122789.1
122638.2
122437.7
122230.4
122081.4
122027.9
122099.5
122219.9
122348.8
122485.2
122641.3
122803.8
122944.5
123050.3
123116.2
123148.4
123159
123158.1
123154.4
123148.2
123143.6
123138
123122.9
123097.7
123063
123032
123008.1
123395.8
123346
123280.1
123217
123152.1
123089.8
123029.1
122962.8
122885.8
122791.7
122668.2
122513.7
122354.8
122236.2
122198.1
122239.5
122320.7
122412.1
122509.1
122626.3
122757.6
122879.1
122969.8
123021.6
123038.8
123034.4
123018
122997.1
122973.6
122951.3
122928.2
122898.7
122863.2
122827.7
122800.4
122796.2
123424.6
123373.9
123303.5
123232.3
123159.6
123092.4
123029.7
122965.3
122895.2
122815.7
122720.7
122609.3
122497
122413.2
122384.6
122410.1
122465.2
122528.5
122594.5
122673.7
122767.9
122859.7
122924.7
122955.4
122953.5
122931.9
122898.9
122860.9
122820.1
122779.7
122736.7
122685.9
122633.7
122582.8
122554.8
122561.4
123462
123401
123335.7
123249.5
123170.3
123098.3
123033.6
122971.5
122909.8
122845.4
122774.7
122697.3
122622.3
122567.8
122549.1
122566.9
122606.9
122654.1
122703.1
122758.9
122822.6
122882
122917.2
122922.1
122899.9
122860.9
122812.9
122760.4
122705.8
122651.2
122592.6
122528.4
122464.5
122385.5
122356.4
122369.7
123507.1
123430.1
123350.4
123256.2
123174.7
123099.3
123034.8
122977.3
122924.1
122873.4
122822.3
122770.5
122722.7
122689.3
122680.5
122698
122732.9
122774.4
122816.7
122859.6
122901
122932
122938.2
122917.7
122877.3
122824.2
122765.9
122704.9
122643
122581.8
122518.7
122453.5
122391.9
122328.1
122274.9
122303.1
123569.7
123460.1
123369
123262
123173.7
123094.4
123029.4
122975.9
122930
122890.5
122855.2
122822.5
122794.8
122778.8
122781.7
122804.5
122841.2
122883.6
122925.1
122961
122986.2
122993.7
122974.9
122933
122878.9
122817.5
122755.3
122693.3
122632.6
122574.4
122519.6
122466.8
122417.7
122380.4
122335
122341.5
123511.3
123389.9
123269.7
123173.1
123089.4
123020.6
122967.3
122926.1
122894.8
122871.8
122854.6
122844
122844.4
122859.7
122890.4
122932.4
122978.9
123021.8
123052.8
123065.1
123053.6
123014.4
122957.4
122894.7
122832.1
122772.4
122716.6
122665.4
122620.1
122581.9
122549
122522.6
122504
122483.8
123565.7
123414.5
123295.8
123179.1
123089.5
123016.3
122960.8
122922.2
122896.6
122881.7
122876.2
122879.3
122892.9
122919.3
122958.4
123006.8
123057.6
123101.2
123127.4
123129.1
123102.2
123046.9
122981.6
122916
122857.1
122804.6
122759.5
122723.4
122697.7
122678.1
122665.2
122668.9
122651.4
122655.5
123650.2
123467.8
123316
123192.3
123094
123018.9
122960.7
122922.1
122900.2
122890.7
122892.5
122905.1
122928.5
122963.9
123010.6
123064.8
123118.5
123161.1
123182
123174.6
123135
123068.2
123000.3
122938.1
122885.8
122842.4
122809.3
122789.7
122782.1
122777
122783.6
122792.9
122800
122801.4
123562.2
123347.8
123219.3
123109.3
123028.1
122969
122929.1
122907.8
122901.8
122907.9
122926.6
122957.1
122999.4
123051.8
123109.6
123164
123203.7
123218.8
123203.1
123152.5
123080.6
123015.3
122960.8
122917.4
122884.9
122865.3
122860
122864.2
122874.6
122900.6
122912
122917.6
123389.8
123236.7
123129.2
123042.5
122983.9
122943.7
122921.7
122917
122926.3
122948.4
122983.8
123031
123087.2
123146.4
123199
123234.2
123243.5
123218.9
123158.4
123089.8
123032.6
122988.5
122956.8
122937.7
122931.6
122936.1
122947.4
122971.1
122982.8
123006
123427.9
123259.4
123140.8
123067
123003.6
122965
122943.5
122939.1
122949.9
122974.1
123012.4
123062.5
123120.6
123179.2
123228.6
123259.3
123262.1
123225.9
123163.1
123104.2
123059.5
123029.3
123012.4
123006.7
123010.9
123021.8
123043.9
123052.3
123075.3
123085.9
123275.1
123158
123076.3
123027.6
122988.2
122968.9
122966.2
122977.6
123003.7
123043.7
123095.6
123154.1
123211.2
123257.7
123284
123276
123232.2
123176.5
123132.7
123104.5
123092.3
123089.5
123093.6
123106.2
123132.1
123139.6
123158.8
123164.3
123167.4
123088.1
123038.1
123011.4
122992.6
122992
123007.3
123036.1
123077.6
123129.6
123187.4
123243.2
123287.4
123305.4
123288.3
123248.3
123207.5
123182.4
123173.6
123179.5
123187.4
123207.8
123234
123249
123274.7
123287.5
123095.2
123048.2
123023.9
123018.4
123017.7
123036.4
123069.2
123113
123165.4
123222.8
123278.6
123317.4
123327.7
123311.6
123284.4
123262.7
123257
123265.9
123290.5
123317.8
123357.5
123383.9
123419.1
123443.4
123058.5
123036.3
123034.9
123042.6
123063.6
123098.1
123144.5
123200.1
123260
123314.3
123348.7
123359.6
123352.4
123344.3
123341.9
123361
123390.1
123446.3
123485.1
123534.3
123586.2
123643.4
123044.5
123052
123080.7
123122.7
123174.9
123232.9
123291.9
123341.6