/*--------------------------------*- C++ -*----------------------------------*\
  =========                 |
  \\      /  F ield         | OpenFOAM: The Open Source CFD Toolbox
   \\    /   O peration     | Website:  https://openfoam.org
    \\  /    A nd           | Version:  6
     \\/     M anipulation  |
\*---------------------------------------------------------------------------*/
FoamFile
{
    version     2.0;
    format      ascii;
    class       volScalarField;
    location    "49.8";
    object      p;
}
// * * * * * * * * * * * * * * * * * * * * * * * * * * * * * * * * * * * * * //

dimensions      [1 -1 -2 0 0 0 0];

internalField   nonuniform List<scalar> 
203709
(
308278.9
308178.4
308245.2
308457.5
308312.8
308331.1
308322.2
308286.1
308372.7
308587.2
308763.1
308856.6
308235.9
308252.4
308285.9
308336
308493.4
308628.6
308736.1
308812.1
308844.4
308940.6
308984.2
308929.4
308405.6
308177.7
308177.7
308372.2
308598.5
308827.4
309015.2
309132.6
309178.8
309165
309095.6
308982.4
308960.1
309060.7
308436.5
308194.1
308321.4
308556.4
308826.8
309089.5
309308.1
309450
309501.9
309469.2
309357.7
309189.1
309026.7
309126.5
308589.9
308352.5
308241
308392.3
308636.9
308929.4
309219.9
309463.3
309630.8
309706.2
309684.6
309567.6
309372.1
309150.6
309087.1
309144.9
308401.2
308141.6
308196.5
308358.9
308610.8
308924.5
309248.1
309529.6
309727.3
309818.5
309808.8
309698
309490.6
309220.6
308963.7
308987.4
308289
308205.9
308078.3
308152.8
308309
308566.6
308907.3
309253.2
309543.2
309757.1
309867.1
309861.5
309752.2
309540.9
309240.5
308915.6
308755.5
308706.5
308071.9
307999.1
308071.2
308184.3
308365.8
308633.8
308974.9
309302.2
309562.7
309763.2
309874.3
309866.2
309749.1
309532.7
309213.4
308842.4
308507.5
308430.5
308058.2
308012.7
308140.9
308310.2
308533.1
308806.9
309112.8
309397.2
309613.1
309767.2
309849.5
309826
309698.2
309470.3
309140.9
308760.7
308419.1
308341
308246.9
308212.8
308238.6
308437.9
308689.8
308967.7
309240.5
309481.9
309659.3
309763.8
309798.7
309750
309608.3
309362.5
309031.8
308679.2
308493
308442.6
308368.3
308300.6
308498.4
308756.8
309033.9
309288.5
309493.3
309635.9
309707.1
309709.9
309641.8
309478
309217.2
308896.4
308590.5
308573.9
308486.4
308426.5
308478.8
308716.8
308985.9
309231.6
309420.1
309539.6
309591.1
309575.6
309483.6
309299.5
309030.9
308736.9
308600.4
308624.1
308450
308385.9
308590.6
308838.9
309068.5
309245.4
309352.8
309393.7
309371.6
309268.4
309082.1
308820.6
308567.6
308598
308410.5
308368.9
308451
308656
308843
308993.4
309087.6
309124.6
309106.9
309019.5
308864.8
308638.4
308512.7
308543.4
308450.3
308554.4
308618.7
308629.8
308725.4
308782
308817
308831.4
308790.3
308799.3
308712.6
308614.9
308680.8
308669.1
308614.6
308508.1
308542
308710.5
308813.6
308856.7
308592
308463.1
308498.8
308690.5
304347.7
304463.2
304766
305016.8
305136.8
305125.2
305030.6
304863.9
304652.5
304593.5
304374.7
304461.7
304573.7
304749.1
305037
305265.1
305380
305396.2
305349.3
305233.2
305058.7
304950.1
304862.6
304716.6
304722.1
304614.3
304697.1
304935.9
305194.2
305485.2
305661.4
305720.8
305765.8
305821.9
305798
305648.3
305473.4
305231.3
305036.9
305052.3
304996.3
304932.6
304994.3
305169.8
305401.8
305602.3
305706.1
305792.4
305653.7
305718.1
306001.8
306095.4
306157.5
306061.6
305806.6
305526.9
305308.5
305257.7
305085.5
305172.1
305297.6
305481.1
305594.9
305636.6
305736.5
305607.3
305506.7
305203.2
305288.7
305782.9
306052.8
306341.5
306346.5
306300.7
306092
305744.8
305453
305288.4
304942.2
305218.1
305490.9
305748.8
305767.1
305694.1
305520.7
305415.1
305122.2
305161.2
305229.9
305336.7
305482.3
305641.1
306100.9
306294.9
306469.1
306430.9
306257.9
305836.6
305443.8
305166.2
305186.1
305496
305850.5
306037.2
305887.8
305408.3
305005.7
305013.4
305120.6
305278.8
305434.1
305558.3
305646.3
305708.5
305768.9
305844.6
306234.3
306616
306608.4
306262.1
305785.2
305453.9
304950.6
305341.4
305768.7
306136.6
306142
305760.9
305040.9
304922.8
305015.4
305206.1
305422.6
305618.7
305765.8
305846.2
305864.6
305839.8
305814.7
305896.7
306470.8
306691.3
306540.3
306067.2
305624.3
305283.4
304994.1
305420.4
305933.5
306230.2
306105.4
305550.9
304923.1
304868.9
305001.6
305231.4
305486.4
305711.4
305877.4
305969.9
305983.3
305929.3
305845.2
305825.1
306263.9
306630.4
306582.3
306179.4
305668.2
305307.9
305145.3
305500.7
305994.3
306121.1
305784.1
304995
304761.4
304766.7
304928.9
305188.5
305475.9
305731
305923.7
306033
306052.1
305988.6
305868.1
305755.6
305775.9
306290.8
306442
306220.6
305723.6
305401.5
305247.2
305528.9
305917.4
305916.7
305466.5
304794.8
304644.9
304675.3
304857.4
305147.4
305456.7
305722.1
305925.3
306047.2
306070.4
306001.4
305858.8
305687
305591.2
305964.1
306241.9
306127.7
305688.8
305400.4
305289.9
305520.8
305818.7
305626.1
304968.2
304707.7
304629.5
304697.6
304900.1
305194.5
305492.3
305733.7
305917.8
306035.2
306054.7
305976.6
305818.4
305611
305436.9
305429
305888.5
305956.3
305581.3
305313.2
305271.6
305492.3
305785.2
305604.6
304973.2
304769.1
304743.6
304849.5
305057.2
305324
305584.2
305787.1
305929.4
306012.7
306014.4
305922.9
305751.8
305532.2
305345.4
305325.9
305783.4
305829.4
305437.9
305158
305186.9
305434.3
305802.2
305841.5
305445.7
304925.5
304896.2
305017.6
305222.7
305459.9
305679.5
305842.3
305939.8
305980.7
305956
305847.5
305666.5
305458.1
305326.2
305661.2
305927.7
305749.2
305267.5
304948.6
305032.5
305321.5
305766.1
305934.4
305712
305106.5
305022.8
305126.8
305318.7
305530.3
305715.6
305846.6
305914.4
305924.7
305876
305752
305569.6
305395.7
305358.5
305826.1
305908.8
305628.5
305062.5
304697.2
304823.2
305152
305618.8
305981.7
305996.2
305592.5
305127.7
305168
305330.5
305517.8
305678.4
305787
305838.1
305833
305768.4
305637.6
305470.4
305366.5
305724.2
306036.9
305896.5
305416.3
304836.8
304435
304737.6
305037.6
305438.3
305881
306010.1
305788
305223.4
305184.1
305293.7
305441.1
305574.1
305665.6
305709.6
305703.5
305641.8
305528.8
305401.7
305381.1
305863.6
305988.6
305759.4
305212.2
304713
304352.9
304891.3
305179.8
305621
305945.9
305950.9
305617.1
305287.4
305306.9
305368.5
305448.6
305512.7
305554.6
305567.9
305546.6
305507.4
305464.4
305732.8
306005.9
305908.5
305484.9
304961.9
304625.4
304699.6
304956.5
305320.1
305723
305908.6
305983.8
305875.6
305774.5
305428.6
305403.2
305400.5
305441.3
305516.7
305595.6
305958.1
306041.1
306096.7
305950.8
305691.6
305209.1
304788.8
304493.9
304887.3
305064.6
305357.5
305726.3
305975.6
306097
306168.4
305981.3
305822
305450.4
305489.9
305931.5
306151.6
306360.7
306260.1
306090.6
305785
305357.3
305016.8
304821
304951.4
305059.5
305311.5
305633.6
305947.8
306117.7
306149.7
306143.2
305962.3
306004.8
306265.6
306330.1
306309.9
306113.9
305762.1
305396.2
305111
305003.9
304870
304932.2
305174.2
305478.7
305722.2
305944.9
306044.8
306070.8
306114
306173.5
306130.9
305920.2
305651.8
305325.5
305057.5
305009.9
304659.8
304876.1
305052.2
305221.4
305458.4
305636.4
305738.4
305782.5
305765.5
305645.4
305415.7
305232.5
305062
304864.5
304740.6
304869.3
305143.3
305361.3
305490.6
305529.4
305473.6
305302.9
305057.1
304967.3
300574.1
300639.9
300835.9
300893.4
300807.3
300667
300498
300482.5
300440.3
300660.9
301007.5
301132.5
301275.7
301485.4
301564.5
301484.5
301341.4
301170.3
301072.2
300999.6
300685.1
300519.3
300920.4
300944.6
301190.3
301438.5
301650.1
301909.6
302139.1
302241.7
302174.6
302040.9
301864.7
301668.2
301501.8
301264.2
301022.5
301070.3
300637.3
301057.5
301337.3
301483.7
301588.6
301735.7
301759.2
301999.1
302214.7
302321
302285
302186.8
302043.9
301886.1
301908.9
301741.8
301620.1
301461.6
301229.2
300883.8
300755.4
301046.8
301478.5
301711.8
301777.7
301641.4
301596.8
301414.5
301584.8
301754.3
301836.6
301837
301798.3
301734
301670.8
301901.7
301938.4
302007.6
301870.6
301628.1
301223.1
301050.3
300775.2
301123.2
301622.3
301932.2
301999.8
301684.7
301335.3
301332.8
301410.3
301516.4
301630.8
301701.5
301738.8
301773.1
301806.9
301815.4
301799.5
301772.4
302009.5
302216.2
302081.1
301775.8
301331.4
301101.4
301259.1
301664.3
302060.3
302232.7
301943.3
301518.3
301418.1
301382.7
301403.1
301468.6
301517.2
301545.4
301609.9
301730.7
301856.2
301939.2
301972.9
301959.5
301944.8
302218.8
302405.7
302205.8
301851.6
301525.9
301245.2
301641.6
302040.4
302330.2
302162.5
301791.4
301622.9
301482
301406.6
301368.2
301372.8
301390.7
301411.5
301495.5
301655.9
301820.1
301966
302067.6
302106.4
302111.7
302121.8
302369.4
302487
302226.8
301874
301543.5
300821.6
301310.8
301907.1
302303.5
302241.1
302011.3
301901.9
301687.7
301467.2
301326.7
301263.5
301258.5
301315.7
301396
301500.9
301633.3
301773.7
301932.6
302061.9
302165
302248.4
302286.1
302264.2
302437.7
302521
302165.1
301586.7
301096.1
301042.2
301611.6
302091.9
302308.3
302099.4
302125.7
301980.9
301682.8
301380.8
301198.1
301164.5
301231.4
301355.9
301494.3
301620.2
301726.7
301821.6
301916.8
302020
302169.3
302347.1
302463
302449.5
302355.8
302586.4
302413
301925.8
301333.7
301383.9
301876
302292.1
302311.5
302171.3
302184.3
301985
301626.4
301271.7
301108.5
301116.5
301235.2
301402.8
301572.4
301720.6
301826.5
301891.7
301933.1
301981
302091.1
302302.2
302484.9
302533.8
302462
302626.1
302657.5
302223.5
301691.8
300924.2
301462.7
302034
302246.8
302035.6
302155.9
302141.2
301878.4
301480.8
301134.7
300996.1
301028.8
301179.6
301384.7
301584.8
301748.8
301864.1
301922.5
301936.2
301937
301983.6
302140.6
302327.3
302436.6
302417.3
302342.7
302592.4
302371.4
301748.1
301093.2
300923.8
301542.1
302196.2
302347.4
302010.8
302040.9
301967.4
301670.3
301242.3
300940.7
300837
300894.7
301075.6
301314.8
301544.4
301734.4
301865.8
301927.2
301927.1
301892.5
301873.7
301939.3
302109.8
302251.5
302281.9
302270.2
302614.9
302447.9
301736.9
301030.7
301068.2
301670.8
302315
302420.6
301989
301901.4
301728.7
301419.4
301038.4
300791.1
300700.8
300776.5
300988.9
301252.7
301496.1
301695.4
301836.9
301901.8
301893.3
301833.6
301765.2
301756.2
301867.5
302011.2
302104.3
302158.3
302561
302418.5
301708.7
301018.5
301152.7
301741.6
302375.4
302451.7
301965.7
301809.7
301560.8
301236.8
300942.9
300750.6
300687.9
300789.4
301011.3
301266.6
301489.6
301668.7
301801.1
301861.2
301842.8
301764.6
301663
301600.5
301644.5
301791.7
301931
302016.4
302442.9
302298.5
301579.6
300896.5
301148.8
301739
302367.7
302434.1
301937.7
301773.2
301526.9
301224.7
300983.5
300848.3
300830.1
300941.7
301141.7
301361.3
301545.3
301684.7
301780.1
301818.7
301785.6
301693.2
301577.9
301500.9
301529.9
301664.7
301788.3
301858.6
302271.1
302107.2
301370.7
300675
301068.6
301665.9
302291.1
302365.2
301898.3
301778.1
301605.5
301353.5
301112
301000.8
301010.6
301123.7
301298.6
301478.9
301622.9
301718.8
301772.3
301781.5
301729.5
301627.4
301517.4
301466.3
301533.9
301637.6
301686.2
301697.9
302063.8
301868.9
301113.7
300396.3
300939.7
301541.6
302157.4
302251.4
301845.3
301806.2
301720.6
301516.2
301269.3
301145.4
301154.5
301257.5
301406.6
301554.2
301667.4
301734.6
301759.6
301743
301676.1
301572.4
301484.7
301482.1
301585.5
301656.5
301624
301548.8
301846.1
301619
300859.4
300127.3
300934.8
301462.9
301981.9
302113.3
301795.2
301817.8
301799.9
301661.1
301442.8
301271.7
301250.4
301329.7
301451.8
301572.9
301664.7
301716.3
301727.6
301698.6
301627.5
301534.7
301488
301552.3
301651.4
301671.5
301575
301439.8
301652.9
301391.9
300731.7
300066.4
301370
301817
302135.2
302032
301799.6
301829.6
301761.4
301580
301388.1
301329.1
301371.4
301457.5
301550.1
301624.3
301669.6
301681.3
301657.2
301599.8
301533.6
301528.8
301627.6
301705.6
301669.9
301536.2
301660.4
301674.4
301240.7
300694.2
301045.9
301566.2
301958.7
302051.5
301761
301807.4
301791.3
301678.1
301536.2
301451.8
301445.6
301475.9
301527.2
301578.4
301621.8
301648.8
301653.2
301638.1
301615.7
301637.2
301698.3
301721.9
301645.8
301511.6
301711.6
301534.3
301050
300443.5
300838.5
301281.6
301790.3
302077.9
301969.4
301768.5
301779.1
301751.7
301704.1
301663
301620.8
301574.4
301565.7
301577.9
301620.9
301683
301743.1
301799.4
301813
301792.5
301770.8
301724.4
301638.6
301768.3
301804.8
301444.9
300856.9
300323.4
301242.4
301575.1
301892
302128.7
302012.4
301768.6
301780.9
301816.6
301840.6
301820.2
301774.1
301720.9
301680.9
301723.5
301837.1
301944.9
301999.2
301985.8
301909.8
301818.6
301747.7
301931.7
301989.8
301694.6
301317.2
300902.3
301234.5
301585.3
301949.1
302156.7
302003.4
301759.8
301818.6
301891.5
301932.3
301936.9
301904.7
301883.8
301926.4
302023.1
302108.9
302111.1
302037
301924.2
301823.2
302023.5
302134.4
301877.5
301465.3
301072.7
300803.9
301107.4
301586.1
301928.5
302097.8
301940.2
301751.7
301836.8
301920.7
301986.3
302028.5
302069
302110.7
302148.1
302159.6
302097.9
301986.9
301874.9
302035.7
302169.4
301969.4
301589
301070.9
300708
300805.2
301077.5
301530.3
301831.5
302025.4
302013.5
302035.8
301867.2
301991.9
302113.1
302198.3
302241.2
302236.1
302164.1
302041.2
302198.7
302167.5
302164
301960.9
301646.9
301163.2
300858.8
300715.6
301137.6
301474.4
301701.3
301892.1
302113.2
302152.3
302365.2
302550.2
302668.9
302715.5
302677.3
302534.8
302333.8
302299.9
302081.6
301900.3
301686.8
301350.3
300914.5
301082.4
301146.5
301455.4
301753.6
301988.3
302239.7
302448.1
302579.6
302627.2
302569.2
302401
302178.3
301983.3
301712.4
301427.5
301426.1
300645.3
300894.2
301280.1
301432.9
301585.3
301788.2
301923.6
301966.7
301903.5
301751.3
301642.3
301559.6
301239.7
301064
300863.4
300938.3
301146.5
301288.2
301321.8
301251
301123.8
301157.6
296678.5
296608.3
296604.1
296549.7
296472.2
296543.3
296436.6
296692.2
297119.5
297442.4
297429.6
297441.5
297439.3
297368.1
297275.5
297265.5
297343.2
297084.4
296706.5
296486.1
296476.2
296928.4
297154.7
297372.2
297630.3
297843.8
297803.3
297914.3
297925.7
297837.8
297731.6
297642.2
297738.6
297580.4
297367.5
297181
296986
296574.1
297001.3
297231.5
297489.8
297687.1
297730.4
297882.7
297907.9
297737.2
297856.1
297889.1
297795.7
297682
297599.5
297824.8
297839.3
297713.6
297697.8
297525.1
297302.4
297163.7
297375.8
297552.5
297783.5
297978.5
297761.4
297520.9
297575.3
297677.4
297812.7
297972
298031.5
297952
297833.2
297718.1
297636.4
297573.3
297536.6
297779
298007.5
297844.9
297679.1
297622.2
297515.6
297681.2
297931.9
298001.3
297963.1
297602.6
297542.5
297544.1
297613.7
297756.6
297917.7
297988.9
297932.7
297837.1
297734.6
297650.1
297610.8
297606.7
297652
298004
298062.3
298040.4
297872.3
297840.1
297505.1
297737.8
297960.9
297907.3
297744.3
297706.8
297600.8
297507.8
297466.4
297493.2
297610.5
297748.9
297821.5
297802.9
297756.6
297702.9
297659.7
297655.8
297667.4
297703.3
297770.2
297811.8
298012.2
298123.3
297988.5
297875.4
297242
297718.8
298046.4
297973.3
297809.2
297812.3
297741.9
297586.4
297438.8
297373.6
297394.2
297483
297594.5
297674.4
297701.9
297713.6
297721.5
297723.7
297725.6
297732.7
297774.7
297841.4
297882.3
297906.5
298123
298259.5
298001.9
297618.9
296806.9
297495
298001.9
298181.1
297893.1
297908.7
297894
297770.4
297584.3
297420.8
297337.3
297323.2
297380.6
297477.7
297557
297617.5
297682.4
297747
297797.2
297828.6
297844.9
297869.1
297927.2
297983.4
298003.4
298036.1
298380.4
298248.8
297783.3
297151.9
297282.9
297797.7
298253.6
298220.5
297963.9
297983.6
297941.6
297811.2
297630.8
297449.3
297315.6
297280
297320.5
297399.4
297478.1
297560.1
297657.5
297756.5
297845.3
297913.5
297957
297988.6
298023.6
298067.9
298098
298118.8
298423.1
298491.2
298049.7
297553.9
296870.2
297535.3
298032.1
298094.3
297954.3
297994.3
298018.7
298000.6
297888.9
297673
297448.5
297297.7
297245.5
297275.5
297357.9
297455.7
297557.8
297667.9
297777.3
297883
297973.5
298048.9
298111.8
298153.5
298169.2
298180.2
298190.3
298188.9
298346
298281.5
297747.6
297078.7
297127.7
297770.1
298092.6
297901.1
297964.6
298024.7
298069.1
298084.3
297939.2
297668.2
297413.2
297248
297200.3
297250.1
297360
297490.2
297612.7
297720.4
297820.8
297918.5
298016.3
298122.7
298229.8
298302.8
298315.1
298293.2
298291
298263.1
298198.4
298366.6
297971.6
297284.9
297546.5
298012.2
298239
297960.2
297991.6
298040.8
298112.7
298108.1
297925.5
297628.5
297345.4
297174.8
297138.1
297209
297340.7
297488.2
297631.7
297750.4
297842.9
297919.4
297996.2
298096.3
298227.1
298345.6
298402.2
298393.3
298376
298356.8
298310.8
298544.4
298227.9
297673.8
297828.5
298173.7
298227
298014.5
298008.1
298005.8
298060.5
298047.2
297843.9
297516.2
297216.6
297043.4
297011.1
297097.4
297255.9
297430.7
297589.7
297721.6
297815.9
297878.3
297928.3
297995.6
298103.3
298225
298316
298351.9
298360.8
298385.3
298374.7
298536
298411
297932.9
297087.6
297752.1
298068.3
297981.6
298059.6
298038.3
297972.2
297949.4
297879.1
297665.4
297330.8
297022
296857.3
296835.3
296944
297132.5
297334.4
297519
297668.3
297769
297823.7
297850.7
297880.5
297947.4
298052.5
298150.9
298215.2
298265.1
298339.6
298341.3
298202.7
298205.8
297772.9
296978.3
297014.4
297751.4
298132.5
298016.8
298112.3
298068.8
297943.8
297841.6
297699
297460.5
297143.3
296865.2
296698.8
296680.2
296814.2
297030.3
297248
297442
297599.9
297705.5
297754.7
297763.1
297760.4
297786.2
297862.3
297958.7
298042.8
298119.7
298224.4
298232.7
298075.6
298096.7
297610.8
296786.4
297082.9
297815.1
298185.8
298052.6
298145.1
298083.3
297920.7
297769.9
297582.8
297337
297059.9
296816.3
296660.2
296668.6
296817.8
297025.5
297226.4
297400.1
297545.1
297644.7
297684.9
297677.4
297649.9
297642.9
297688.6
297777.1
297869
297953.9
298061.9
298065.6
297897
297928.4
297451.9
296644.3
297091.5
297823.1
298190.4
298053.3
298140.1
298070.6
297898.8
297739.1
297551.1
297324.6
297092.9
296903.5
296796.5
296820.1
296950.3
297125.4
297288.9
297423.3
297531.3
297604.3
297627.6
297605.2
297562.9
297540.3
297569.9
297641.9
297715.8
297782.4
297871
297853.1
297665.7
297689.7
297208.8
296408
297057
297789.5
298156.7
298022.4
298097.5
298028.9
297872.5
297738.1
297584.4
297393.1
297196.3
297049.9
296984
297017.2
297128.1
297267
297391.5
297485.2
297551.7
297591.2
297592.7
297555.6
297508.7
297488.3
297517.6
297565
297597.4
297622.5
297674.1
297629
297428.8
297431.6
296932.5
296145.1
297158.5
297822.5
298121.1
297998.9
298037
297968.1
297841.3
297750.4
297644.1
297491
297319.3
297194
297147.3
297181.5
297272.6
297382
297477.3
297544
297583
297596.1
297578.6
297531.6
297489.7
297481.9
297513.3
297534.4
297519.1
297493.1
297502.7
297441.6
297261.5
297238.1
296782.6
296083.3
297909.8
298246.8
298258.3
297984.3
297908.2
297814.1
297759.3
297695.9
297584
297439.3
297319.6
297272.8
297297
297367.8
297454.4
297530.6
297582.9
297608.8
297608.6
297582
297534.3
297505.1
297513.5
297537.9
297530.3
297476.8
297414.6
297390.5
297337.8
297468.4
297324.9
296854.6
297647.5
298098.5
298277.3
297926.1
297873.7
297813.5
297761.1
297726.8
297655
297540.4
297429.1
297375.6
297383.3
297431.6
297497.1
297559.3
297606
297630.8
297631.1
297607.6
297567.8
297551.3
297565.5
297576.1
297542.4
297471
297414.3
297365.8
297304.4
297533.2
297231.9
296673.2
297272.5
297859
298131.6
297869.3
297850.3
297809.8
297755
297733.1
297692.8
297617.5
297536.1
297485.8
297476.8
297498.2
297539.9
297587.8
297632.7
297665.4
297678.7
297670.9
297643.8
297629.3
297626.8
297614
297564.8
297496.9
297457.4
297406.6
297332.4
297493.4
297120.1
296411.8
297067.5
297639.3
298073.9
298079.2
297856.2
297808.1
297766.4
297733.5
297708.1
297673.6
297638.6
297614.6
297601.3
297598.8
297614.6
297644.8
297688.8
297735.7
297770.2
297781.1
297758.8
297725.5
297692.1
297655.4
297608.6
297567.8
297532.2
297505.1
297647.9
297560.5
297039
296300.8
297411.8
297864.6
298255
298161.6
297827
297796.7
297765.3
297727.5
297711.4
297715.1
297725.2
297729.3
297730.2
297734.6
297751.1
297793.6
297852
297896.7
297901.7
297862.6
297804.3
297748.1
297709
297688.7
297659.7
297631
297903.3
297920.8
297454.5
296906.2
296981.2
297585.1
298026.7
298149
297808.9
297791.2
297791.5
297759.2
297730
297745.7
297783.1
297818.4
297845.9
297866.3
297891.3
297931.7
297978.9
298006.2
297980.9
297914.5
297841.3
297787.6
297775.3
297762.4
297718
297691.2
297975.8
297789
297263.8
296521.8
297372.7
297772.6
298043.2
297942.5
297759.2
297775.6
297775
297748
297750.9
297797.3
297856.7
297920.1
297977.1
298025.9
298063.7
298084.1
298070.8
298005.6
297922.9
297855.4
297828.1
297827.7
297800
297753.1
297901.5
297952.5
297609.6
297073.3
297588.1
297776.8
297970.5
297916.8
297765.5
297779.1
297767
297783
297825
297885.1
297982.7
298079.8
298152.3
298189.1
298182.7
298119.6
298020.2
297950.1
297900.7
297875.7
297880.5
297853.5
297984.1
298005.4
297764.1
297478.3
297580.2
297725.2
297971.1
298057
298066.9
297779.3
297796.3
297858.3
297951.7
298083
298212
298303.8
298342.2
298310.5
298207.2
298081
297991.4
297940.4
297938.6
298242.7
298230
298125.9
297863.9
297662.7
297445.3
297618.5
297869.4
298107.6
297950
297774.4
297873.6
297994.4
298122.8
298257.2
298356.2
298391.6
298346.3
298240.4
298133.6
298037.3
297969.3
298184.1
298367.9
298148.6
297900.4
297717.8
297085.8
297339.1
297636.6
297890.3
297982
298173.6
298219
298047.7
298154
298248.3
298278.9
298238.2
298174
298396.8
298396.6
298253.2
298216.2
298027.6
297753.6
297549.6
296599
297092.3
297373.7
297647.7
297941.3
298162.7
298124
298250.6
298356.8
298388.9
298343.3
298276.3
298391.8
298249.1
298034.9
297842.6
297633.2
297208.4
296667.8
296968.7
297443.1
297785.6
297780.8
297834.5
297944.3
297980.7
297943.5
297966.9
298092.2
297876.5
297542.9
297370.3
297061.8
297045.1
297162.4
297212
297209.5
297370.7
292510.9
292780.6
292998.3
293056.7
293073.1
293049.2
292974.6
292896.9
292723.5
292496.6
292566.5
292917.6
293297.4
293475.5
293634.5
293774.2
293609.1
293566.1
293516.5
293468.2
293618.9
293538.1
293434
293290.1
292919.7
292583.4
293338.8
293320.2
293581.6
293672.3
293886.1
294011
293952.2
293625.3
293543
293469
293443.7
293770.7
293883.5
293819.1
293639.7
293557.2
293311.6
293368.2
293130.3
293632.6
293798.4
293714
293712.2
293543.1
293627
293685.1
293698.3
293707
293664.3
293572.9
293510.9
293512.5
293546.2
293540.4
293492
293679.9
293696
293808.3
293682.9
293207
293456.5
293764
294002
293855.2
293605.1
293553.2
293552.6
293611.3
293662.5
293705.6
293775.8
293773.9
293677.9
293588.9
293540.2
293538.7
293527.7
293495
293508.9
293576.8
293855.4
294037.4
293846.2
293616.9
293612.7
293982.2
294228.3
294056.9
293762.5
293677.5
293590
293545.6
293568.6
293629.2
293715.8
293820
293846.9
293764.7
293663.4
293586.2
293538.7
293509.5
293501.6
293550.1
293646.5
293761.5
294098.1
294322.5
294147.3
293878.2
293554.1
294028.1
294344.6
294174.2
293838
293767
293697.9
293600.8
293542.4
293533.8
293577.9
293670.8
293785.4
293828.2
293767
293675.7
293601.8
293549.1
293523.7
293528.6
293577
293676.4
293772.5
293888.1
294280.7
294515.4
294278.8
293911.6
293305.4
293894.4
294317.5
294219.3
293888.9
293794.1
293741.2
293684.4
293596.7
293514
293468.5
293483.6
293564.3
293674.7
293732.4
293699.7
293643.8
293598.1
293566
293555.8
293566.9
293605.9
293675
293752.6
293852
294001.8
294392.9
294551.8
294204.7
293718
293846.1
294176.9
294192.1
293932.4
293847.1
293795.3
293761.1
293696.7
293583
293457.3
293375.4
293361.6
293433.4
293539.4
293610.9
293623.2
293615.1
293608.4
293605.4
293609
293623.2
293658.1
293712.9
293774.4
293850.6
293960.5
294101.3
294411.3
294446.8
294190.4
293658.2
294063.9
294079
293948.7
293918.1
293857.6
293831.2
293802.1
293716.5
293569.1
293400.4
293290.3
293264.8
293308.7
293418
293511.6
293563.7
293598.9
293630.8
293658.6
293682.2
293704.6
293735.1
293780.5
293832.3
293888.4
293968.4
294080.1
294151.1
294313.6
294323.1
293979.8
292938.7
293654.4
294016.2
293875
293917.5
293913.3
293879.8
293871.6
293844.9
293748.9
293579
293400.1
293250.9
293194.6
293249.3
293353.4
293453.4
293530.2
293596.8
293659
293714.6
293761.2
293798.7
293832.9
293869.4
293909.4
293950.2
294002.4
294077.1
294107.4
294081.1
294229
293877.5
293180
293315.1
293943.4
294048.9
293866.3
293885.6
293888.3
293894.1
293908
293900.3
293805.5
293613.6
293393.5
293240.3
293185.3
293226.5
293322.7
293429.3
293525.9
293617.2
293702
293778.3
293843.8
293898.8
293945.1
293981.8
294007.7
294029.3
294053
294077
294085
294061.8
294224.8
294109.3
293467.2
293717.2
294060.6
293906.3
293894.5
293882
293890.3
293913.6
293950.3
293972.8
293854.7
293606.2
293375.7
293218
293162.6
293203
293305
293428.6
293544.6
293645.8
293740.6
293831
293916.1
293995.8
294065
294111.2
294128.9
294132.1
294135
294130.5
294115.3
294101.2
294067.1
294181.8
293792.9
292971.5
293902.3
294276.5
293987.3
293952.7
293911.8
293905
293924.9
293979.4
293985.4
293837.8
293578.3
293328.5
293158.2
293097.9
293138.7
293245.7
293376.6
293511.3
293632.6
293736.6
293827.3
293911.3
293997
294088
294169.2
294216
294223.6
294218.6
294208.2
294190.6
294181.5
294148.6
294368.5
293913.1
292945.9
293240.6
294046.7
294367.7
294009.3
293971.2
293936.3
293911.9
293899.9
293919.9
293918.3
293765
293483.2
293211.7
293025
292954.5
292995.1
293115.5
293268.3
293420.2
293560.5
293676.9
293768.1
293842.1
293912.8
293993
294078.1
294152.6
294201.6
294227.3
294238.6
294230.4
294203.4
294170.5
294442.5
294020
293146.7
293446.2
294146.6
294267.7
293974.1
293956
293951.2
293916.6
293864.2
293823
293762.8
293602.9
293323
293024.9
292828.7
292755.4
292809.4
292954.1
293129.7
293306.6
293466.9
293595.9
293688.7
293753.1
293804.6
293863.8
293935.6
294008.5
294074.5
294130.6
294177.4
294177.9
294123.8
294069.1
294289.9
294089.4
293289.7
293548.4
294010
293938.9
293947.8
293960.1
293969.5
293922.1
293833
293737.7
293617.7
293426.9
293150.4
292869.4
292662
292578.5
292648.9
292820.1
293012.8
293200
293369
293505.2
293598.3
293653.1
293685.8
293721.7
293775.6
293840.9
293907.6
293973.4
294035.1
294045.1
293976.7
293888.4
293804.1
293810.5
293292.8
293652.6
294058.1
293935.6
293955.2
293972.1
293981.7
293923.1
293810.2
293682.7
293531
293330
293077.2
292818.9
292611.5
292548.5
292635.3
292800.4
292979.9
293147.3
293301.2
293430.1
293516.6
293560.1
293575.2
293589.4
293623.3
293675.6
293734.3
293792.6
293848
293850.6
293773.6
293674.2
293585.6
293656
293233.4
293671.1
294076.2
293949.2
293962.9
293973.7
293977.7
293912.9
293793
293658.1
293504.8
293319.1
293105.4
292896.9
292739.5
292697.3
292769.2
292905
293049.5
293178.4
293295.6
293395
293461.9
293489.8
293489.4
293486.8
293503.3
293536.8
293575
293612
293643.8
293623.5
293526.2
293425.2
293336
293426.7
293044
293622.1
294076.8
293987.8
293975.6
293966.9
293957
293889.2
293776.1
293654.8
293521
293363.9
293191.3
293033.4
292925.3
292902.7
292962.7
293066.5
293173.7
293265.1
293341.9
293404.9
293445.1
293453.3
293440
293425.9
293429.1
293439.8
293447.7
293453
293454.8
293408
293293.2
293184.8
293109.1
293186.9
292788.4
293581.7
294264.2
294358.8
294025.7
293970.8
293930.9
293857.9
293758.4
293661.2
293556.3
293430.6
293292.5
293171
293095.7
293085.7
293134.3
293213.1
293293.5
293359.7
293409.8
293445
293460.7
293451.3
293428.9
293408.3
293400.6
293389.2
293366
293339.1
293314.4
293256.1
293153.6
293065.1
293287.4
293192.7
292588.4
293417.6
294192.7
294480.2
294075.3
293989.8
293905.8
293826.7
293743.4
293669.5
293593
293497.8
293388.7
293291
293232.7
293225.4
293262.9
293324.7
293389
293441.9
293478.7
293498.3
293498.8
293478.4
293451.1
293428.2
293410.8
293381.2
293335.7
293287.9
293247.7
293197.4
293144.2
293097.6
293392.2
293099.8
292381.5
293203.1
294076.3
294405.3
294061.2
293973.2
293872.8
293800.3
293733.9
293673.9
293619.2
293551.4
293468.5
293389.6
293340.3
293331.7
293359.5
293408.9
293463.6
293511.3
293544.6
293559.3
293553.8
293528.5
293499.3
293473.6
293448.1
293407.6
293354.6
293305.4
293261.5
293219.9
293200.3
293175.5
293415.2
293052
292181.7
293950.5
294216.2
293988.5
293916
293841.5
293782.7
293725.8
293672.8
293630.6
293584.5
293527.9
293472.1
293435.4
293427.5
293446.5
293485
293532.4
293578.7
293614
293630.9
293625.9
293598
293565.2
293532.3
293500.1
293457.5
293410.9
293374
293340.4
293304.7
293280.7
293255.7
293373.4
293023.2
293604.3
294129.1
294153.5
293895.9
293854.5
293794.2
293731.7
293681.7
293642.1
293607.8
293574.4
293545.7
293528.7
293526.8
293541
293570.8
293611.5
293656.8
293695.7
293716.8
293711.7
293677.3
293635.9
293594.5
293558.5
293523.4
293493.7
293474.8
293467.4
293450.6
293409.9
293578.1
293432.8
292795.7
293285.3
293875.3
294137.3
293921.3
293903.8
293845.8
293757.1
293703.6
293666.3
293634.6
293613.7
293606.5
293610.1
293621.9
293642.1
293671.2
293708.7
293752.1
293790.5
293808.8
293793.8
293746.9
293695.4
293650.7
293619.7
293599
293584.7
293587.7
293622.8
293616.6
293562
293683.2
293300.8
292543.9
293937.7
294204.4
294147.7
293957.2
293879.6
293779.3
293722.9
293692
293664.6
293645.5
293648.6
293669.2
293699.3
293735.5
293775.1
293816.9
293857
293885.6
293888.7
293852.3
293792.1
293736.2
293697.8
293680.4
293670.9
293665.3
293684.5
293741.2
293763
293883.5
293842.2
293381.6
294015.7
294259.4
294218.5
293920.6
293811.4
293744.4
293713
293692.6
293675.8
293680.6
293710.9
293757.4
293813.9
293871.7
293922.7
293958.5
293970.6
293947.9
293885.6
293818.6
293768.1
293743.1
293739.3
293738.4
293745.8
293783.9
293855.4
294100.7
294055.9
293691.1
293480.7
293977.2
294348.2
294230.4
293886.6
293791.3
293749.5
293727.7
293709.6
293718
293754.2
293811.8
293887.5
293964.1
294024.3
294055.9
294049.7
293995.6
293915.1
293850.7
293810
293797.9
293812.5
293826.6
293854.5
293926.9
294235.7
294294.9
293830.5
293169
293604.1
294045.2
294354.1
294189.4
293863.5
293814.4
293783.7
293744
293751.8
293799.4
293872.8
293963.4
294052.8
294119.5
294147.5
294121.7
294045.9
293959.1
293895.7
293862.1
293870.5
293922
293955.8
294000.2
294316.5
294443.1
294072.6
293512.1
293588.8
293970.5
294241.7
294097.1
293834.2
293792.7
293761.3
293775.2
293842.3
293924
294009.5
294097
294163.8
294184.7
294148.1
294077.4
294010.3
293957.2
293924.2
293946.9
294003.8
294066.5
294338.6
294474.5
294179.2
293724.4
293409
293753.4
294041
293942.1
293739.4
293743.8
293800.8
293900.5
293970.3
294015.9
294081.2
294137.1
294150.6
294121.9
294086.8
294078.3
294055.8
294009.6
294012.5
294055.5
294295.7
294417.6
294145.7
293775.9
293089.5
293651.9
293889.5
293859.3
293912.4
293808.3
293935.5
294010.8
294030.9
294058.4
294100.8
294114.7
294104.5
294125.1
294162.4
294162.2
294114.1
294314.7
294317.8
294401