/*--------------------------------*- C++ -*----------------------------------*\
  =========                 |
  \\      /  F ield         | OpenFOAM: The Open Source CFD Toolbox
   \\    /   O peration     | Website:  https://openfoam.org
    \\  /    A nd           | Version:  6
     \\/     M anipulation  |
\*---------------------------------------------------------------------------*/
FoamFile
{
    version     2.0;
    format      ascii;
    class       volScalarField;
    location    "49.8";
    object      p_rgh;
}
// * * * * * * * * * * * * * * * * * * * * * * * * * * * * * * * * * * * * * //

dimensions      [1 -1 -2 0 0 0 0];

internalField   nonuniform List<scalar> 
203709
(
122987.1
123064.8
123132.4
123167.1
122790.4
122874.9
122986.6
123093.4
123180.1
123252.6
123308.7
123335.7
122852.7
122792.2
122802.1
122875.6
122978.4
123091.1
123198.5
123297.5
123384.4
123457.5
123525.4
123546.1
123023.5
122860.5
122774.3
122774
122839.5
122952.3
123078.1
123195.8
123303.9
123405.6
123497.8
123579.7
123642.3
123678.2
122978
122791.4
122689.6
122672
122734.6
122853.4
122996.9
123139.2
123266.2
123377.2
123474.2
123558.3
123624.9
123669.2
123068
122868.8
122643.2
122508.2
122472
122541.7
122682.9
122851
123018.5
123169.5
123297.3
123403.3
123489
123554.5
123605.2
123624.2
122945.1
122680.3
122436.7
122265.8
122221.9
122310.3
122481.5
122681.3
122879.2
123052.5
123195.8
123310.8
123399.7
123463.4
123504.4
123531.9
122997.8
122869.5
122561.7
122276.2
122070.8
122026.7
122139
122325.4
122533.2
122747.4
122940.5
123095.6
123215.8
123306.1
123367
123401.7
123420.5
123415.1
122957.9
122804.5
122531.2
122245.4
122051.8
122017.6
122123.6
122290.9
122474.5
122675.2
122864.7
123018.3
123137.1
123222.6
123277.7
123305.7
123315
123317
122943.9
122819
122601.7
122371.5
122219.5
122191.4
122261.9
122385.6
122524.7
122679.2
122839.8
122978
123086
123160.2
123205.3
123224
123227.3
123228
122955.6
122877.7
122723.5
122562.4
122452.8
122428.8
122472.4
122553.7
122648.7
122753.6
122871.8
122984
123071.6
123127.6
123158
123165.5
123159.2
123152.1
122912.8
122840.8
122740.1
122664.8
122645.4
122674.2
122726.1
122787
122858.6
122943.7
123028.8
123091.1
123126.1
123138.4
123131.2
123119.8
122965.7
122943.9
122881.6
122833.5
122821.5
122843.7
122882.7
122927.7
122979.5
123038.8
123096.4
123135.9
123148.3
123140.3
123118.2
123103.7
122992.5
122984.3
122960.5
122956
122977.4
123010.5
123049.1
123090
123136.8
123177.4
123199.6
123190.9
123166.8
123140.6
123031.1
123055
123050.5
123059.9
123085.5
123119.8
123159.1
123196.3
123233.5
123261.9
123268.3
123237.4
123198.3
123162.9
123071.5
123098.3
123137
123170.5
123211.8
123251.6
123286.4
123317.6
123331.3
123317
123255.2
123235.5
123160.8
123214.6
123281.2
123322.8
123356.2
123376.5
123359.3
123336.5
123302.5
123352.9
123388.3
123400.6
122806.7
122851.5
122942.7
123038.9
123081.8
123071
123055.6
123045
123045.5
123057.5
122838.4
122740.7
122726.2
122784.4
122892.8
123005.8
123073.2
123090.6
123093.6
123093
123097.7
123106.7
123144.1
123182.1
122958.8
122816.2
122682.6
122653.4
122713.1
122836
122968.1
123055
123101.3
123130.7
123150.2
123168.7
123193.7
123219.2
123241.8
123292.6
123149.9
122999.8
122819.9
122684.3
122629.6
122697.3
122820.3
122969.7
123060.8
123126.1
123180.4
123211.2
123254.5
123291.6
123323.9
123354.9
123376.8
123412.3
123323
123236.2
123065.4
122876.3
122742.8
122682.6
122748.5
122846.1
122957.3
123061.8
123147.7
123235
123293.8
123355.1
123393.9
123449.5
123487.1
123513
123519.3
123527.7
123409
123422.5
123314.2
123141.6
122957.1
122804.7
122741.2
122762.9
122838.7
122946
123060.5
123167.3
123267.7
123358.4
123449.7
123516.9
123580
123619.8
123651.3
123661.9
123648.9
123630.2
123468.7
123482.4
123363.7
123183.5
122999
122834.6
122736.8
122732.7
122805.3
122922.2
123054.1
123178.4
123289.8
123393.3
123488.6
123576.1
123660.1
123726.7
123755.6
123776.2
123772.7
123734.1
123412.5
123498.3
123486.5
123363.4
123187.5
122982.8
122772.4
122661.3
122641.3
122707.4
122827.6
122972.2
123119.5
123251.7
123366.4
123466.5
123554.2
123629.1
123694
123739.3
123768.6
123786.7
123779.9
123744.1
123385.1
123460.5
123452.2
123324.7
123118
122899.3
122642.7
122494.9
122453.4
122519
122655.3
122818.4
122984.6
123139.1
123271.5
123381.8
123472.4
123546.1
123613.9
123644.6
123678
123699.6
123706
123696.8
123324.9
123361.6
123346.2
123234.5
123023.4
122711.1
122445.5
122267.4
122215.5
122292.3
122450.1
122637.2
122830.2
123008
123157.1
123276.9
123370.7
123441.8
123493.7
123530.3
123556.7
123572.7
123580.8
123578.7
123270.2
123273.1
123226.6
123094.5
122916.7
122578.3
122286.8
122078.3
122023.6
122120.2
122292.7
122487.7
122691.2
122884.6
123045.5
123170.9
123265
123331.7
123377
123415.1
123419.8
123435.4
123430.4
123422.6
123233.2
123213.7
123153.3
123033.1
122825.5
122536.3
122247.7
122048.4
122003.6
122097.9
122256.6
122428.3
122612.8
122801.2
122961.3
123084.1
123172.9
123232.3
123268.2
123287.9
123295.8
123290.5
123273.7
123256.5
123213.8
123183
123117.8
123011
122831.1
122598.4
122362.3
122200.9
122161.5
122227.9
122348.4
122481.5
122624.3
122778.7
122921
123030.3
123106.3
123153.6
123176.8
123185.2
123190.5
123162.3
123128.5
123099.6
123207.2
123174.8
123110.2
123019.5
122896.8
122710.5
122539.4
122422
122390.2
122433.1
122515.5
122607.5
122705.4
122817.8
122931
123017
123072.7
123102.8
123112.4
123113.7
123106.4
123057.1
123008
122967.7
123209.8
123180.2
123120.2
123050.1
122952
122824.1
122708.4
122628.7
122606.2
122634.4
122689.9
122752.7
122820.8
122899.6
122981.1
123040.6
123072.3
123081.8
123076.6
123067.5
123024.5
122981.3
122921.4
122872.9
123213.8
123191.7
123140.9
123078.7
123010.9
122942.6
122848.6
122795.3
122783.1
122805.9
122847.7
122895.1
122946.3
123002.6
123056.9
123090.7
123098.1
123087.7
123074.1
123051.2
122993
122936.8
122876
122823.4
123199.6
123194.6
123159.1
123110.6
123059.7
123012
122956.9
122924.7
122921.4
122944
122981.1
123023.5
123067.5
123110.4
123144.7
123156.6
123142.4
123114.7
123086.9
123036.6
122989.4
122932.1
122869
122813.1
123175
123168.3
123137.1
123097.4
123065.5
123046.7
123021.5
123028.6
123055.2
123094.4
123138.2
123180.1
123213.6
123233.2
123228.7
123198.1
123161.9
123119.4
123058.8
123002.4
122949.2
122905.9
123169.2
123163
123147.9
123122.3
123103
123098.8
123100.6
123125.4
123147.4
123190.6
123236.1
123276.7
123303.8
123314.1
123308.4
123265.1
123211
123144.4
123089.8
123037.5
122992.6
122957.8
123128.4
123135.8
123131.3
123124.5
123126.5
123146.8
123184.1
123223.1
123275.7
123313.7
123353
123384.7
123392.9
123375.5
123309.4
123241.6
123182.9
123129.7
123087.2
123059.8
123110.3
123128.7
123138.9
123150.7
123178.2
123214.6
123265.9
123323.3
123372.5
123414.8
123444.8
123446
123407.5
123344.4
123278.4
123222.4
123178.9
123161.4
123110.3
123139.5
123164.5
123200.6
123243.8
123299.1
123355
123411.3
123454.6
123482.8
123483.4
123441.2
123372.7
123313.8
123262.5
123248
123127.5
123160
123211.4
123262.8
123319.1
123379.3
123436.6
123481.3
123509
123505.2
123455
123389.2
123345.1
123333.3
123204.1
123260.2
123320.2
123380.4
123434.8
123474.7
123495.4
123482.4
123449
123429.5
122976.7
123032.8
123093.1
123069.4
122981.5
122919.7
122888.8
122888.2
122927.3
122925.6
122929.8
122969
123031.8
123109.1
123112.1
123031.5
122963.4
122923.6
122906.8
122922.7
122953.6
123008.7
122943.7
122923
122894.4
122892.5
122933.3
123008.3
123096.3
123122.4
123055.5
122998.6
122963.1
122949.7
122955
122969.5
123004.3
123098.6
123045
123019.5
122967.7
122907.7
122854.1
122830.5
122869.9
122961
123057.5
123100.7
123065.2
123031.7
123008.2
122998.9
123006.1
123008.4
123045.7
123094.7
123193.6
123294.2
123109.6
123089.6
123050.5
122985
122880.6
122775.6
122746.4
122779.9
122886.1
122999
123052.1
123053.3
123045.4
123038.6
123039.4
123055.4
123075.9
123111.9
123144.5
123202.3
123266.8
123402.8
123183.1
123166.3
123156.9
123109.1
123007.8
122856.6
122706.6
122651.9
122692.6
122791.5
122925.4
123011.2
123049.3
123069.6
123084.2
123100.2
123121.4
123146.1
123182.9
123225.8
123258.3
123308.2
123373.2
123508.5
123222.3
123237.6
123236.6
123185.7
123041.5
122849.9
122700.1
122618.9
122639.4
122752.9
122892.9
122996.3
123061.5
123107.7
123142.3
123177.7
123211.5
123244
123278.2
123317.7
123358.2
123381
123424.1
123487.3
123273.1
123274.2
123313.8
123339
123259
123104.3
122913.2
122738.6
122656
122672.1
122767.2
122892.7
123004.1
123088.5
123159.1
123216.2
123271.7
123318.6
123364.5
123403.1
123435.6
123466.9
123495.8
123498.3
123503.9
123566.9
123308.4
123293
123331.9
123407
123415
123342.4
123191.1
122983.3
122801
122704.3
122706.6
122783.5
122897.2
123014.5
123119.6
123215.3
123299.6
123376.9
123440.7
123499.4
123544.3
123576.4
123596
123610.8
123621.2
123587.3
123565
123579.3
123310.7
123317.4
123357
123445.6
123472.7
123407.5
123236.7
123016.7
122829.3
122718.3
122701.3
122766.8
122881.6
123014.5
123140.5
123252.8
123357.4
123454.2
123540.7
123618
123681.2
123719.6
123732
123728.2
123720.6
123677.5
123631
123597.2
123311.7
123328.7
123386.5
123465.5
123492.3
123420.1
123234
123004.4
122792
122659.3
122623.1
122677.8
122791
122930.6
123079
123215.2
123335
123440.6
123532.8
123612.4
123681.2
123735.5
123770.8
123782.6
123778.1
123753
123678.2
123614.9
123337.1
123301.8
123313.6
123356.7
123403.9
123440.1
123377.5
123182.5
122924.3
122671.8
122502.8
122441
122489.2
122614.2
122771.3
122935.4
123094
123232.7
123349.3
123444.9
123521.9
123585.3
123632.7
123674
123701.1
123709.6
123703.3
123654.5
123585.8
123496.5
123320
123295
123290.7
123309.1
123315.1
123317.9
123252
123064.5
122766.8
122475.7
122279.1
122203.5
122257.5
122402
122581.3
122771.5
122953.7
123110.5
123237.5
123336.4
123410.5
123465.3
123505
123536.5
123558
123572.6
123576.8
123545.7
123491.4
123421.4
123318.2
123288.1
123268.3
123262.8
123235.2
123197.6
123105
122921
122618.7
122315.6
122087.2
122003.6
122074.7
122235.1
122424.4
122624.1
122820.6
122989.9
123123.5
123223
123292.1
123338.4
123370
123387.3
123399.3
123403.1
123403.3
123373.9
123329
123270.4
123320.4
123283.7
123252.6
123229.3
123180.5
123119.4
123011.6
122828.6
122560.1
122269.4
122043.9
121972.8
122045.6
122193.8
122361.5
122541.1
122730
122898.6
123029.9
123123.8
123184.4
123219.6
123237.2
123242.4
123240
123230.4
123220.3
123175.9
123122.5
123066
123322.5
123284.3
123246.1
123211.6
123151.6
123082.1
122977.5
122817
122601.4
122367.7
122186.8
122126
122176.6
122288.5
122417.1
122557
122709
122856.1
122972.6
123052.5
123099.4
123120.2
123122.8
123115.3
123096.8
123071.7
123047.5
122983.8
122913.4
122845.3
123329
123291
123248.3
123207.4
123143.1
123073.7
122982.1
122856.2
122693.8
122526.8
122398.5
122352.3
122385.2
122461.5
122551.2
122647.5
122756
122869.5
122959.8
123017
123044.6
123049
123037.1
123014.1
122981.1
122941.7
122903.5
122822
122733.8
122650.9
123339.9
123302.1
123257.7
123214.2
123149.1
123083.9
123006.8
122912.3
122795.6
122682
122598
122567.4
122589.3
122641.8
122704.5
122771.9
122847.6
122926.4
122986.9
123016.7
123021.8
123008.7
122981.8
122942.2
122900.5
122851.2
122805
122713.2
122613.9
122522.3
123345.5
123306.6
123268.5
123226.3
123164
123103.5
123038.8
122967.6
122888.3
122810.5
122758.7
122743.2
122762.3
122803.4
122852.3
122904
122958.1
123009.3
123041.3
123043.4
123027
122997.6
122957.5
122909.7
122859.3
122806.7
122760.6
122670.9
122569.8
122473.9
123297.4
123275.6
123233.4
123185.9
123122.2
123068.5
123014
122960.7
122910.9
122882.3
122880.1
122902.1
122940.5
122985.3
123030.6
123071.5
123101.6
123108.4
123086.8
123051.5
123007.7
122957.2
122908.3
122857.4
122812.8
122767.1
122691.5
122618.3
123312.1
123274.5
123227.7
123189.5
123135.8
123092.3
123051.4
123015.5
122988
122975
122985.1
123013.7
123055.7
123102.3
123145.7
123177
123190.7
123177.3
123138.6
123088.5
123034.8
122981.1
122930.5
122884.5
122847.6
122797.4
122752.1
122707
123325.5
123262.6
123217.7
123183.9
123145.4
123103.3
123073.5
123051.5
123041.7
123044.3
123067.1
123102
123149.9
123199.9
123242.7
123266.9
123270.3
123245.2
123193.7
123129.6
123069.7
123017.8
122972.5
122940.8
122907.1
122867.9
122835.1
122806.1
123265.9
123207.5
123167.8
123139.5
123113.6
123086
123075
123076.7
123093.6
123127.5
123171.6
123225.9
123276.7
123319.1
123341.6
123341.8
123306
123238.3
123169.5
123111.8
123063.8
123031.5
122998.2
122967.2
122948.5
122926.5
123199.8
123160.4
123127.8
123112.8
123103.2
123094.4
123104.1
123131.1
123171.6
123223.9
123283.1
123337.5
123379.9
123401
123395.4
123350.3
123276.2
123208.7
123156.5
123121.9
123088.7
123054.9
123037
123034.4
123216.3
123152.7
123122.3
123106
123108.8
123116.4
123127.1
123160.2
123206.7
123264.6
123325.9
123382.3
123424
123445.1
123437.1
123383.1
123309.1
123248.9
123210.2
123178.2
123144.6
123123.1
123113
123114.3
123158.2
123120
123105.4
123107.3
123129.3
123151
123191.2
123236.5
123296.1
123359
123416
123459.2
123482.6
123468.2
123409.5
123351.2
123304.2
123269
123235.5
123219.4
123203.4
123210.2
123125.7
123104.9
123108.5
123127.2
123159.4
123210.7
123263.2
123325.2
123389.5
123448.1
123495.4
123518.9
123497.1
123445.5
123396.1
123348.4
123325.8
123317.1
123313.4
123322.6
123108.8
123128.4
123164.4
123210.9
123271.7
123335.4
123400
123460.7
123508
123521.5
123496
123458.7
123436
123416.9
123407.1
123448.7
123131.2
123162.4
123209.8
123276.7
123343.3
123408.6
123470.1
123511.5
123519.7
123503
123477.4
123481.4
123504.8
123550.6
123277.9
123339.2
123403
123456.9
123488
123501.4
123517.8
123565.5
122944.8
122954.2
122904.1
122845.5
122817.6
122818.2
122886.9
122882.4
122895.8
122927.4
122983.2
123012.9
122965.3
122891.5
122843.8
122823.3
122835.5
122859.9
122894.3
122941.5
122977.2
122928.5
122895.8
122885.8
122900.7
122950.9
123015.4
123072.5
123039.1
122949.7
122886.3
122854.9
122849.3
122851.6
122879.8
122922
122990.4
123077.5
123025.5
122978.9
122940.2
122916.1
122901.9
122906.9
122942
123007.5
123087.6
123083
122989.1
122912.3
122868.6
122857.3
122863.2
122886.9
122926.5
122976.8
123054.4
123191.5
123075.1
123029.6
122989
122955
122913.4
122874.3
122873.4
122912.7
122985.4
123075
123090.2
123010.9
122936.5
122890.7
122871.1
122871.5
122891.3
122933.7
122986.6
123052.9
123159.4
123323.5
123137.4
123084.2
123050.5
123012.8
122965.2
122900.9
122851
122834.4
122866.6
122942.7
123038.6
123071.8
123016.2
122959.5
122922.3
122904.4
122902.5
122916.5
122952.2
123009.4
123075.5
123159.9
123275.5
123459.4
123205.3
123141.7
123106.2
123071.8
123029.6
122973.4
122892
122806.4
122762.1
122781.6
122863.7
122968.4
123022.6
123004.6
122978.2
122958.8
122950.5
122954
122968.2
122995.9
123038.1
123098.4
123177.4
123266.9
123389.7
123573.2
123267.9
123197.6
123163.8
123136.9
123111.8
123074.2
122998.1
122876.8
122745.5
122669.5
122680.1
122765.2
122882.5
122968.9
122997
123003.5
123006.3
123012.4
123024
123041.5
123066.4
123098.6
123144.3
123208.4
123286.2
123375.6
123478.2
123640.5
123307.6
123245.5
123208.1
123192.3
123178.5
123170.3
123132.5
123031.6
122875.3
122710.5
122619.3
122613.6
122698.1
122835.4
122945.6
123006.7
123041.5
123066.6
123090
123113.3
123136.9
123161.6
123189
123221.4
123264.1
123320.4
123390
123453.7
123530.4
123647.4
123289.4
123250
123231.2
123225.4
123231
123240.2
123202.5
123093.2
122923.3
122745.1
122621.8
122617
122704.2
122834.7
122951.5
123033.8
123093.9
123141.8
123184.3
123221.6
123254.7
123282.6
123306.4
123328.8
123353.8
123384.3
123425.3
123466
123500.3
123557.2
123331.6
123279.4
123259.5
123248.1
123253.7
123286
123310.1
123291.9
123181.1
122984.1
122789.4
122670.1
122654.6
122724.9
122840.6
122959.6
123061.9
123151.2
123227.8
123293.5
123347.3
123391.1
123424.1
123446.7
123460.4
123470.4
123479.9
123485.8
123495.9
123507.7
123491.4
123533.6
123318.9
123281.4
123264
123255.3
123273.4
123324.8
123377.3
123374.5
123234.7
123009.1
122812.6
122687.6
122657.1
122712.7
122822.9
122953.1
123075.7
123183.7
123284
123376.3
123456.8
123522.9
123571.4
123599.3
123605.5
123600.1
123589.1
123570.5
123550.6
123534.2
123481.7
123475
123320.1
123283.6
123265.6
123258.5
123281.9
123338.3
123410.4
123390.5
123231.5
123001
122785.1
122637.9
122585.9
122626.4
122729.7
122861.2
123005
123140.2
123261.3
123368.4
123460.5
123537.1
123600.7
123652.8
123685.4
123689.9
123672.1
123646.8
123608.2
123566.7
123494.2
123445.9
123322.5
123288.6
123263.6
123248.9
123260.7
123295.7
123348.5
123338.2
123180.9
122925.4
122673.5
122491.4
122411
122438.5
122548.2
122696.1
122855.3
123014.6
123157.9
123279.4
123377.6
123453.9
123513.8
123563.4
123607.6
123639
123649.7
123637.9
123609.5
123570.2
123516.9
123415
123370.7
123317.3
123286.1
123251.6
123230.4
123224
123227
123233.5
123197.3
123048.8
122779.8
122484.2
122274.3
122175.8
122204.9
122331.1
122499.3
122684.1
122867.8
123031.5
123165.9
123269.5
123344.4
123397.9
123437
123469.2
123498.2
123518.8
123525.2
123512.7
123471.2
123415.7
123323.7
123243.6
123363
123321.1
123286.6
123244.7
123212.7
123189.1
123164.1
123130.7
123057.3
122895.4
122625
122327
122086.3
121970.5
122011.4
122156.9
122337
122531.4
122728
122905.2
123048
123153.6
123224.5
123269.6
123298
123316.5
123330.7
123338.7
123344.1
123333.4
123303.8
123249.7
123175.4
123125.8
123374.2
123332.9
123292.3
123242.4
123201.1
123164.6
123121.2
123064.2
122971.4
122809.9
122562.9
122278.1
122031.4
121931.3
121980.4
122113.4
122275
122449.2
122634.8
122810.3
122951.1
123051.6
123113.9
123147.3
123161.9
123165.1
123162.2
123153.1
123142.2
123120.8
123086.3
123035.6
122970.3
122934.9
123390.5
123347.8
123302.3
123245.6
123197.3
123152.3
123099.1
123033.4
122939.8
122797.9
122596.5
122365.9
122168.4
122083.7
122113.5
122213.4
122337.5
122472.4
122621.1
122770
122893.9
122979.5
123027.1
123044.9
123043.4
123030
123008.9
122981.2
122950.7
122907.9
122855.1
122798
122729.3
122702.4
123412
123367
123318.5
123255.7
123201.1
123150.3
123092.9
123027.3
122943.2
122829.4
122679.7
122513.3
122373.2
122309
122326.5
122394.1
122480.7
122574.8
122679.9
122791
122886.2
122946.5
122973.2
122972.2
122953.8
122923.1
122885.2
122840.8
122792.4
122728.6
122657.3
122587.7
122503.6
122493.2
123435.1
123384.3
123340.1
123273.2
123211.8
123155.9
123096.9
123035.4
122963.9
122876.7
122770.5
122658.1
122566
122523.3
122534.8
122581.4
122642.8
122709.7
122782.9
122858.9
122921.3
122951.2
122954.3
122933.1
122898.6
122853.1
122802.2
122746.1
122686.3
122611.1
122530.3
122452.3
122340.5
122355.1
123396.5
123358
123298
123222.9
123163.6
123105.5
123048.6
122989.4
122924
122851.1
122778.7
122722.7
122698.5
122710.4
122748
122797.2
122849.6
122902.6
122951.4
122983.9
122984.6
122964.4
122924.9
122877.1
122822.5
122764.1
122702.9
122640.9
122570.2
122502.2
122432.7
122337
123422.1
123367.6
123303.7
123227.2
123166.8
123112.5
123060.4
123012.5
122964.6
122916
122871.7
122841.4
122833.6
122851.3
122888.5
122934.7
122981.3
123022.1
123050.8
123057.9
123033.7
122993.7
122940.6
122884.7
122826.8
122768.2
122710.3
122653.9
122599.7
122555.4
122495.5
122437.3
123468
123373.9
123303.1
123224.8
123161.4
123111.4
123065.1
123026.4
122992.5
122962.2
122938.9
122928.6
122936.6
122963.5
123005.4
123053.5
123098.4
123130.7
123143.8
123130.5
123086.4
123031.8
122970.7
122912.5
122856.7
122804.5
122756
122713
122682.9
122659.8
122625
122596.8
123526.4
123387.5
123304.5
123231.4
123156.5
123101.8
123060
123027.9
123004.7
122989.1
122983.4
122990.7
123013.7
123051.1
123099.9
123151.4
123195.3
123220.8
123222.2
123193.2
123134.5
123069.7
123006.5
122950.7
122901.3
122858.5
122822.6
122802.1
122798.2
122782.8
122776.2
122754.8
123419.3
123319.2
123231.2
123164.4
123095.6
123055.3
123029.3
123013.1
123007.9
123014.9
123035.2
123069.9
123117
123172.6
123226.9
123269.3
123289.7
123283.1
123241.9
123172.2
123103.4
123043.5
122993.1
122950.9
122915.9
122897
122905.6
122895.8
122901.8
122905.7
123483.8
123336.5
123236.1
123162.6
123096.2
123054.8
123032.3
123022.8
123024.2
123039.3
123069.2
123112.4
123166.6
123226.6
123282.1
123322.4
123338.9
123326.5
123274.5
123200
123133.9
123080.4
123037.1
123001.2
122979.5
122975.7
122986.6
122993.5
123010.5
123018.4
123397.6
123253.3
123164.7
123107.3
123062.7
123038.7
123033.6
123041.4
123061.1
123097
123146.3
123205.5
123267.5
123322.3
123360.2
123374.4
123355.8
123294.6
123221.6
123164.3
123120
123084.2
123060.9
123054.5
123064.2
123069.2
123086.1
123095.9
123286.9
123180.3
123114.6
123079.2
123052.4
123048
123060
123084.4
123124.2
123176.3
123238.1
123300.6
123354.3
123391.3
123403.7
123375
123310.7
123247.7
123200.9
123167.8
123147.1
123137.8
123144.6
123147.7
123165.1
123175.1
123199
123126.6
123090
123071.2
123072.3
123079.6
123106.9
123150.9
123205.8
123268.9
123331.9
123386.2
123424.8
123431
123393.5
123334.3
123282.3
123249.4
123237.1
123243.5
123240.4
123242.8
123262.7
123279.9
123140
123096.5
123079.2
123085.9
123103.1
123130.1
123174.4
123231.4
123295.1
123358.3
123413.9
123449
123446.6
123411
123367.3
123334.5
123322.4
123335.3
123342.7
123354.6
123376.4
123411.2
123105.1
123088.6
123091.5
123119.1
123153.5
123201
123258.7
123320.8
123384.6
123439.6
123468.9
123465.6
123442.4
123429.3
123419.3
123424.7
123444.2
123477.6
123500.7
123569.6
123096.1
123100.3
123121.8
123159.7
123210.1
123277.2
123344.5
123409.8
123463.7
123493.5
123497.6
123491.7
123502.7
123519.1
123547.3
123583.3
123633.4
123706.7
123130.1
123162.2
123213.3
123274.8
123347.3
123410.5
123461.7
123495.3
123514.2
123529.3
123584.1
123650.2
123730.6
123822.3
123345
123400.4
123452.4
123499
123559.3
123650.5
122890.7
122894.5
122900.4
122873.5
122820
122789.2
122790.8
122808.1
122836.2
122868.7
122961.6
122911.5
122884.1
122884.4
122901.5
122934.1
122925.8
122863
122810.7
122788.5
122789.1
122806.5
122837.5
122875.8
122916
122972.1
123001.2
122948.8
122900.7
122879.1
122886
122914.3
122954.9
122968.3
122906
122831.3
122788.3
122780
122790.6
122816.4
122846.6
122881.6
122936.9
123022
123145.3
123058.5
122985.6
122931.7
122890.8
122865.2
122870.3
122905.1
122956.7
122998.5
122956.5
122864.7
122802.8
122773.5
122768.9
122784.1
122814.6
122861.7
122915.1
122991.1
123103.2
123221.8
123193.6
123103.1
123030
122974.3
122919.9
122880.6
122856.2
122858.2
122890.7
122946.7
123011
122997.2
122901.3
122824.6
122782.3
122767.8
122775.2
122799.7
122837.5
122892.9
122976.1
123064.2
123183.8
123355.3
123252
123149.8
123072.9
123017.3
122961
122914.8
122873.1
122842.7
122839.7
122870.7
122930.9
123005.2
123012
122930.2
122849.6
122802.3
122781.1
122781.5
122800
122834.8
122885.5
122961.8
123060.4
123166.7
123312.5
123514.5
123294.2
123196.8
123117.3
123060.9
123006.8
122962
122918.9
122872.3
122831.4
122814.7
122837.5
122899.1
122982.5
123006.4
122945.9
122874.4
122831.9
122810.3
122806
122818.9
122849.9
122899.2
122968.8
123057.9
123168.2
123285.5
123442.3
123647.1
123322.7
123235.9
123162.1
123106.5
123052.8
123012.5
122976.9
122935.5
122875.4
122807.2
122762.7
122770.2
122833.3
122926.4
122974.5
122942.7
122897.6
122869.6
122854.9
122852.1
122861.8
122885.8
122927.2
122989
123070.7
123165
123278.6
123393.4
123541.9
123730.2
123271.6
123204.7
123152.2
123100.9
123065.1
123038.9
123012.3
122961.5
122871.7
122761.2
122682.6
122668.5
122739.7
122847.7
122921.9
122934.9
122925.5
122917.7
122915.3
122918.8
122929.1
122948
122978.4
123025.8
123093.9
123177.7
123268.3
123368.9
123471
123612.7
123312.8
123246.7
123197.6
123147.3
123112.9
123093.1
123082.2
123061.1
122994.4
122869
122712.6
122609.6
122594.5
122654.1
122782
122888.9
122941.6
122964.6
122978.8
122991.3
123004.4
123019
123036.5
123058.9
123091.1
123138.8
123202.9
123273.3
123347.6
123428.6
123504
123637.1
123325.1
123278.4
123234.9
123190.5
123155.2
123135
123131
123136.3
123122.6
123045.5
122894
122730.1
122596.5
122560.7
122640.4
122769.5
122886.5
122963.8
123014.4
123052.3
123083.3
123109.3
123131.1
123149.6
123166.8
123187
123214.2
123252.3
123296.9
123342.9
123394.3
123445.2
123500.9
123569.8
123310.1
123269.9
123233.8
123194.9
123169.5
123160.2
123173
123197
123200.4
123120.5
122950.4
122755.3
122625.5
122593.3
122656.4
122770.7
122888.5
122985.5
123066.4
123133.6
123188.3
123231.1
123262.5
123283.7
123297.8
123307.7
123317.3
123330.4
123347
123366.4
123388.3
123407.1
123428.3
123453.9
123309.7
123271.5
123229.8
123198.7
123179.6
123179.4
123207.4
123255.1
123285.7
123184.7
122968
122772.1
122639.5
122597.6
122644.2
122748.7
122873.5
122989.8
123090.5
123183.3
123267.7
123339.2
123393.5
123428.1
123442.4
123441.6
123435.8
123427.4
123418.2
123410.9
123402.8
123388.5
123389
123377.8
123348.3
123308
123274.4
123231.3
123200.9
123183.2
123186.1
123220
123288
123305.4
123183.4
122963.7
122750.2
122596
122531.8
122559.1
122652.1
122774.8
122909.9
123040.1
123158.6
123263.1
123350.8
123420.1
123474.8
123516.1
123536.3
123531.1
123512.4
123488.1
123460.6
123426.8
123390
123366.7
123321.5
123325.3
123348.8
123311.3
123275.1
123233.2
123201.2
123177.9
123171.6
123187.5
123228.6
123249
123131.2
122891.4
122647
122459.2
122365.3
122374.1
122466.6
122603.7
122756
122912.6
123057.4
123180.6
123278
123349.6
123402.6
123445.6
123483.5
123509.2
123513.6
123497.4
123471
123430.9
123389.4
123344.6
123285.5
123259.8
123358.9
123319.1
123280.7
123236.9
123198
123165.9
123144.9
123134.3
123131.1
123109.2
122993.9
122752.6
122466
122248.9
122133.8
122141.2
122247.8
122402.6
122579.9
122762
122929.7
123069.4
123175.3
123247.6
123295
123327.7
123354.7
123381.4
123399.4
123404.8
123391.7
123363.6
123326.4
123292.5
123251.4
123193.3
123372.5
123331.4
123283.4
123238.6
123194
123153.5
123118.8
123085.4
123047.1
122982.4
122842.9
122597.8
122312.3
122067.1
121927.8
121941.4
122068
122236.7
122424.5
122618.8
122800.6
122950.9
123061.3
123131
123170.7
123192.1
123204.7
123215.5
123224.2
123230.5
123228.3
123209.5
123177.1
123144.2
123125.3
123103.3
123393.2
123349.1
123294.6
123244.1
123193.1
123145.2
123100.5
123052
122993.7
122908.5
122762.9
122535.9
122263
122008.2
121881.6
121906
122023.1
122177.1
122345.2
122526.2
122704.3
122853.4
122959.8
123021.5
123049.3
123056.2
123051.9
123043.6
123032.5
123023.4
123012.4
122993.1
122962
122943.4
122945.5
122968.3
123418.7
123372.5
123311.7
123254.3
123196.3
123142.1
123090.7
123035.1
122969.4
122882.6
122752.6
122564.8
122341.7
122137
122031.4
122040.7
122128.1
122246.8
122376.4
122520.7
122669.3
122798.9
122889.8
122936
122946.9
122936.4
122913.3
122884.2
122851.7
122818.9
122785
122745.6
122713.3
122695.1
122719.1
122785.8
123448.3
123401.5
123336.1
123270.3
123203.9
123143.3
123087.4
123029.4
122965
122886.8
122781.8
122640.8
122478.3
122332.5
122254
122256.9
122315.5
122398.2
122490
122592
122700.8
122798.3
122862.2
122886
122875.6
122846.2
122804
122755.5
122703.3
122649.3
122590.1
122525.8
122474.5
122452.1
122505.5
122607.4
123486.1
123430.9
123370.5
123289.4
123215.3
123148.4
123088.4
123030.2
122970.8
122904.8
122824.6
122725
122614.6
122518.1
122466.1
122467.9
122508.3
122567.6
122634
122705.7
122779.6
122842.3
122874.8
122873
122840.5
122793.6
122735.8
122672.8
122607.2
122540.4
122468.5
122393
122323.7
122294.1
122353
122484.6
123530.5
123460.6
123387.8
123299
123221.8
123150.3
123089
123033.1
122980.2
122926.7
122867.7
122800.2
122729.1
122669.5
122638.6
122644
122677.7
122726.1
122779.2
122832.1
122879.9
122912.5
122915.8
122889.5
122839.1
122779.4
122712.9
122643.5
122573.6
122505
122436.2
122370.3
122315.3
122291.4
122356.6
122482.9
123591.1
123490.9
123407.3
123306.2
123222.5
123146.6
123084.1
123031.4
122984.9
122942.8
122901.2
122857.7
122814.8
122781.4
122768.8
122782.8
122817.9
122864.2
122911.9
122953.8
122982.8
122991.2
122969.9
122924.4
122862.1
122796.5
122729.1
122662.5
122598.8
122540.1
122487.9
122443.8
122413.1
122405.6
122454.4
122559.3
123541.8
123428.5
123314.3
123221.8
123140.9
123074.3
123022.1
122980.2
122946.9
122919.2
122894.1
122872.6
122860.8
122866.1
122891
122931.7
122980.1
123026.4
123060.7
123075.5
123064.6
123023.5
122965.4
122897.6
122833.1
122771.5
122715.2
122666.2
122626.9
122598.6
122579.9
122573.3
122579
122610.5
123597.9
123453.7
123340
123226.7
123139.3
123067.8
123012.9
122973.5
122945.7
122927.2
122916
122912
122918.2
122938.7
122974.3
123021.7
123073.3
123118.6
123146.6
123150.1
123123.6
123066.6
123001.6
122935
122876.2
122824.7
122782.4
122752.3
122736.8
122730.7
122733.3
122756.2
122752.2
122783.6
123684.5
123508.4
123360.7
123239.3
123142.6
123068.3
123010.2
122970.9
122947.2
122935
122933
122941.1
122960.1
122992
123036.7
123090.2
123144.1
123187.5
123209.5
123203.4
123163.9
123096.6
123029.3
122968.7
122918.3
122877.6
122849.2
122837.7
122842.1
122851.3
122873.1
122896.9
122918.8
122924.1
123605.7
123394.5
123267.4
123157.4
123076.1
123016.5
122976
122953.3
122945.2
122948.8
122964.8
122992.8
123033.1
123084.3
123141.7
123196.1
123236.3
123252.2
123237.5
123186
123115.4
123051.5
122999.6
122959
122930.1
122915.9
122918.9
122934.6
122959.2
122998.8
123018.9
123028.2
123443.2
123287.3
123178.1
123089.9
123030.1
122988.9
122965.8
122959.6
122967.3
122987.8
123021.8
123067.9
123123.5
123182.4
123235.1
123271
123281.4
123257.5
123196
123128.9
123074.2
123032.9
123004.2
122988.9
122988.1
123000.3
123021.9
123058.7
123079.3
123107.9
123490.9
123314.6
123191.2
123114.4
123048.9
123008.8
122986.2
122980.7
122990.4
123013.7
123051.3
123100.9
123158.7
123217.4
123267.2
123298.8
123303.1
123266.9
123203.8
123146.8
123104.5
123077.1
123063.3
123061
123070
123087.5
123119
123136.5
123166
123178.7
123335.5
123210.8
123124
123072.4
123031
123010.4
123006.6
123017.3
123042.8
123082.4
123134.1
123192.6
123250.1
123297.4
123325.5
123319
123274.9
123219.5
123177.3
123151.4
123141.7
123141.8
123149.1
123165.6
123197.5
123211.4
123236.9
123245.3
123222.8
123136.8
123082.4
123053.4
123033
123031.3
123045.9
123074.1
123115.3
123167.3
123225.4
123281.9
123327.7
123348.3
123332.2
123291.9
123251.5
123227.9
123221.1
123229.2
123239.7
123263
123292.8
123312.1
123342
123357.3
123144.4
123092.6
123065.2
123057.9
123055.9
123073.7
123105.8
123149.3
123201.7
123259.5
123316.6
123358.2
123370.9
123355.3
123327.6
123306.3
123301.9
123312.7
123339.3
123369
123411.5
123440.7
123479.4
123505.7
123102.6
123077.6
123073.6
123079.6
123099.5
123133
123179
123234.4
123295
123351.5
123389
123401.5
123394.6
123385.9
123384
123404.2
123435.2
123493.4
123534.6
123586.4
123641.3
123701
123082.2
123087.7