/*--------------------------------*- C++ -*----------------------------------*\
  =========                 |
  \\      /  F ield         | OpenFOAM: The Open Source CFD Toolbox
   \\    /   O peration     | Website:  https://openfoam.org
    \\  /    A nd           | Version:  6
     \\/     M anipulation  |
\*---------------------------------------------------------------------------*/
FoamFile
{
    version     2.0;
    format      ascii;
    class       volScalarField;
    location    "49.8";
    object      T;
}
// * * * * * * * * * * * * * * * * * * * * * * * * * * * * * * * * * * * * * //

dimensions      [0 0 0 1 0 0 0];

internalField   nonuniform List<scalar> 
203709
(
924.1247
924.1276
924.1313
924.1332
924.1137
924.117
924.1222
924.1256
924.1284
924.1299
924.1308
924.1315
924.1005
924.1044
924.1097
924.1139
924.1179
924.1209
924.123
924.1243
924.1252
924.1257
924.1263
924.1271
924.0887
924.0925
924.0964
924.101
924.1049
924.1081
924.1106
924.1124
924.1138
924.115
924.1162
924.1174
924.1187
924.1206
924.0936
924.0971
924.1008
924.1047
924.1084
924.1116
924.1139
924.1155
924.1169
924.1181
924.1193
924.1204
924.1212
924.1212
924.0961
924.1003
924.1074
924.1132
924.1182
924.1246
924.1307
924.1345
924.1366
924.1381
924.1394
924.1406
924.1418
924.1427
924.1434
924.1452
924.0807
924.0813
924.0834
924.0874
924.0974
924.1128
924.1277
924.1365
924.1407
924.1434
924.1455
924.1473
924.1489
924.1499
924.15
924.149
924.1035
924.0846
924.0755
924.0629
924.0433
924.064
924.0875
924.115
924.1319
924.139
924.1433
924.1466
924.1494
924.1515
924.153
924.1531
924.1518
924.1503
924.1152
924.1007
924.0881
924.0749
924.0626
924.0578
924.0668
924.0983
924.1245
924.1354
924.1414
924.1463
924.1503
924.1532
924.1552
924.1554
924.1543
924.1517
924.127
924.1171
924.1064
924.0961
924.088
924.0828
924.0837
924.0948
924.1158
924.1311
924.1387
924.145
924.1505
924.1544
924.157
924.1574
924.1561
924.1535
924.1344
924.1299
924.1227
924.1154
924.1094
924.1047
924.103
924.1071
924.117
924.1273
924.1356
924.1431
924.1503
924.1553
924.1586
924.1591
924.1577
924.1553
924.1368
924.1329
924.1281
924.1237
924.1198
924.1173
924.1178
924.1216
924.1271
924.1334
924.1409
924.1497
924.1561
924.16
924.1606
924.1592
924.1424
924.1407
924.1375
924.1342
924.1307
924.1272
924.125
924.1254
924.128
924.1328
924.1397
924.1489
924.1567
924.1614
924.162
924.1605
924.1444
924.1423
924.1395
924.136
924.1321
924.1292
924.1282
924.1294
924.133
924.1393
924.1489
924.1573
924.1628
924.1632
924.1482
924.1464
924.1436
924.1399
924.1359
924.1326
924.1308
924.1309
924.1337
924.1397
924.1497
924.1582
924.1641
924.1643
924.1484
924.1454
924.1423
924.1384
924.135
924.1328
924.1324
924.1349
924.1408
924.1514
924.1593
924.1652
924.1433
924.14
924.1366
924.1342
924.1338
924.1364
924.1424
924.1528
924.137
924.1351
924.1351
924.1377
924.0504
924.0519
924.0612
924.0956
924.1239
924.1347
924.1377
924.1387
924.1392
924.1394
924.0462
924.0445
924.0382
924.0465
924.0762
924.1049
924.1258
924.1343
924.137
924.1379
924.1383
924.1383
924.1385
924.1388
924.0493
924.0514
924.0521
924.0537
924.0682
924.0918
924.1125
924.1271
924.1336
924.1358
924.1366
924.137
924.1371
924.1373
924.1373
924.1377
924.0492
924.0551
924.0639
924.069
924.0749
924.0858
924.1017
924.118
924.1277
924.1324
924.1343
924.1349
924.1351
924.1353
924.1354
924.1355
924.1356
924.1359
924.05
924.0559
924.0675
924.0778
924.0859
924.0921
924.102
924.1107
924.1194
924.1268
924.1302
924.1316
924.1324
924.1327
924.1327
924.1328
924.1329
924.133
924.133
924.1331
924.0764
924.0549
924.0642
924.0758
924.0857
924.0941
924.0998
924.1056
924.1132
924.1193
924.1238
924.1262
924.1274
924.128
924.1283
924.1288
924.129
924.129
924.129
924.1292
924.1291
924.1289
924.0651
924.0606
924.0696
924.0788
924.0861
924.0921
924.0989
924.1046
924.1097
924.1137
924.1165
924.1183
924.1194
924.1202
924.1208
924.1214
924.1217
924.1226
924.1226
924.1232
924.1238
924.1244
924.1305
924.11
924.0682
924.0774
924.0859
924.092
924.0975
924.1021
924.1061
924.11
924.1134
924.1159
924.1176
924.1187
924.1194
924.1195
924.119
924.1177
924.116
924.1123
924.1132
924.1131
924.1132
924.1066
924.1327
924.1236
924.0879
924.0748
924.0887
924.0967
924.1056
924.1121
924.1175
924.1239
924.1299
924.134
924.1365
924.1381
924.1393
924.1402
924.1405
924.1398
924.1378
924.1375
924.1356
924.1319
924.1292
924.1279
924.1356
924.1304
924.108
924.0847
924.0795
924.0815
924.0839
924.0885
924.0978
924.1122
924.1263
924.1354
924.1403
924.1434
924.1459
924.1478
924.1492
924.1498
924.1493
924.1481
924.146
924.1429
924.1392
924.1353
924.1387
924.1351
924.1226
924.1045
924.0872
924.0782
924.0674
924.0487
924.0668
924.088
924.1128
924.1297
924.1379
924.143
924.147
924.15
924.1522
924.1534
924.1531
924.1513
924.1495
924.146
924.1413
924.1359
924.1416
924.1388
924.1325
924.1213
924.1056
924.0922
924.079
924.0665
924.0614
924.07
924.0962
924.1214
924.1335
924.1406
924.1464
924.1509
924.154
924.1557
924.1557
924.1543
924.1517
924.1481
924.1426
924.136
924.1442
924.142
924.1385
924.1325
924.1227
924.1117
924.101
924.0924
924.0872
924.0875
924.0962
924.1131
924.1282
924.1373
924.1448
924.1512
924.1554
924.1576
924.1577
924.1563
924.1537
924.1498
924.1436
924.1359
924.1466
924.1447
924.1424
924.1392
924.1351
924.1283
924.1212
924.1154
924.1109
924.1083
924.1099
924.1168
924.1255
924.1338
924.1427
924.1509
924.1564
924.1593
924.1595
924.158
924.1554
924.1514
924.1446
924.1358
924.149
924.1473
924.1454
924.1442
924.141
924.1376
924.1337
924.1299
924.1262
924.1229
924.1214
924.1229
924.1268
924.1325
924.1406
924.1503
924.1574
924.1607
924.161
924.1594
924.1571
924.1529
924.1456
924.1359
924.1518
924.15
924.1483
924.1469
924.1452
924.1435
924.1411
924.1385
924.1355
924.1321
924.1291
924.1278
924.1288
924.1327
924.14
924.1499
924.1583
924.1622
924.1625
924.1609
924.1586
924.1542
924.1465
924.1362
924.1562
924.1539
924.1517
924.1498
924.1488
924.1468
924.1451
924.143
924.1403
924.1369
924.1335
924.1312
924.1308
924.1337
924.1404
924.1504
924.1593
924.1636
924.1638
924.1627
924.1601
924.1557
924.1476
924.137
924.1588
924.1561
924.1537
924.1516
924.1501
924.1483
924.1461
924.1435
924.1402
924.1366
924.1337
924.1326
924.135
924.1415
924.1519
924.1606
924.165
924.1651
924.1641
924.1617
924.1574
924.1504
924.1692
924.1651
924.1613
924.1577
924.1548
924.1516
924.1487
924.1456
924.142
924.1384
924.1352
924.134
924.1367
924.1433
924.1542
924.1624
924.1664
924.1667
924.1654
924.1633
924.1592
924.1523
924.1713
924.1676
924.1636
924.1592
924.1553
924.1513
924.1469
924.1429
924.139
924.1359
924.1352
924.1387
924.1457
924.1567
924.1651
924.1677
924.168
924.1669
924.1648
924.1612
924.1733
924.1691
924.1642
924.159
924.1534
924.1484
924.1437
924.1392
924.1365
924.1366
924.1407
924.1495
924.1591
924.1667
924.1691
924.1693
924.1682
924.1663
924.173
924.1681
924.1621
924.1558
924.1496
924.1439
924.1396
924.1375
924.1386
924.1435
924.1516
924.1626
924.1686
924.1704
924.1706
924.1694
924.1696
924.1641
924.1574
924.1506
924.1447
924.1406
924.1392
924.1414
924.1471
924.156
924.1657
924.1704
924.1716
924.1718
924.1565
924.1508
924.1457
924.1422
924.1416
924.1447
924.1511
924.1605
924.1681
924.1722
924.0833
924.0873
924.0943
924.1224
924.1349
924.137
924.1376
924.1379
924.0859
924.0809
924.0774
924.0773
924.081
924.088
924.1184
924.135
924.1377
924.1385
924.139
924.1396
924.1399
924.14
924.0939
924.0854
924.0761
924.0709
924.0697
924.0729
924.0827
924.1202
924.1348
924.1379
924.1389
924.1394
924.1398
924.1401
924.1402
924.1405
924.1111
924.1054
924.0927
924.0787
924.0679
924.059
924.0577
924.0635
924.0875
924.1219
924.1346
924.1377
924.1387
924.1391
924.1394
924.1396
924.1398
924.1401
924.1408
924.1413
924.113
924.1113
924.1009
924.0839
924.0655
924.0563
924.051
924.0491
924.0656
924.0983
924.124
924.1342
924.1371
924.1379
924.1382
924.1384
924.1386
924.1389
924.1393
924.1399
924.1403
924.1407
924.1177
924.1146
924.1105
924.0936
924.0691
924.0589
924.0544
924.0502
924.0629
924.0822
924.1072
924.1257
924.1336
924.136
924.1367
924.1369
924.137
924.1371
924.1375
924.138
924.1385
924.1388
924.1389
924.1389
924.119
924.117
924.1078
924.0785
924.0622
924.0595
924.0641
924.0711
924.0803
924.0965
924.1142
924.1268
924.1326
924.1345
924.1351
924.1352
924.1353
924.1354
924.1356
924.1361
924.1365
924.1367
924.1367
924.1367
924.1277
924.1225
924.1194
924.097
924.0707
924.0615
924.0716
924.0802
924.0872
924.0955
924.1069
924.1184
924.1268
924.1308
924.1323
924.1328
924.133
924.1331
924.1332
924.1333
924.1336
924.1339
924.134
924.1337
924.1331
924.1322
924.137
924.1305
924.1258
924.118
924.0948
924.0633
924.0704
924.0814
924.0901
924.0969
924.104
924.1122
924.1196
924.1247
924.1274
924.1286
924.1292
924.1295
924.1297
924.1299
924.1301
924.1303
924.1304
924.1304
924.1301
924.1296
924.1287
924.1273
924.138
924.133
924.1288
924.1189
924.0944
924.0679
924.0768
924.0857
924.093
924.0997
924.1057
924.1113
924.1158
924.1189
924.1207
924.1218
924.1225
924.1231
924.1237
924.1242
924.1247
924.1251
924.1254
924.1255
924.1255
924.1251
924.1244
924.1239
924.1398
924.1355
924.1315
924.1261
924.1051
924.0766
924.0847
924.0923
924.0981
924.1029
924.1071
924.1109
924.1144
924.117
924.1188
924.1199
924.1204
924.1203
924.1195
924.1184
924.1173
924.1167
924.1174
924.1179
924.1183
924.1182
924.1179
924.1181
924.1475
924.143
924.1387
924.1348
924.1303
924.1154
924.0879
924.0857
924.0962
924.105
924.1119
924.1175
924.1236
924.1293
924.1334
924.1359
924.1376
924.1387
924.1392
924.139
924.1377
924.1352
924.1326
924.129
924.1246
924.1214
924.1191
924.1155
924.1134
924.1113
924.1484
924.1451
924.1415
924.1379
924.134
924.1246
924.1037
924.0881
924.0838
924.086
924.0911
924.0994
924.1124
924.1254
924.1345
924.1396
924.1429
924.1455
924.1473
924.1483
924.1482
924.147
924.1449
924.1422
924.1383
924.1344
924.1296
924.1237
924.1187
924.1154
924.1496
924.1469
924.144
924.1408
924.1373
924.1314
924.1179
924.1015
924.0883
924.0768
924.0579
924.0703
924.0892
924.1113
924.128
924.1367
924.1421
924.1464
924.1497
924.1517
924.1521
924.1509
924.1485
924.1455
924.1412
924.1361
924.1299
924.1224
924.1146
924.109
924.1508
924.1486
924.1461
924.1434
924.1404
924.1364
924.1286
924.1166
924.1032
924.0898
924.0759
924.0679
924.0734
924.0948
924.1189
924.1315
924.1392
924.1454
924.1504
924.1536
924.1545
924.1533
924.1508
924.1474
924.1428
924.137
924.1293
924.1196
924.1085
924.0993
924.1521
924.1501
924.148
924.1458
924.1432
924.1403
924.1359
924.1287
924.1194
924.1091
924.0997
924.0933
924.0916
924.0976
924.1115
924.1256
924.1355
924.1434
924.1503
924.1551
924.1565
924.1553
924.1526
924.149
924.1443
924.138
924.129
924.1173
924.1031
924.0914
924.1537
924.1518
924.15
924.148
924.1458
924.1436
924.1408
924.137
924.1317
924.1256
924.1198
924.1154
924.1122
924.1122
924.117
924.1245
924.1322
924.1408
924.1497
924.1563
924.1582
924.1571
924.1545
924.1508
924.1459
924.1393
924.1291
924.1156
924.0982
924.0846
924.1562
924.1541
924.1522
924.1504
924.1484
924.1465
924.1446
924.1423
924.1395
924.1362
924.1328
924.1296
924.1264
924.1242
924.1244
924.127
924.1317
924.1391
924.1486
924.1572
924.1599
924.1588
924.1563
924.1527
924.1477
924.1406
924.1295
924.1143
924.0939
924.0794
924.1613
924.1583
924.1557
924.1535
924.1515
924.1496
924.1479
924.1462
924.1444
924.1425
924.1403
924.138
924.135
924.132
924.13
924.13
924.1327
924.139
924.1484
924.1581
924.1614
924.1604
924.158
924.1545
924.1495
924.1423
924.1301
924.1137
924.0907
924.0759
924.1642
924.1608
924.1588
924.1561
924.1536
924.1516
924.1498
924.1481
924.1466
924.1449
924.1427
924.1398
924.1365
924.1338
924.1326
924.1342
924.1399
924.1493
924.1594
924.1629
924.162
924.1598
924.1566
924.1517
924.1445
924.1317
924.1144
924.0927
924.1749
924.1708
924.1674
924.1632
924.1599
924.157
924.1545
924.1523
924.1503
924.1483
924.146
924.1431
924.1397
924.1366
924.1347
924.1359
924.1416
924.1512
924.1612
924.1645
924.1637
924.1618
924.159
924.1545
924.1466
924.1361
924.1171
924.0939
924.1836
924.1795
924.1757
924.1727
924.1687
924.165
924.1615
924.1581
924.155
924.152
924.149
924.1455
924.1419
924.1384
924.1363
924.1379
924.144
924.154
924.1634
924.1661
924.1654
924.1639
924.1616
924.158
924.1505
924.1404
924.1214
924.0963
924.1859
924.1823
924.1793
924.1761
924.1721
924.168
924.1638
924.1596
924.1555
924.1514
924.1472
924.143
924.1392
924.1376
924.1401
924.1471
924.1574
924.1657
924.1677
924.1672
924.166
924.1643
924.1607
924.1558
924.1459
924.1265
924.1873
924.1843
924.1813
924.1778
924.1736
924.1688
924.1637
924.1585
924.1532
924.148
924.1432
924.1396
924.139
924.1428
924.1507
924.1611
924.1678
924.1693
924.169
924.1681
924.1663
924.1642
924.1596
924.1521
924.1904
924.1878
924.1846
924.1814
924.1773
924.1724
924.1667
924.1605
924.1543
924.1482
924.1431
924.1403
924.1412
924.1462
924.1548
924.1646
924.1696
924.1709
924.1707
924.1697
924.1685
924.1665
924.1629
924.1555
924.1888
924.1862
924.1828
924.179
924.1738
924.1681
924.1615
924.1545
924.1481
924.1434
924.1418
924.1441
924.1502
924.1594
924.1674
924.1714
924.1725
924.1722
924.1714
924.1701
924.1686
924.1653
924.1863
924.1836
924.1794
924.1745
924.1686
924.1613
924.1541
924.1481
924.1445
924.1443
924.1478
924.1548
924.1637
924.1698
924.1731
924.174
924.1738
924.1728
924.1715
924.1701
924.1784
924.1739
924.1676
924.161
924.1543
924.1491
924.1465
924.1474
924.1517
924.1594
924.1668
924.1718
924.1744
924.1753
924.1752
924.1742
924.172
924.167
924.1612
924.1548
924.1506
924.1491
924.1509
924.1561
924.1632
924.1696
924.1737
924.1757
924.1765
924.1765
924.1549
924.1525
924.1521
924.1547
924.1601
924.1664
924.172
924.1757
924.1086
924.1139
924.1293
924.1325
924.133
924.1331
924.1127
924.1112
924.109
924.1078
924.1071
924.1089
924.1281
924.1337
924.1346
924.135
924.1361
924.1367
924.1372
924.1372
924.1123
924.1123
924.1116
924.108
924.1046
924.1019
924.1011
924.1035
924.1255
924.1342
924.1359
924.1365
924.1373
924.1378
924.1383
924.1386
924.1391
924.139
924.112
924.1116
924.111
924.1079
924.1012
924.0961
924.0952
924.0953
924.0983
924.1192
924.1341
924.1366
924.1373
924.138
924.1384
924.1389
924.1394
924.1399
924.1402
924.1406
924.1135
924.1114
924.1106
924.1083
924.1044
924.097
924.0905
924.087
924.0877
924.0923
924.1155
924.1335
924.1367
924.1375
924.1378
924.1382
924.1387
924.1394
924.14
924.1406
924.1412
924.1418
924.119
924.1137
924.1112
924.1094
924.1058
924.0966
924.0865
924.0786
924.0747
924.0755
924.0852
924.1151
924.1327
924.1363
924.137
924.1371
924.1373
924.1376
924.1382
924.1393
924.1403
924.1411
924.1416
924.1421
924.1279
924.1196
924.1143
924.1118
924.1086
924.0989
924.0853
924.0734
924.065
924.061
924.0655
924.0874
924.1176
924.132
924.1354
924.136
924.1359
924.1358
924.1358
924.1363
924.1373
924.1388
924.1401
924.1408
924.1411
924.1412
924.1377
924.128
924.1206
924.1157
924.1131
924.1057
924.0893
924.0735
924.063
924.0563
924.0562
924.075
924.0981
924.1204
924.1313
924.1341
924.1347
924.1345
924.1342
924.1342
924.1345
924.1355
924.1369
924.1383
924.1392
924.1394
924.1392
924.1386
924.1455
924.137
924.1294
924.1224
924.1177
924.1139
924.0993
924.0782
924.0649
924.0613
924.0652
924.0745
924.0894
924.1076
924.1228
924.1303
924.1325
924.133
924.1329
924.1328
924.1328
924.133
924.1338
924.1349
924.136
924.1366
924.1368
924.1365
924.1357
924.1341
924.1441
924.1376
924.1305
924.1242
924.12
924.1123
924.0912
924.0686
924.0665
924.075
924.0826
924.0906
924.1019
924.1143
924.124
924.1289
924.1305
924.1309
924.1309
924.131
924.1311
924.1314
924.1319
924.1325
924.1331
924.1335
924.1337
924.1333
924.1325
924.1311
924.1513
924.1451
924.1391
924.1325
924.1265
924.1223
924.1114
924.081
924.0672
924.0775
924.087
924.0941
924.1013
924.1095
924.1174
924.1232
924.1262
924.1274
924.1278
924.128
924.1281
924.1284
924.1287
924.1292
924.1296
924.1299
924.13
924.13
924.1297
924.1287
924.1275
924.1242
924.151
924.1463
924.141
924.1347
924.129
924.1245
924.1118
924.0729
924.0754
924.085
924.0926
924.0992
924.1052
924.1108
924.1155
924.1188
924.1206
924.1216
924.1221
924.1226
924.123
924.1235
924.1241
924.1247
924.1252
924.1257
924.1259
924.1259
924.1256
924.1248
924.1238
924.1213
924.1513
924.1476
924.1428
924.1371
924.1317
924.1273
924.1161
924.0822
924.0838
924.0923
924.0984
924.1031
924.1073
924.1112
924.1147
924.1174
924.1194
924.1205
924.1209
924.1206
924.1197
924.1185
924.1176
924.1176
924.1184
924.1192
924.1199
924.1203
924.1205
924.1204
924.1199
924.1171
924.1518
924.1486
924.1444
924.1394
924.1344
924.1302
924.1214
924.096
924.085
924.0955
924.1046
924.1117
924.1175
924.1233
924.1286
924.1326
924.1352
924.137
924.138
924.1382
924.1374
924.1355
924.1324
924.1286
924.1243
924.1204
924.1184
924.1172
924.1158
924.1153
924.1146
924.1132
924.1558
924.1529
924.1499
924.1461
924.1418
924.1372
924.1332
924.1268
924.1093
924.0918
924.086
924.088
924.0931
924.101
924.1128
924.1246
924.1335
924.1387
924.1421
924.1447
924.1463
924.1468
924.1459
924.1437
924.1408
924.1374
924.1333
924.1287
924.1239
924.1192
924.1155
924.1131
924.1109
924.1092
924.1558
924.1536
924.151
924.1477
924.144
924.14
924.1362
924.1315
924.1205
924.1049
924.0921
924.082
924.0659
924.0732
924.0902
924.11
924.1263
924.1353
924.141
924.1454
924.1487
924.1502
924.1495
924.147
924.1434
924.1392
924.1342
924.1287
924.1225
924.1156
924.1099
924.1069
924.1051
924.104
924.1562
924.1543
924.1521
924.1493
924.1461
924.1427
924.1393
924.1356
924.1291
924.1183
924.1061
924.0942
924.0811
924.0725
924.0759
924.0938
924.1164
924.1295
924.1376
924.1439
924.1491
924.1522
924.1518
924.1488
924.1444
924.1392
924.1334
924.1267
924.1188
924.1089
924.0982
924.0895
924.087
924.0878
924.1572
924.1554
924.1534
924.151
924.1483
924.1453
924.1423
924.1393
924.1353
924.1289
924.1206
924.1115
924.1028
924.0966
924.0944
924.0987
924.1103
924.1235
924.1334
924.1414
924.1486
924.1535
924.1538
924.1504
924.1454
924.1394
924.1328
924.1253
924.116
924.1041
924.0905
924.0778
924.0679
924.0663
924.1592
924.1572
924.1552
924.153
924.1507
924.1481
924.1455
924.1429
924.1401
924.1365
924.1317
924.1263
924.1211
924.1174
924.1145
924.1139
924.1173
924.1237
924.1308
924.1386
924.1474
924.1545
924.1556
924.1521
924.1467
924.1402
924.1328
924.1244
924.1143
924.101
924.0853
924.0701
924.0593
924.056
924.1642
924.1611
924.1584
924.156
924.1537
924.1513
924.1489
924.1466
924.1444
924.142
924.1393
924.1363
924.1334
924.1309
924.1283
924.1261
924.1256
924.1273
924.1311
924.1375
924.1464
924.1551
924.1572
924.1538
924.1485
924.1418
924.1338
924.1245
924.1136
924.0994
924.0826
924.0656
924.0556
924.0544
924.1668
924.1647
924.1613
924.1584
924.1556
924.1531
924.1507
924.1486
924.1466
924.1447
924.1428
924.1409
924.139
924.1366
924.1338
924.1317
924.131
924.1327
924.1378
924.1465
924.1559
924.1589
924.1557
924.1507
924.1441
924.1359
924.126
924.1144
924.0995
924.0816
924.0638
924.0563
924.1768
924.1735
924.1694
924.166
924.1626
924.1593
924.1563
924.1536
924.1514
924.1495
924.1478
924.1461
924.1441
924.1415
924.1385
924.1357
924.134
924.1347
924.1392
924.1477
924.1573
924.1605
924.1575
924.1528
924.1466
924.1385
924.1285
924.1167
924.1011
924.0809
924.0646
924.0576
924.1859
924.1823
924.1787
924.1752
924.1717
924.1682
924.1646
924.1612
924.1583
924.1556
924.1531
924.1506
924.148
924.145
924.1418
924.1385
924.1363
924.1366
924.1412
924.15
924.1595
924.1622
924.1593
924.1553
924.15
924.1426
924.1332
924.1219
924.106
924.0841
924.066
924.0582
924.1923
924.1888
924.1865
924.1832
924.18
924.1766
924.173
924.1693
924.1656
924.1622
924.1587
924.1551
924.1516
924.1478
924.144
924.1403
924.1379
924.1387
924.144
924.1532
924.1621
924.1639
924.1614
924.1583
924.1541
924.148
924.1399
924.1297
924.114
924.09
924.0685
924.0583
924.1932
924.1912
924.189
924.186
924.183
924.1797
924.1761
924.1723
924.1681
924.1638
924.1593
924.1546
924.1499
924.1452
924.1412
924.1393
924.1411
924.1474
924.1571
924.1648
924.1656
924.1636
924.1613
924.1585
924.154
924.1476
924.1392
924.1219
924.0996
924.0721
924.1961
924.194
924.1921
924.1897
924.187
924.1841
924.1809
924.1771
924.1728
924.1679
924.1626
924.1569
924.1511
924.1458
924.1419
924.141
924.1442
924.1516
924.1612
924.1672
924.1675
924.1659
924.1644
924.1626
924.1597
924.1549
924.1465
924.1334
924.1093
924.0744
924.1953
924.1935
924.1917
924.1894
924.1867
924.1837
924.18
924.1757
924.1705
924.1646
924.1582
924.1517
924.1463
924.1431
924.1435
924.1481
924.1563
924.1652
924.1693
924.1694
924.1682
924.1673
924.1663
924.1645
924.1612
924.1541
924.1436
924.1175
924.1939
924.1923
924.1903
924.1879
924.1849
924.1814
924.177
924.1717
924.1655
924.1586
924.152
924.147
924.1449
924.1468
924.1525
924.1612
924.1684
924.1712
924.1714
924.1707
924.1701
924.1694
924.1681
924.1651
924.1606
924.1505
924.1919
924.1902
924.1878
924.1851
924.1817
924.1773
924.1718
924.1653
924.1584
924.1522
924.1481
924.1475
924.1506
924.1574
924.1654
924.1708
924.1731
924.1734
924.1731
924.1727
924.172
924.1704
924.1684
924.1643
924.1894
924.1874
924.1847
924.181
924.1766
924.1709
924.1644
924.1579
924.1525
924.1497
924.1505
924.1548
924.162
924.1686
924.173
924.1749
924.1754
924.1753
924.1746
924.1739
924.1723
924.1703
924.1859
924.1832
924.1798
924.1748
924.1691
924.1632
924.1575
924.1533
924.1519
924.1539
924.1592
924.1656
924.1713
924.175
924.1767
924.1771
924.1769
924.1762
924.1754
924.1737
924.181
924.1778
924.1731
924.1677
924.1623
924.1576
924.1548
924.1547
924.1578
924.163
924.1687
924.1736
924.1768
924.1781
924.1785
924.1784
924.1775
924.1769
924.17
924.166
924.1616
924.1581
924.1568
924.1577
924.1611
924.166
924.1714
924.1754
924.1781
924.1793
924.1798
924.1799
924.1592
924.1606
924.164
924.1688
924.1738
924.1776
924.1149
924.1132
924.1123
924.1204
924.1276
924.1287
924.1295
924.1303
924.131
924.1312
924.1132
924.1145
924.1153
924.115
924.1138
924.1113
924.1174
924.1284
924.1306
924.1312
924.1319
924.1324
924.133
924.134
924.1346
924.1347
924.1125
924.1132
924.1143
924.1143
924.1134
924.1122
924.111
924.1119
924.1273
924.1318
924.1325
924.1331
924.1336
924.1344
924.1352
924.1359
924.1361
924.1364
924.1177
924.1137
924.1124
924.1128
924.1134
924.1127
924.111
924.1092
924.1078
924.1077
924.1238
924.132
924.1334
924.1337
924.1341
924.1348
924.1357
924.1366
924.1372
924.1378
924.1385
924.1388
924.1264
924.1174
924.1133
924.1119
924.1119
924.1114
924.1093
924.1063
924.1043
924.1034
924.1039
924.1173
924.1314
924.1338
924.1341
924.1344
924.1348
924.1355
924.1364
924.1374
924.1386
924.1396
924.1403
924.141
924.1375
924.125
924.117
924.1127
924.1112
924.1105
924.1084
924.1044
924.1
924.0971
924.0964
924.0982
924.1114
924.1302
924.1336
924.1342
924.1342
924.1344
924.1348
924.1356
924.1369
924.1384
924.14
924.141
924.1419
924.1427
924.147
924.1349
924.1243
924.1164
924.1122
924.1105
924.1083
924.1031
924.0959
924.0892
924.0852
924.0846
924.0895
924.1074
924.1289
924.133
924.1337
924.1335
924.1331
924.133
924.1335
924.1349
924.1372
924.1394
924.1409
924.1419
924.1425
924.1429
924.1534
924.144
924.1337
924.1236
924.1161
924.112
924.1098
924.1044
924.0945
924.0837
924.0751
924.0705
924.0715
924.0829
924.1091
924.1279
924.132
924.1325
924.1321
924.1313
924.1306
924.1306
924.132
924.1348
924.138
924.1399
924.141
924.1415
924.1415
924.1408
924.1505
924.1425
924.1326
924.1232
924.1162
924.1123
924.1086
924.0977
924.0831
924.0709
924.0626
924.0583
924.0675
924.0906
924.1134
924.1273
924.1308
924.1311
924.1305
924.1296
924.1288
924.1287
924.13
924.1328
924.136
924.1381
924.1392
924.1396
924.1394
924.1387
924.1548
924.1488
924.1412
924.1322
924.1234
924.1168
924.1132
924.1057
924.088
924.0716
924.0633
924.0606
924.0693
924.0821
924.1005
924.1173
924.1268
924.1294
924.1295
924.129
924.1284
924.1281
924.1282
924.1292
924.1313
924.1336
924.1354
924.1364
924.1368
924.1364
924.1353
924.1325
924.1575
924.1536
924.1483
924.141
924.1325
924.1242
924.118
924.1138
924.1005
924.0768
924.0658
924.0703
924.0781
924.0853
924.0962
924.109
924.1199
924.1259
924.1277
924.1279
924.1276
924.1273
924.1272
924.1276
924.1284
924.1296
924.1309
924.132
924.1327
924.133
924.1326
924.1315
924.1296
924.1261
924.1569
924.1531
924.148
924.1413
924.1334
924.1255
924.1199
924.1143
924.0927
924.0685
924.074
924.0836
924.0909
924.0978
924.1058
924.114
924.1204
924.1239
924.1251
924.1254
924.1254
924.1254
924.1256
924.1259
924.1265
924.1273
924.1279
924.1283
924.1286
924.1288
924.1285
924.1278
924.1258
924.1232
924.1565
924.1532
924.1483
924.1421
924.1347
924.1273
924.122
924.1146
924.0799
924.0744
924.0838
924.0915
924.0978
924.1036
924.1091
924.114
924.1175
924.1194
924.1203
924.1208
924.1211
924.1214
924.1218
924.1223
924.1229
924.1236
924.1241
924.1245
924.1246
924.1245
924.1243
924.1237
924.1221
924.1202
924.1596
924.1566
924.1534
924.1488
924.1432
924.1364
924.1296
924.1243
924.1171
924.0869
924.0831
924.0919
924.0982
924.103
924.1071
924.1109
924.1145
924.1174
924.1195
924.1207
924.1212
924.1207
924.1196
924.1181
924.1171
924.1171
924.118
924.1188
924.1194
924.1199
924.1201
924.1202
924.1198
924.1184
924.1167
924.1137
924.1588
924.1566
924.1536
924.1494
924.1443
924.1384
924.1322
924.127
924.1208
924.0993
924.0851
924.0948
924.1042
924.1115
924.1174
924.1229
924.1279
924.1318
924.1345
924.1362
924.1371
924.1371
924.1359
924.1333
924.1296
924.1251
924.1207
924.1178
924.1167
924.1161
924.1156
924.1155
924.1154
924.1143
924.1133
924.1109
924.1584
924.1564
924.1537
924.1499
924.1455
924.1404
924.135
924.1301
924.1248
924.1103
924.093
924.0874
924.0895
924.0947
924.1022
924.1129
924.1238
924.1324
924.1377
924.1411
924.1436
924.145
924.1449
924.143
924.1398
924.1362
924.1324
924.1281
924.1238
924.1199
924.1162
924.1136
924.1122
924.1108
924.1095
924.108
924.1585
924.1566
924.1539
924.1506
924.1468
924.1425
924.1379
924.1334
924.1288
924.1197
924.1053
924.0935
924.0847
924.0718
924.0754
924.0909
924.1088
924.1246
924.1339
924.1396
924.144
924.1472
924.1483
924.1463
924.1421
924.1371
924.1319
924.1267
924.1215
924.1163
924.112
924.1086
924.1066
924.1054
924.1045
924.104
924.1591
924.1573
924.1548
924.1519
924.1486
924.1449
924.1409
924.1369
924.1329
924.127
924.1174
924.1064
924.0958
924.0841
924.0756
924.0778
924.093
924.1139
924.1277
924.1358
924.1422
924.1475
924.1502
924.1482
924.1429
924.1363
924.1293
924.1224
924.1154
924.1079
924.0996
924.0928
924.0904
924.0907
924.0922
924.0947
924.1607
924.1588
924.1566
924.154
924.151
924.1477
924.1442
924.1406
924.1371
924.1331
924.1272
924.1197
924.1116
924.1037
924.0982
924.0961
924.0995
924.1094
924.1217
924.1314
924.1394
924.1466
924.1515
924.15
924.1437
924.1356
924.1269
924.1182
924.1096
924.1007
924.0903
924.0796
924.0702
924.069
924.0733
924.0799
924.1641
924.1616
924.1595
924.1571
924.1543
924.1512
924.148
924.1448
924.1417
924.1385
924.1348
924.1304
924.1256
924.121
924.1179
924.1156
924.115
924.1176
924.1231
924.1296
924.1368
924.1452
924.1522
924.1517
924.1447
924.1357
924.1256
924.1152
924.1049
924.0946
924.0835
924.0721
924.0621
924.0559
924.0586
924.0662
924.1703
924.168
924.1648
924.162
924.159
924.1559
924.1527
924.1496
924.1467
924.1439
924.1412
924.1385
924.1357
924.1332
924.1313
924.1293
924.1274
924.1266
924.1277
924.1308
924.1362
924.1444
924.1527
924.1533
924.1461
924.1367
924.1257
924.1139
924.1021
924.0907
924.0791
924.068
924.0596
924.0563
924.0566
924.0594
924.1793
924.1762
924.1727
924.1698
924.1665
924.1629
924.1593
924.1557
924.1525
924.1498
924.1473
924.1451
924.1432
924.1415
924.1398
924.1377
924.1352
924.133
924.132
924.133
924.1371
924.1449
924.1536
924.1548
924.1479
924.1387
924.1274
924.1148
924.1019
924.0896
924.0778
924.0672
924.0602
924.0589
924.0609
924.0611
924.1881
924.1842
924.1811
924.1783
924.1752
924.1718
924.1683
924.1646
924.161
924.1578
924.1549
924.1524
924.1502
924.148
924.1458
924.1432
924.1402
924.1373
924.1353
924.1353
924.1389
924.1465
924.1552
924.1564
924.15
924.1417
924.131
924.1182
924.1048
924.0921
924.0798
924.0688
924.0617
924.0609
924.0642
924.0654
924.1917
924.189
924.1863
924.1833
924.1802
924.1768
924.1733
924.1697
924.1664
924.1631
924.1599
924.1568
924.1536
924.1505
924.1471
924.1436
924.1402
924.1377
924.1375
924.1413
924.1491
924.1575
924.1582
924.1524
924.1449
924.1353
924.1233
924.1102
924.0972
924.0843
924.0718
924.0628
924.0614
924.0655
924.1962
924.1944
924.1919
924.1893
924.1864
924.1834
924.1803
924.177
924.1737
924.1702
924.1666
924.1627
924.1587
924.1545
924.1502
924.146
924.1421
924.1395
924.1398
924.1443
924.1526
924.1602
924.16
924.1547
924.1489
924.1413
924.1311
924.1191
924.1062
924.0922
924.077
924.0638
924.0602
924.065
924.1987
924.197
924.1951
924.1929
924.1904
924.1877
924.1849
924.1821
924.1791
924.1758
924.172
924.1677
924.1629
924.1578
924.1526
924.1475
924.1433
924.1411
924.1425
924.148
924.1566
924.163
924.1619
924.1574
924.1533
924.1482
924.1406
924.1306
924.1187
924.1042
924.0858
924.0659
924.0581
924.0628
924.1986
924.197
924.1951
924.1929
924.1904
924.1878
924.1852
924.1825
924.1794
924.1757
924.1712
924.1659
924.1601
924.1541
924.1485
924.1445
924.1433
924.1459
924.1524
924.1608
924.1656
924.1638
924.1602
924.1576
924.1549
924.1501
924.1428
924.133
924.1197
924.0993
924.0716
924.0552
924.1975
924.196
924.1942
924.1919
924.1894
924.1869
924.1842
924.1812
924.1776
924.1731
924.1676
924.1613
924.1549
924.1494
924.1461
924.1462
924.1501
924.1572
924.1648
924.1678
924.166
924.1632
924.1618
924.1609
924.1583
924.1536
924.1467
924.1361
924.1138
924.0834
924.1975
924.1962
924.1946
924.1927
924.1903
924.1877
924.185
924.1819
924.1783
924.1737
924.1681
924.1617
924.1554
924.1504
924.1483
924.1497
924.1546
924.1621
924.1681
924.1698
924.1684
924.1665
924.166
924.1658
924.1646
924.1619
924.1576
924.1478
924.1312
924.0914
924.1954
924.1942
924.1925
924.1905
924.188
924.1852
924.182
924.1782
924.1735
924.1678
924.1616
924.1558
924.1519
924.151
924.1536
924.1594
924.1663
924.1707
924.1719
924.1712
924.1702
924.17
924.1699
924.1691
924.1675
924.1637
924.1581
924.1426
924.1932
924.1919
924.1901
924.1879
924.185
924.1815
924.1775
924.1726
924.1669
924.1612
924.1562
924.1536
924.154
924.1577
924.1639
924.1695
924.1729
924.1741
924.174
924.1737
924.1735
924.173
924.1721
924.1704
924.1679
924.1632
924.1905
924.189
924.1868
924.1841
924.1805
924.1762
924.1712
924.1658
924.1606
924.1569
924.1555
924.1572
924.1617
924.1674
924.1723
924.1751